<event>
 7    1  0.3056346E-009  0.8249964E+02  0.7561462E-02  0.1322104E+00
         -3   -1    0    0    0  501 -0.00000000000E+00  0.00000000000E+00  0.56629233349E+02  0.56629233349E+02  0.00000000000E+00 0.  1.
          3   -1    0    0  501    0  0.00000000000E+00 -0.00000000000E+00 -0.21637151482E+03  0.21637151482E+03  0.00000000000E+00 0. -1.
         25    2    1    2    0    0 -0.15838097164E+02 -0.86113451268E+01 -0.94460172579E+02  0.15778165118E+03  0.12508926675E+03 0.  0.
          5    1    3    3  502    0 -0.41728072893E+02  0.40944166429E+01  0.14832494989E+02  0.44670702061E+02  0.41800000000E+01 0. -1.
         -5    1    3    3    0  502  0.25889975729E+02 -0.12705761770E+02 -0.10929266757E+03  0.11311094911E+03  0.41800000000E+01 0. -1.
        -11    1    1    2    0    0  0.53830516723E+02 -0.32289189627E+01 -0.28339847537E+02  0.60920418636E+02  0.00000000000E+00 0.  1.
         11    1    1    2    0    0 -0.37992419558E+02  0.11840264089E+02 -0.36942261356E+02  0.54298678361E+02  0.00000000000E+00 0. -1.
</event>
<event>
 7    1  0.3056346E-009  0.1184752E+03  0.7561462E-02  0.1245634E+00
         -1   -1    0    0    0  501 -0.00000000000E+00  0.00000000000E+00  0.16865553219E+03  0.16865553219E+03  0.00000000000E+00 0.  1.
          1   -1    0    0  501    0  0.00000000000E+00 -0.00000000000E+00 -0.91401656971E+02  0.91401656971E+02  0.00000000000E+00 0. -1.
         25    2    1    2    0    0 -0.28799553733E+02  0.44338676353E+02  0.13156148153E+02  0.13644464022E+03  0.12509485639E+03 0.  0.
          5    1    3    3  502    0 -0.30540272109E+02  0.86914907267E+02  0.21851746531E+01  0.92245090460E+02  0.41800000000E+01 0. -1.
         -5    1    3    3    0  502  0.17407183751E+01 -0.42576230914E+02  0.10970973500E+02  0.44199549758E+02  0.41800000000E+01 0. -1.
        -11    1    1    2    0    0  0.74610808482E+01  0.26709264259E+02  0.37521658466E+01  0.27984482722E+02  0.00000000000E+00 0.  1.
         11    1    1    2    0    0  0.21338472885E+02 -0.71047940612E+02  0.60345561221E+02  0.95628066222E+02  0.00000000000E+00 0. -1.
</event>
<event>
 7    1  0.3056346E-009  0.1408862E+03  0.7561462E-02  0.1212141E+00
          2   -1    0    0  501    0  0.00000000000E+00  0.00000000000E+00  0.22960377171E+04  0.22960377171E+04  0.00000000000E+00 0. -1.
         -2   -1    0    0    0  501 -0.00000000000E+00 -0.00000000000E+00 -0.18500755104E+02  0.18500755104E+02  0.00000000000E+00 0.  1.
         25    2    1    2    0    0  0.12048231616E+03 -0.68571775782E+02  0.17787253686E+04  0.17884992307E+04  0.12508990551E+03 0.  0.
          5    1    3    3  502    0  0.77367550145E+02 -0.33373477158E+02  0.15752538852E+04  0.15775112685E+04  0.41800000000E+01 0.  1.
         -5    1    3    3    0  502  0.43114766011E+02 -0.35198298624E+02  0.20347148332E+03  0.21098796221E+03  0.41800000000E+01 0.  1.
        -11    1    1    2    0    0 -0.22170096196E+02  0.26788299272E+02  0.32320500123E+02  0.47473580773E+02  0.00000000000E+00 0.  1.
         11    1    1    2    0    0 -0.98312219961E+02  0.41783476510E+02  0.46649109327E+03  0.47856566070E+03  0.00000000000E+00 0. -1.
</event>
<event>
 7    1  0.3056346E-009  0.8980288E+02  0.7561462E-02  0.1303330E+00
         -2   -1    0    0    0  501 -0.00000000000E+00  0.00000000000E+00  0.31399129818E+02  0.31399129818E+02  0.00000000000E+00 0.  1.
          2   -1    0    0  501    0  0.00000000000E+00 -0.00000000000E+00 -0.44221152217E+03  0.44221152217E+03  0.00000000000E+00 0. -1.
         25    2    1    2    0    0 -0.38168490904E+02  0.26356241798E+02 -0.26588215089E+03  0.29747641745E+03  0.12508963027E+03 0.  0.
          5    1    3    3  502    0 -0.18858563769E+02 -0.24445547249E+02 -0.57343490772E+01  0.31679415510E+02  0.41800000000E+01 0.  1.
         -5    1    3    3    0  502 -0.19309927135E+02  0.50801789047E+02 -0.26014780181E+03  0.26579700194E+03  0.41800000000E+01 0.  1.
        -11    1    1    2    0    0 -0.20013408093E+02 -0.29529919521E+02 -0.27499385543E+02  0.45041856707E+02  0.00000000000E+00 0.  1.
         11    1    1    2    0    0  0.58181898997E+02  0.31736777236E+01 -0.11743085592E+03  0.13109237782E+03  0.00000000000E+00 0. -1.
</event>
<event>
 7    1  0.3056346E-009  0.9461874E+02  0.7561462E-02  0.1292037E+00
          1   -1    0    0  501    0  0.00000000000E+00  0.00000000000E+00  0.12528653827E+03  0.12528653827E+03  0.00000000000E+00 0. -1.
         -1   -1    0    0    0  501 -0.00000000000E+00 -0.00000000000E+00 -0.13429804376E+03  0.13429804376E+03  0.00000000000E+00 0.  1.
         25    2    1    2    0    0  0.12221511265E+02  0.64629856039E+02  0.18326623303E+02  0.14251656942E+03  0.12509485924E+03 0.  0.
          5    1    3    3  502    0  0.25342463480E+02  0.44888638185E+02 -0.48860510343E+02  0.71148100215E+02  0.41800000000E+01 0. -1.
         -5    1    3    3    0  502 -0.13120952214E+02  0.19741217854E+02  0.67187133645E+02  0.71368469206E+02  0.41800000000E+01 0. -1.
        -11    1    1    2    0    0  0.36391034272E+02 -0.53425366668E+01 -0.44140775286E+01  0.37045028733E+02  0.00000000000E+00 0. -1.
         11    1    1    2    0    0 -0.48612545537E+02 -0.59287319372E+02 -0.22924051258E+02  0.80022983873E+02  0.00000000000E+00 0.  1.
</event>
<event>
 7    1  0.3056346E-009  0.1618049E+03  0.7561462E-02  0.1186674E+00
          2   -1    0    0  501    0  0.00000000000E+00  0.00000000000E+00  0.25654564220E+03  0.25654564220E+03  0.00000000000E+00 0. -1.
         -2   -1    0    0    0  501 -0.00000000000E+00 -0.00000000000E+00 -0.28819657850E+03  0.28819657850E+03  0.00000000000E+00 0.  1.
         25    2    1    2    0    0 -0.49688202128E+02  0.14750033433E+03  0.17838768910E+03  0.26775852437E+03  0.12508874325E+03 0.  0.
          5    1    3    3  502    0 -0.55276934284E+02  0.82452440020E+02  0.27180922767E+02  0.10300591872E+03  0.41800000000E+01 0. -1.
         -5    1    3    3    0  502  0.55887321559E+01  0.65047894311E+02  0.15120676633E+03  0.16475260564E+03  0.41800000000E+01 0. -1.
        -11    1    1    2    0    0 -0.85707065488E+00 -0.40357145692E+02 -0.12445157006E+03  0.13083434973E+03  0.00000000000E+00 0.  1.
         11    1    1    2    0    0  0.50545272783E+02 -0.10714318864E+03 -0.85587055339E+02  0.14614934661E+03  0.00000000000E+00 0. -1.
</event>
<event>
 7    1  0.3056346E-009  0.1400599E+03  0.7561462E-02  0.1213248E+00
          2   -1    0    0  501    0  0.00000000000E+00  0.00000000000E+00  0.21862592491E+03  0.21862592491E+03  0.00000000000E+00 0. -1.
         -2   -1    0    0    0  501 -0.00000000000E+00 -0.00000000000E+00 -0.98927339262E+02  0.98927339262E+02  0.00000000000E+00 0.  1.
         25    2    1    2    0    0  0.73474178361E+02 -0.65422442680E+02  0.66922502356E+02  0.17263479426E+03  0.12508237277E+03 0.  0.
          5    1    3    3  502    0  0.62136881113E+01 -0.78416214742E+02  0.29755724743E+01  0.78829176616E+02  0.41800000000E+01 0. -1.
         -5    1    3    3    0  502  0.67260490250E+02  0.12993772062E+02  0.63946929882E+02  0.93805617648E+02  0.41800000000E+01 0. -1.
        -11    1    1    2    0    0  0.96387311775E+01  0.46482852206E+02  0.31779804840E+02  0.57127197407E+02  0.00000000000E+00 0.  1.
         11    1    1    2    0    0 -0.83112909538E+02  0.18939590474E+02  0.20996278457E+02  0.87791272506E+02  0.00000000000E+00 0. -1.
</event>
<event>
 7    1  0.3056346E-009  0.1033501E+03  0.7561462E-02  0.1273405E+00
         -1   -1    0    0    0  501 -0.00000000000E+00  0.00000000000E+00  0.72839360287E+02  0.72839360287E+02  0.00000000000E+00 0.  1.
          1   -1    0    0  501    0  0.00000000000E+00 -0.00000000000E+00 -0.55778186613E+03  0.55778186613E+03  0.00000000000E+00 0. -1.
         25    2    1    2    0    0 -0.18733320957E+02  0.69633277088E+02 -0.49542168789E+03  0.51603212812E+03  0.12508708099E+03 0.  0.
          5    1    3    3  502    0 -0.13556979811E+02 -0.97149812981E+01 -0.34846900381E+03  0.34889295146E+03  0.41800000000E+01 0.  1.
         -5    1    3    3    0  502 -0.51763411457E+01  0.79348258386E+02 -0.14695268409E+03  0.16713917667E+03  0.41800000000E+01 0.  1.
        -11    1    1    2    0    0 -0.14857758670E+02 -0.74473455623E+02  0.21466613741E+02  0.78916817540E+02  0.00000000000E+00 0.  1.
         11    1    1    2    0    0  0.33591079627E+02  0.48401785354E+01 -0.10987431690E+02  0.35672280750E+02  0.00000000000E+00 0. -1.
</event>
<event>
 7    1  0.3056346E-009  0.1388877E+03  0.7561462E-02  0.1214834E+00
         -2   -1    0    0    0  501 -0.00000000000E+00  0.00000000000E+00  0.41010290562E+02  0.41010290562E+02  0.00000000000E+00 0. -1.
          2   -1    0    0  501    0  0.00000000000E+00 -0.00000000000E+00 -0.74350047286E+03  0.74350047286E+03  0.00000000000E+00 0.  1.
         25    2    1    2    0    0 -0.23164409635E+02 -0.12191424699E+03 -0.24390448580E+03  0.30089261237E+03  0.12508913819E+03 0.  0.
          5    1    3    3  502    0 -0.25496290298E+02 -0.13481583798E+03 -0.25049064148E+03  0.28563684087E+03  0.41800000000E+01 0.  1.
         -5    1    3    3    0  502  0.23318806632E+01  0.12901590987E+02  0.65861556852E+01  0.15255771503E+02  0.41800000000E+01 0.  1.
        -11    1    1    2    0    0 -0.12392486103E+01  0.62530271296E+02 -0.36379018861E+03  0.36912717577E+03  0.00000000000E+00 0.  1.
         11    1    1    2    0    0  0.24403658245E+02  0.59383975694E+02 -0.94795507889E+02  0.11449097528E+03  0.00000000000E+00 0. -1.
</event>
<event>
 7    1  0.3677433E-009  0.9053897E+02  0.7561462E-02  0.1301552E+00
          2   -1    0    0  501    0  0.00000000000E+00  0.00000000000E+00  0.15427911585E+03  0.15427911585E+03  0.00000000000E+00 0. -1.
         -2   -1    0    0    0  501 -0.00000000000E+00 -0.00000000000E+00 -0.89402940044E+02  0.89402940044E+02  0.00000000000E+00 0.  1.
         25    2    1    2    0    0 -0.30931786851E+02  0.26335126601E+02  0.17688470639E+02  0.13270582665E+03  0.12509052763E+03 0.  0.
          5    1    3    3  502    0 -0.40031617463E+02  0.70466016542E+02 -0.64696863832E+01  0.81408348011E+02  0.41800000000E+01 0.  1.
         -5    1    3    3    0  502  0.90998306119E+01 -0.44130889941E+02  0.24158157023E+02  0.51297478640E+02  0.41800000000E+01 0.  1.
        -11    1    1    2    0    0  0.25413186888E+02  0.22955137209E+01  0.69645288462E+02  0.74172539771E+02  0.00000000000E+00 0. -1.
         11    1    1    2    0    0  0.55185999631E+01 -0.28630640322E+02 -0.22457583300E+02  0.36803689468E+02  0.00000000000E+00 0.  1.
</event>
<event>
 7    1  0.3056346E-009  0.1351646E+03  0.7561462E-02  0.1219987E+00
          2   -1    0    0  501    0  0.00000000000E+00  0.00000000000E+00  0.12668837883E+03  0.12668837883E+03  0.00000000000E+00 0. -1.
         -2   -1    0    0    0  501 -0.00000000000E+00 -0.00000000000E+00 -0.21726929813E+03  0.21726929813E+03  0.00000000000E+00 0.  1.
         25    2    1    2    0    0  0.11803648704E+03  0.42225945155E+02 -0.68697537527E+02  0.18995126844E+03  0.12508593048E+03 0.  0.
          5    1    3    3  502    0  0.11998227452E+03  0.44354177762E+02 -0.97381125559E+02  0.16082162572E+03  0.41800000000E+01 0. -1.
         -5    1    3    3    0  502 -0.19457874728E+01 -0.21282326070E+01  0.28683588032E+02  0.29129642726E+02  0.41800000000E+01 0. -1.
        -11    1    1    2    0    0 -0.11394797262E+03 -0.21273104908E+02  0.92187010549E+01  0.11628271542E+03  0.00000000000E+00 0. -1.
         11    1    1    2    0    0 -0.40885144255E+01 -0.20952840247E+02 -0.31102082825E+02  0.37723693094E+02  0.00000000000E+00 0.  1.
</event>
<event>
 7    1  0.3056346E-009  0.1139731E+03  0.7561462E-02  0.1253384E+00
          1   -1    0    0  501    0  0.00000000000E+00  0.00000000000E+00  0.12427914930E+03  0.12427914930E+03  0.00000000000E+00 0. -1.
         -1   -1    0    0    0  501 -0.00000000000E+00 -0.00000000000E+00 -0.18584040183E+03  0.18584040183E+03  0.00000000000E+00 0.  1.
         25    2    1    2    0    0  0.35793259454E+02 -0.98993999664E+02 -0.18011672295E+02  0.16447694597E+03  0.12508907237E+03 0.  0.
          5    1    3    3  502    0 -0.84241604751E+01 -0.14792965112E+01 -0.51375354086E+02  0.52249920625E+02  0.41800000000E+01 0. -1.
         -5    1    3    3    0  502  0.44217419929E+02 -0.97514703153E+02  0.33363681791E+02  0.11222702535E+03  0.41800000000E+01 0. -1.
        -11    1    1    2    0    0 -0.12915400222E+02  0.81384745784E+02 -0.68753429783E+02  0.10731877057E+03  0.00000000000E+00 0.  1.
         11    1    1    2    0    0 -0.22877859232E+02  0.17609253880E+02  0.25203849545E+02  0.38323834582E+02  0.00000000000E+00 0. -1.
</event>
<event>
 7    1  0.3056346E-009  0.8800109E+02  0.7561462E-02  0.1307766E+00
          1   -1    0    0  501    0  0.00000000000E+00  0.00000000000E+00  0.47164389248E+02  0.47164389248E+02  0.00000000000E+00 0. -1.
         -1   -1    0    0    0  501 -0.00000000000E+00 -0.00000000000E+00 -0.25531190025E+03  0.25531190025E+03  0.00000000000E+00 0.  1.
         25    2    1    2    0    0 -0.74967912883E+01  0.19765189451E+01 -0.11035340163E+03  0.16699357579E+03  0.12509545394E+03 0.  0.
          5    1    3    3  502    0 -0.24686943120E+01  0.44853309835E+02  0.34087320355E+01  0.45243847193E+02  0.41800000000E+01 0. -1.
         -5    1    3    3    0  502 -0.50280969762E+01 -0.42876790889E+02 -0.11376213367E+03  0.12174972859E+03  0.41800000000E+01 0. -1.
        -11    1    1    2    0    0 -0.31589310542E+02 -0.26618456333E+02 -0.22227838792E+02  0.46909525423E+02  0.00000000000E+00 0.  1.
         11    1    1    2    0    0  0.39086101830E+02  0.24641937388E+02 -0.75566270578E+02  0.88573188289E+02  0.00000000000E+00 0. -1.
</event>
<event>
 7    1  0.3056346E-009  0.9777363E+02  0.7561462E-02  0.1285049E+00
          2   -1    0    0  501    0  0.00000000000E+00  0.00000000000E+00  0.71058434986E+02  0.71058434986E+02  0.00000000000E+00 0. -1.
         -2   -1    0    0    0  501 -0.00000000000E+00 -0.00000000000E+00 -0.21381603645E+03  0.21381603645E+03  0.00000000000E+00 0.  1.
         25    2    1    2    0    0  0.56463078716E+02  0.13004851849E+02 -0.88047278215E+02  0.16357712346E+03  0.12509175308E+03 0.  0.
          5    1    3    3  502    0  0.71057851397E+02 -0.21176355779E+02 -0.99776215100E+02  0.12438015030E+03  0.41800000000E+01 0. -1.
         -5    1    3    3    0  502 -0.14594772681E+02  0.34181207628E+02  0.11728936885E+02  0.39196973161E+02  0.41800000000E+01 0. -1.
        -11    1    1    2    0    0  0.98625484551E+00  0.18388580359E+02 -0.52671956481E+02  0.55798275832E+02  0.00000000000E+00 0.  1.
         11    1    1    2    0    0 -0.57449333562E+02 -0.31393432208E+02 -0.20383667692E+01  0.65499072143E+02  0.00000000000E+00 0. -1.
</event>
<event>
 7    1  0.3056346E-009  0.1059345E+03  0.7561462E-02  0.1268289E+00
         -3   -1    0    0    0  501 -0.00000000000E+00  0.00000000000E+00  0.54282221181E+03  0.54282221181E+03  0.00000000000E+00 0.  1.
          3   -1    0    0  501    0  0.00000000000E+00 -0.00000000000E+00 -0.59297286418E+02  0.59297286418E+02  0.00000000000E+00 0. -1.
         25    2    1    2    0    0  0.29167555336E+02 -0.93052590827E+02  0.42781429597E+03  0.45626997623E+03  0.12509072079E+03 0.  0.
          5    1    3    3  502    0  0.42998422359E+01 -0.58765419615E+02  0.53977530132E+02  0.80018181340E+02  0.41800000000E+01 0. -1.
         -5    1    3    3    0  502  0.24867713100E+02 -0.34287171211E+02  0.37383676584E+03  0.37625179489E+03  0.41800000000E+01 0. -1.
        -11    1    1    2    0    0  0.96569237906E+01  0.55113789606E+02 -0.13823436893E+02  0.57635695444E+02  0.00000000000E+00 0. -1.
         11    1    1    2    0    0 -0.38824479126E+02  0.37938801221E+02  0.69534066319E+02  0.88213826560E+02  0.00000000000E+00 0.  1.
</event>
<event>
 7    1  0.3056346E-009  0.1232735E+03  0.7561462E-02  0.1237792E+00
          1   -1    0    0  501    0  0.00000000000E+00  0.00000000000E+00  0.12842863143E+04  0.12842863143E+04  0.00000000000E+00 0. -1.
         -1   -1    0    0    0  501 -0.00000000000E+00 -0.00000000000E+00 -0.13747307449E+02  0.13747307449E+02  0.00000000000E+00 0.  1.
         25    2    1    2    0    0 -0.38582892884E+02 -0.56323681882E+02  0.87447183597E+03  0.88600750576E+03  0.12508921459E+03 0.  0.
          5    1    3    3  502    0  0.20531382667E+02 -0.69250588296E+02  0.62923773654E+03  0.63338359873E+03  0.41800000000E+01 0.  1.
         -5    1    3    3    0  502 -0.59114275551E+02  0.12926906414E+02  0.24523409943E+03  0.25262390703E+03  0.41800000000E+01 0.  1.
        -11    1    1    2    0    0 -0.18618949088E+02  0.53075803975E+02  0.20018286197E+03  0.20793480820E+03  0.00000000000E+00 0.  1.
         11    1    1    2    0    0  0.57201841972E+02  0.32478779065E+01  0.19588430889E+03  0.20409130776E+03  0.00000000000E+00 0. -1.
</event>
<event>
 7    1  0.3056346E-009  0.1255378E+03  0.7561462E-02  0.1234231E+00
         -2   -1    0    0    0  501 -0.00000000000E+00  0.00000000000E+00  0.13553435697E+02  0.13553435697E+02  0.00000000000E+00 0.  1.
          2   -1    0    0  501    0  0.00000000000E+00 -0.00000000000E+00 -0.12272584422E+04  0.12272584422E+04  0.00000000000E+00 0. -1.
         25    2    1    2    0    0 -0.69110898072E+02  0.16920189746E+02 -0.61047292385E+03  0.62720617367E+03  0.12509110472E+03 0.  0.
          5    1    3    3  502    0 -0.78693446370E+02  0.57034152859E+02 -0.34253316896E+03  0.35607863925E+03  0.41800000000E+01 0.  1.
         -5    1    3    3    0  502  0.95825482978E+01 -0.40113963112E+02 -0.26793975489E+03  0.27112753442E+03  0.41800000000E+01 0.  1.
        -11    1    1    2    0    0 -0.93805114806E+01  0.22596329734E+02 -0.13453468806E+03  0.13674125349E+03  0.00000000000E+00 0. -1.
         11    1    1    2    0    0  0.78491409553E+02 -0.39516519481E+02 -0.46869739462E+03  0.47686445077E+03  0.00000000000E+00 0.  1.
</event>
<event>
 7    1  0.3056346E-009  0.1457362E+03  0.7561462E-02  0.1205812E+00
          1   -1    0    0  501    0  0.00000000000E+00  0.00000000000E+00  0.35730254153E+03  0.35730254153E+03  0.00000000000E+00 0. -1.
         -1   -1    0    0    0  501 -0.00000000000E+00 -0.00000000000E+00 -0.70859212965E+02  0.70859212965E+02  0.00000000000E+00 0.  1.
         25    2    1    2    0    0 -0.11554638566E+03 -0.97267791978E+01  0.13870713903E+03  0.21984538719E+03  0.12508695527E+03 0.  0.
          5    1    3    3  502    0 -0.92055343724E+02 -0.56928525141E+02  0.12461562838E+03  0.16511078256E+03  0.41800000000E+01 0.  1.
         -5    1    3    3    0  502 -0.23491041932E+02  0.47201745943E+02  0.14091510656E+02  0.54734604627E+02  0.41800000000E+01 0.  1.
        -11    1    1    2    0    0  0.11355896496E+03 -0.66648635443E+01  0.81200737544E+02  0.13976272288E+03  0.00000000000E+00 0.  1.
         11    1    1    2    0    0  0.19874206946E+01  0.16391642742E+02  0.66535451987E+02  0.68553644425E+02  0.00000000000E+00 0. -1.
</event>
<event>
 7    1  0.3056346E-009  0.9897602E+02  0.7561462E-02  0.1282464E+00
          1   -1    0    0  501    0  0.00000000000E+00  0.00000000000E+00  0.74238145282E+02  0.74238145282E+02  0.00000000000E+00 0. -1.
         -1   -1    0    0    0  501 -0.00000000000E+00 -0.00000000000E+00 -0.21957179426E+03  0.21957179426E+03  0.00000000000E+00 0.  1.
         25    2    1    2    0    0  0.12113098763E+02  0.51047595469E+02 -0.33291641893E+02  0.13967174115E+03  0.12508907903E+03 0.  0.
          5    1    3    3  502    0  0.39905384709E+02 -0.23339952181E+02  0.12285416252E+02  0.48016632005E+02  0.41800000000E+01 0. -1.
         -5    1    3    3    0  502 -0.27792285947E+02  0.74387547649E+02 -0.45577058145E+02  0.91655109146E+02  0.41800000000E+01 0. -1.
        -11    1    1    2    0    0 -0.26755035107E+02 -0.10220575302E+02  0.52192948873E+01  0.29112421785E+02  0.00000000000E+00 0. -1.
         11    1    1    2    0    0  0.14641936344E+02 -0.40827020167E+02 -0.11726130198E+03  0.12502577661E+03  0.00000000000E+00 0.  1.
</event>
<event>
 7    1  0.3056346E-009  0.1425432E+03  0.7561462E-02  0.1209947E+00
         -2   -1    0    0    0  501 -0.00000000000E+00  0.00000000000E+00  0.49162965916E+03  0.49162965916E+03  0.00000000000E+00 0. -1.
          2   -1    0    0  501    0  0.00000000000E+00 -0.00000000000E+00 -0.45326251610E+02  0.45326251610E+02  0.00000000000E+00 0.  1.
         25    2    1    2    0    0  0.10160655042E+03  0.24933596824E+01  0.26101141364E+03  0.30676938832E+03  0.12510152527E+03 0.  0.
          5    1    3    3  502    0  0.82474941892E+01  0.45079881653E+02  0.14353687640E+03  0.15073328821E+03  0.41800000000E+01 0.  1.
         -5    1    3    3    0  502  0.93359056235E+02 -0.42586521971E+02  0.11747453725E+03  0.15603610011E+03  0.41800000000E+01 0.  1.
        -11    1    1    2    0    0 -0.66358367241E+02  0.42809756149E+02  0.11348715277E+03  0.13825860540E+03  0.00000000000E+00 0. -1.
         11    1    1    2    0    0 -0.35248183183E+02 -0.45303115832E+02  0.71804841141E+02  0.91927917050E+02  0.00000000000E+00 0.  1.
</event>
<event>
 7    1  0.3056346E-009  0.2085728E+03  0.7561462E-02  0.1142701E+00
         -2   -1    0    0    0  501 -0.00000000000E+00  0.00000000000E+00  0.31889010113E+03  0.31889010113E+03  0.00000000000E+00 0.  1.
          2   -1    0    0  501    0  0.00000000000E+00 -0.00000000000E+00 -0.20478609946E+03  0.20478609946E+03  0.00000000000E+00 0. -1.
         25    2    1    2    0    0  0.19788006549E+03  0.10932225926E+02  0.18084354883E+03  0.29602005904E+03  0.12508977704E+03 0.  0.
          5    1    3    3  502    0  0.18623588441E+03  0.66532809682E+01  0.95056154012E+02  0.20923961290E+03  0.41800000000E+01 0. -1.
         -5    1    3    3    0  502  0.11644181077E+02  0.42789449577E+01  0.85787394820E+02  0.86780446144E+02  0.41800000000E+01 0. -1.
        -11    1    1    2    0    0 -0.14426720153E+03  0.33402701386E+02 -0.45173277833E+02  0.15482051197E+03  0.00000000000E+00 0.  1.
         11    1    1    2    0    0 -0.53612863963E+02 -0.44334927312E+02 -0.21566269330E+02  0.72835629571E+02  0.00000000000E+00 0. -1.
</event>
<event>
 7    1  0.3056346E-009  0.8154186E+02  0.7561462E-02  0.1324732E+00
          1   -1    0    0  501    0  0.00000000000E+00  0.00000000000E+00  0.51530615132E+03  0.51530615132E+03  0.00000000000E+00 0. -1.
         -1   -1    0    0    0  501 -0.00000000000E+00 -0.00000000000E+00 -0.32248411587E+02  0.32248411587E+02  0.00000000000E+00 0.  1.
         25    2    1    2    0    0  0.53909252931E+02  0.54388160325E+01  0.17495359826E+03  0.22179160624E+03  0.12508783627E+03 0.  0.
          5    1    3    3  502    0  0.21459197267E+02 -0.25926869400E+02  0.17314092653E+03  0.17643115525E+03  0.41800000000E+01 0.  1.
         -5    1    3    3    0  502  0.32450055664E+02  0.31365685433E+02  0.18126717326E+01  0.45360450991E+02  0.41800000000E+01 0.  1.
        -11    1    1    2    0    0 -0.35218126525E+02  0.28363480299E+02  0.26080471752E+03  0.26469587102E+03  0.00000000000E+00 0. -1.
         11    1    1    2    0    0 -0.18691126406E+02 -0.33802296332E+02  0.47299423947E+02  0.61067085646E+02  0.00000000000E+00 0.  1.
</event>
<event>
 7    1  0.3056346E-009  0.1454042E+03  0.7561462E-02  0.1206237E+00
         -3   -1    0    0    0  501 -0.00000000000E+00  0.00000000000E+00  0.83128180280E+02  0.83128180280E+02  0.00000000000E+00 0.  1.
          3   -1    0    0  501    0  0.00000000000E+00 -0.00000000000E+00 -0.27028890944E+03  0.27028890944E+03  0.00000000000E+00 0. -1.
         25    2    1    2    0    0 -0.10953976098E+03  0.58115909954E+01 -0.10374106062E+03  0.19606881892E+03  0.12509212712E+03 0.  0.
          5    1    3    3  502    0 -0.75843469310E+02  0.60991227873E+02 -0.83177086841E+02  0.12809395727E+03  0.41800000000E+01 0.  1.
         -5    1    3    3    0  502 -0.33696291670E+02 -0.55179636878E+02 -0.20563973780E+02  0.67974861647E+02  0.41800000000E+01 0.  1.
        -11    1    1    2    0    0  0.46831559231E+02  0.30741370093E+02 -0.57493804509E+02  0.80273061061E+02  0.00000000000E+00 0.  1.
         11    1    1    2    0    0  0.62708201749E+02 -0.36552961088E+02 -0.25925864035E+02  0.77075209743E+02  0.00000000000E+00 0. -1.
</event>
<event>
 7    1  0.3056346E-009  0.3377950E+03  0.7561462E-02  0.1067739E+00
          1   -1    0    0  501    0  0.00000000000E+00  0.00000000000E+00  0.19484400342E+04  0.19484400342E+04  0.00000000000E+00 0. -1.
         -1   -1    0    0    0  501 -0.00000000000E+00 -0.00000000000E+00 -0.72300416354E+02  0.72300416354E+02  0.00000000000E+00 0.  1.
         25    2    1    2    0    0 -0.26808474682E+03  0.19279781533E+03  0.13284873794E+04  0.13746152246E+04  0.12509144453E+03 0.  0.
          5    1    3    3  502    0 -0.24859160856E+03  0.20127161338E+03  0.11134313102E+04  0.11584708909E+04  0.41800000000E+01 0. -1.
         -5    1    3    3    0  502 -0.19493138261E+02 -0.84737980526E+01  0.21505606916E+03  0.21614433366E+03  0.41800000000E+01 0. -1.
        -11    1    1    2    0    0  0.21034579839E+03 -0.12379470858E+03  0.45876286473E+03  0.51964781423E+03  0.00000000000E+00 0.  1.
         11    1    1    2    0    0  0.57738948428E+02 -0.69003106751E+02  0.88889373688E+02  0.12647741167E+03  0.00000000000E+00 0. -1.
</event>
<event>
 7    1  0.3056346E-009  0.1279079E+03  0.7561462E-02  0.1230594E+00
         -3   -1    0    0    0  501 -0.00000000000E+00  0.00000000000E+00  0.16813105744E+03  0.16813105744E+03  0.00000000000E+00 0.  1.
          3   -1    0    0  501    0  0.00000000000E+00 -0.00000000000E+00 -0.14389821203E+03  0.14389821203E+03  0.00000000000E+00 0. -1.
         25    2    1    2    0    0 -0.10596093965E+02 -0.10064381258E+03 -0.32023469696E+02  0.16405829747E+03  0.12509263822E+03 0.  0.
          5    1    3    3  502    0  0.24656958435E+02 -0.10988041367E+03  0.38424523683E+01  0.11275596547E+03  0.41800000000E+01 0. -1.
         -5    1    3    3    0  502 -0.35253052400E+02  0.92366010877E+01 -0.35865922064E+02  0.51302332001E+02  0.41800000000E+01 0. -1.
        -11    1    1    2    0    0 -0.12003564511E+02  0.32176746641E+02  0.66792809085E+02  0.75104646533E+02  0.00000000000E+00 0.  1.
         11    1    1    2    0    0  0.22599658476E+02  0.68467065943E+02 -0.10536493977E+02  0.72866325470E+02  0.00000000000E+00 0. -1.
</event>
<event>
 7    1  0.3056346E-009  0.1392163E+03  0.7561462E-02  0.1214387E+00
         -1   -1    0    0    0  501 -0.00000000000E+00  0.00000000000E+00  0.40082355654E+03  0.40082355654E+03  0.00000000000E+00 0.  1.
          1   -1    0    0  501    0  0.00000000000E+00 -0.00000000000E+00 -0.78261476726E+02  0.78261476726E+02  0.00000000000E+00 0. -1.
         25    2    1    2    0    0  0.37717295828E+02 -0.11352317754E+03  0.26741016194E+03  0.31853637462E+03  0.12508845271E+03 0.  0.
          5    1    3    3  502    0  0.14069741935E+02 -0.10259562998E+03  0.27260922077E+03  0.29164547070E+03  0.41800000000E+01 0. -1.
         -5    1    3    3    0  502  0.23647553893E+02 -0.10927547556E+02 -0.51990588305E+01  0.26890903916E+02  0.41800000000E+01 0. -1.
        -11    1    1    2    0    0 -0.60529198050E+02  0.10968269334E+03  0.35536181012E+02  0.13021865149E+03  0.00000000000E+00 0.  1.
         11    1    1    2    0    0  0.22811902222E+02  0.38404841969E+01  0.19615736862E+02  0.30330007163E+02  0.00000000000E+00 0. -1.
</event>
<event>
 7    1  0.3056346E-009  0.9811742E+02  0.7561462E-02  0.1284305E+00
         -2   -1    0    0    0  501 -0.00000000000E+00  0.00000000000E+00  0.19772412926E+02  0.19772412926E+02  0.00000000000E+00 0.  1.
          2   -1    0    0  501    0  0.00000000000E+00 -0.00000000000E+00 -0.69432101138E+03  0.69432101138E+03  0.00000000000E+00 0. -1.
         25    2    1    2    0    0  0.98688730155E+01  0.30537484334E+02 -0.28795846100E+03  0.31558398681E+03  0.12507295818E+03 0.  0.
          5    1    3    3  502    0 -0.18013214993E+02 -0.33488580851E+02 -0.19780691802E+03  0.20147210769E+03  0.41800000000E+01 0. -1.
         -5    1    3    3    0  502  0.27882088008E+02  0.64026065185E+02 -0.90151542978E+02  0.11411187912E+03  0.41800000000E+01 0. -1.
        -11    1    1    2    0    0 -0.44347202427E+02 -0.29995284362E+02 -0.30897327601E+03  0.31357754501E+03  0.00000000000E+00 0.  1.
         11    1    1    2    0    0  0.34478329412E+02 -0.54219997120E+00 -0.77616861446E+02  0.84931892482E+02  0.00000000000E+00 0. -1.
</event>
<event>
 7    1  0.3056346E-009  0.6971699E+02  0.7561462E-02  0.1361058E+00
          3   -1    0    0  501    0  0.00000000000E+00  0.00000000000E+00  0.77669352575E+02  0.77669352575E+02  0.00000000000E+00 0. -1.
         -3   -1    0    0    0  501 -0.00000000000E+00 -0.00000000000E+00 -0.18418147397E+03  0.18418147397E+03  0.00000000000E+00 0.  1.
         25    2    1    2    0    0 -0.84508891010E+01  0.47733324820E+02 -0.89857063245E+00  0.13415966495E+03  0.12509244760E+03 0.  0.
          5    1    3    3  502    0  0.11621635892E+02 -0.39975590884E+01  0.54270193924E+02  0.55801158124E+02  0.41800000000E+01 0. -1.
         -5    1    3    3    0  502 -0.20072524993E+02  0.51730883908E+02 -0.55168764556E+02  0.78358506827E+02  0.41800000000E+01 0. -1.
        -11    1    1    2    0    0  0.28812531459E+02 -0.39387735467E+02 -0.62591222509E+02  0.79367605542E+02  0.00000000000E+00 0.  1.
         11    1    1    2    0    0 -0.20361642358E+02 -0.83455893526E+01 -0.43022328256E+02  0.48323556054E+02  0.00000000000E+00 0. -1.
</event>
<event>
 7    1  0.3056346E-009  0.1042370E+03  0.7561462E-02  0.1271630E+00
         -1   -1    0    0    0  501 -0.00000000000E+00  0.00000000000E+00  0.17241844012E+03  0.17241844012E+03  0.00000000000E+00 0.  1.
          1   -1    0    0  501    0  0.00000000000E+00 -0.00000000000E+00 -0.14305229566E+03  0.14305229566E+03  0.00000000000E+00 0. -1.
         25    2    1    2    0    0  0.59025842384E+02 -0.74825817804E+02 -0.45430571665E+02  0.16369158681E+03  0.12509214872E+03 0.  0.
          5    1    3    3  502    0  0.39501135671E+02 -0.25222969857E+02 -0.85011790957E+02  0.97164885270E+02  0.41800000000E+01 0.  1.
         -5    1    3    3    0  502  0.19524706713E+02 -0.49602847948E+02  0.39581219292E+02  0.66526701537E+02  0.41800000000E+01 0.  1.
        -11    1    1    2    0    0 -0.59072383927E+02  0.36111927611E+02  0.19256542526E+01  0.69262731703E+02  0.00000000000E+00 0. -1.
         11    1    1    2    0    0  0.46541543510E-01  0.38713890194E+02  0.72871061870E+02  0.82516417264E+02  0.00000000000E+00 0.  1.
</event>
<event>
 7    1  0.3056346E-009  0.2388119E+03  0.7561462E-02  0.1120587E+00
          1   -1    0    0  501    0  0.00000000000E+00  0.00000000000E+00  0.12117752217E+04  0.12117752217E+04  0.00000000000E+00 0. -1.
         -1   -1    0    0    0  501 -0.00000000000E+00 -0.00000000000E+00 -0.53749788967E+02  0.53749788967E+02  0.00000000000E+00 0.  1.
         25    2    1    2    0    0  0.16796395347E+02 -0.21888985926E+03  0.41694779813E+03  0.48753217578E+03  0.12508903498E+03 0.  0.
          5    1    3    3  502    0 -0.29404478501E+02 -0.18285911417E+01  0.36770980852E+02  0.47302690561E+02  0.41800000000E+01 0. -1.
         -5    1    3    3    0  502  0.46200873849E+02 -0.21706126812E+03  0.38017681727E+03  0.44022948522E+03  0.41800000000E+01 0. -1.
        -11    1    1    2    0    0  0.14283072653E+02  0.14557569440E+03  0.35807106806E+03  0.38679604283E+03  0.00000000000E+00 0.  1.
         11    1    1    2    0    0 -0.31079468001E+02  0.73314164859E+02  0.38300656656E+03  0.39119679207E+03  0.00000000000E+00 0. -1.
</event>
<event>
 7    1  0.3056346E-009  0.1072454E+03  0.7561462E-02  0.1265758E+00
         -1   -1    0    0    0  501 -0.00000000000E+00  0.00000000000E+00  0.23058587282E+02  0.23058587282E+02  0.00000000000E+00 0.  1.
          1   -1    0    0  501    0  0.00000000000E+00 -0.00000000000E+00 -0.10480567355E+04  0.10480567355E+04  0.00000000000E+00 0. -1.
         25    2    1    2    0    0  0.20531090810E-01  0.17158182216E+02 -0.92846289302E+03  0.93700907189E+03  0.12509297922E+03 0.  0.
          5    1    3    3  502    0 -0.31810444228E+02  0.62456890812E+02 -0.56049630878E+03  0.56487728944E+03  0.41800000000E+01 0.  1.
         -5    1    3    3    0  502  0.31830975319E+02 -0.45298708597E+02 -0.36796658424E+03  0.37213178245E+03  0.41800000000E+01 0.  1.
        -11    1    1    2    0    0 -0.15749423782E+02 -0.49955630040E+02 -0.36257974719E+02  0.63704395868E+02  0.00000000000E+00 0.  1.
         11    1    1    2    0    0  0.15728892692E+02  0.32797447824E+02 -0.60277280489E+02  0.70401855034E+02  0.00000000000E+00 0. -1.
</event>
<event>
 7    1  0.3056346E-009  0.1046054E+03  0.7561462E-02  0.1270899E+00
         -2   -1    0    0    0  501 -0.00000000000E+00  0.00000000000E+00  0.21815838385E+02  0.21815838385E+02  0.00000000000E+00 0.  1.
          2   -1    0    0  501    0  0.00000000000E+00 -0.00000000000E+00 -0.57782613717E+03  0.57782613717E+03  0.00000000000E+00 0. -1.
         25    2    1    2    0    0  0.70170408359E+01 -0.56136588028E+01 -0.39332955401E+03  0.41283138256E+03  0.12506342526E+03 0.  0.
          5    1    3    3  502    0 -0.35718455229E+02  0.42023309484E+02 -0.12084643446E+03  0.13290259480E+03  0.41800000000E+01 0. -1.
         -5    1    3    3    0  502  0.42735496065E+02 -0.47636968287E+02 -0.27248311956E+03  0.27992878776E+03  0.41800000000E+01 0. -1.
        -11    1    1    2    0    0  0.34281227289E+02  0.26648501211E+02 -0.59119700177E+02  0.73351783279E+02  0.00000000000E+00 0.  1.
         11    1    1    2    0    0 -0.41298268125E+02 -0.21034842408E+02 -0.10356104459E+03  0.11345880972E+03  0.00000000000E+00 0. -1.
</event>
<event>
 7    1  0.3056346E-009  0.1812943E+03  0.7561462E-02  0.1166556E+00
         -1   -1    0    0    0  501 -0.00000000000E+00  0.00000000000E+00  0.47239390580E+02  0.47239390580E+02  0.00000000000E+00 0.  1.
          1   -1    0    0  501    0  0.00000000000E+00 -0.00000000000E+00 -0.11774785002E+04  0.11774785002E+04  0.00000000000E+00 0. -1.
         25    2    1    2    0    0 -0.13045948258E+03 -0.87260796762E+02 -0.94581891269E+03  0.96688027388E+03  0.12509966098E+03 0.  0.
          5    1    3    3  502    0 -0.12121415064E+03 -0.88739682720E+01 -0.58450974508E+03  0.59702657573E+03  0.41800000000E+01 0.  1.
         -5    1    3    3    0  502 -0.92453319442E+01 -0.78386828490E+02 -0.36130916760E+03  0.36985369815E+03  0.41800000000E+01 0.  1.
        -11    1    1    2    0    0  0.64648382179E+02  0.19611129663E+02 -0.23962921014E+02  0.71681457216E+02  0.00000000000E+00 0.  1.
         11    1    1    2    0    0  0.65811100403E+02  0.67649667099E+02 -0.16045727597E+03  0.18615615973E+03  0.00000000000E+00 0. -1.
</event>
<event>
 7    1  0.3056346E-009  0.1071046E+03  0.7561462E-02  0.1266028E+00
          1   -1    0    0  501    0  0.00000000000E+00  0.00000000000E+00  0.32447833781E+03  0.32447833781E+03  0.00000000000E+00 0. -1.
         -1   -1    0    0    0  501 -0.00000000000E+00 -0.00000000000E+00 -0.39368292471E+02  0.39368292471E+02  0.00000000000E+00 0.  1.
         25    2    1    2    0    0 -0.33959418288E+02  0.43061181871E+01  0.14337204470E+03  0.19332434611E+03  0.12508786852E+03 0.  0.
          5    1    3    3  502    0 -0.11095268636E+01  0.59012230344E+02  0.99531628770E+02  0.11579158823E+03  0.41800000000E+01 0.  1.
         -5    1    3    3    0  502 -0.32849891425E+02 -0.54706112157E+02  0.43840415933E+02  0.77532757872E+02  0.41800000000E+01 0.  1.
        -11    1    1    2    0    0 -0.49776644398E+01 -0.38772394435E+02  0.38182757405E+02  0.54644292260E+02  0.00000000000E+00 0.  1.
         11    1    1    2    0    0  0.38937082728E+02  0.34466276248E+02  0.10355524323E+03  0.11587799191E+03  0.00000000000E+00 0. -1.
</event>
<event>
 7    1  0.3056346E-009  0.1585497E+03  0.7561462E-02  0.1190344E+00
         -2   -1    0    0    0  501 -0.00000000000E+00  0.00000000000E+00  0.53145212091E+02  0.53145212091E+02  0.00000000000E+00 0.  1.
          2   -1    0    0  501    0  0.00000000000E+00 -0.00000000000E+00 -0.48576950974E+03  0.48576950974E+03  0.00000000000E+00 0. -1.
         25    2    1    2    0    0  0.11682730657E+03  0.10410123709E+02 -0.24910243821E+03  0.30241753549E+03  0.12508937130E+03 0.  0.
          5    1    3    3  502    0  0.14223782702E+03  0.57151983661E+01 -0.18724708173E+03  0.23525136545E+03  0.41800000000E+01 0.  1.
         -5    1    3    3    0  502 -0.25410520446E+02  0.46949253424E+01 -0.61855356483E+02  0.67166170048E+02  0.41800000000E+01 0.  1.
        -11    1    1    2    0    0 -0.95741057663E+02 -0.46710965366E+02 -0.14129141118E+03  0.17695063516E+03  0.00000000000E+00 0. -1.
         11    1    1    2    0    0 -0.21086248910E+02  0.36300841658E+02 -0.42230448254E+02  0.59546551184E+02  0.00000000000E+00 0.  1.
</event>
<event>
 7    1  0.3056346E-009  0.1796668E+03  0.7561462E-02  0.1168126E+00
         -1   -1    0    0    0  501 -0.00000000000E+00  0.00000000000E+00  0.73528157010E+02  0.73528157010E+02  0.00000000000E+00 0.  1.
          1   -1    0    0  501    0  0.00000000000E+00 -0.00000000000E+00 -0.53046016081E+03  0.53046016081E+03  0.00000000000E+00 0. -1.
         25    2    1    2    0    0 -0.10714103154E+03  0.12506736247E+03 -0.23076196758E+03  0.30987099579E+03  0.12509157669E+03 0.  0.
          5    1    3    3  502    0 -0.91127734509E+01 -0.40379586025E+01  0.13120631363E+02  0.16999150479E+02  0.41800000000E+01 0. -1.
         -5    1    3    3    0  502 -0.98028258089E+02  0.12910532107E+03 -0.24388259894E+03  0.29287184532E+03  0.41800000000E+01 0. -1.
        -11    1    1    2    0    0  0.79803302207E+02 -0.26513969034E+02 -0.82872068242E+02  0.11806497064E+03  0.00000000000E+00 0.  1.
         11    1    1    2    0    0  0.27337729333E+02 -0.98553393432E+02 -0.14329796798E+03  0.17605235139E+03  0.00000000000E+00 0. -1.
</event>
<event>
 7    1  0.3056346E-009  0.1021326E+03  0.7561462E-02  0.1275874E+00
         -2   -1    0    0    0  501 -0.00000000000E+00  0.00000000000E+00  0.68674012537E+03  0.68674012537E+03  0.00000000000E+00 0.  1.
          2   -1    0    0  501    0  0.00000000000E+00 -0.00000000000E+00 -0.18965811921E+02  0.18965811921E+02  0.00000000000E+00 0. -1.
         25    2    1    2    0    0  0.31607065401E+02  0.11345834107E+02  0.34639315957E+03  0.36981599630E+03  0.12509162879E+03 0.  0.
          5    1    3    3  502    0  0.75249382852E+02  0.30303315171E+02  0.20167850049E+03  0.21742228609E+03  0.41800000000E+01 0.  1.
         -5    1    3    3    0  502 -0.43642317451E+02 -0.18957481064E+02  0.14471465908E+03  0.15239371022E+03  0.41800000000E+01 0.  1.
        -11    1    1    2    0    0 -0.49990891967E+02  0.55548889291E+01  0.29614807058E+03  0.30038912394E+03  0.00000000000E+00 0.  1.
         11    1    1    2    0    0  0.18383826566E+02 -0.16900723036E+02  0.25233083304E+02  0.35500817052E+02  0.00000000000E+00 0. -1.
</event>
<event>
 7    1  0.3056346E-009  0.1176193E+03  0.7561462E-02  0.1247077E+00
          1   -1    0    0  501    0  0.00000000000E+00  0.00000000000E+00  0.67168472112E+03  0.67168472112E+03  0.00000000000E+00 0. -1.
         -1   -1    0    0    0  501 -0.00000000000E+00 -0.00000000000E+00 -0.21639555830E+02  0.21639555830E+02  0.00000000000E+00 0.  1.
         25    2    1    2    0    0 -0.50239456189E+02  0.33565871339E+01  0.39201380772E+03  0.41455720300E+03  0.12509028534E+03 0.  0.
          5    1    3    3  502    0  0.39595052123E+02  0.13012916654E+01  0.73704095373E+02  0.83780830668E+02  0.41800000000E+01 0.  1.
         -5    1    3    3    0  502 -0.89834508312E+02  0.20552954686E+01  0.31830971234E+03  0.33077637234E+03  0.41800000000E+01 0.  1.
        -11    1    1    2    0    0  0.32512030378E+02  0.44099171429E+02  0.12952926368E+03  0.14063996299E+03  0.00000000000E+00 0.  1.
         11    1    1    2    0    0  0.17727425811E+02 -0.47455758563E+02  0.12850209390E+03  0.13812711096E+03  0.00000000000E+00 0. -1.
</event>
<event>
 7    1  0.3056346E-009  0.1394428E+03  0.7561462E-02  0.1214081E+00
          1   -1    0    0  501    0  0.00000000000E+00  0.00000000000E+00  0.77876737502E+03  0.77876737502E+03  0.00000000000E+00 0. -1.
         -1   -1    0    0    0  501 -0.00000000000E+00 -0.00000000000E+00 -0.36213285778E+02  0.36213285778E+02  0.00000000000E+00 0.  1.
         25    2    1    2    0    0  0.11750817062E+03  0.36347049840E+02  0.31225931466E+03  0.35816636863E+03  0.12509192553E+03 0.  0.
          5    1    3    3  502    0  0.49493964007E+02 -0.17696813686E+02  0.25620533061E+02  0.58623491896E+02  0.41800000000E+01 0. -1.
         -5    1    3    3    0  502  0.68014206609E+02  0.54043863526E+02  0.28663878160E+03  0.29954287673E+03  0.41800000000E+01 0. -1.
        -11    1    1    2    0    0 -0.63026814110E+02 -0.52856758703E+02  0.15273636459E+03  0.17347799084E+03  0.00000000000E+00 0.  1.
         11    1    1    2    0    0 -0.54481356506E+02  0.16509708863E+02  0.27755840999E+03  0.28333630133E+03  0.00000000000E+00 0. -1.
</event>
<event>
 7    1  0.3056346E-009  0.8192896E+02  0.7561462E-02  0.1323665E+00
         -1   -1    0    0    0  501 -0.00000000000E+00  0.00000000000E+00  0.14942992060E+03  0.14942992060E+03  0.00000000000E+00 0.  1.
          1   -1    0    0  501    0  0.00000000000E+00 -0.00000000000E+00 -0.11803566508E+03  0.11803566508E+03  0.00000000000E+00 0. -1.
         25    2    1    2    0    0  0.17106817147E+02 -0.30370207926E+02  0.85113118738E+02  0.15526395638E+03  0.12509060895E+03 0.  0.
          5    1    3    3  502    0 -0.18420814414E+02 -0.47824076634E+00  0.10345595562E+03  0.10516730610E+03  0.41800000000E+01 0. -1.
         -5    1    3    3    0  502  0.35527631561E+02 -0.29891967159E+02 -0.18342836883E+02  0.50096650287E+02  0.41800000000E+01 0. -1.
        -11    1    1    2    0    0 -0.77767016358E+01  0.63475477454E+02 -0.31843698851E+02  0.71439726223E+02  0.00000000000E+00 0.  1.
         11    1    1    2    0    0 -0.93301155113E+01 -0.33105269528E+02 -0.21875164366E+02  0.40761903071E+02  0.00000000000E+00 0. -1.
</event>
<event>
 7    1  0.3056346E-009  0.1280903E+03  0.7561462E-02  0.1230317E+00
          2   -1    0    0  501    0  0.00000000000E+00  0.00000000000E+00  0.50860527736E+02  0.50860527736E+02  0.00000000000E+00 0.  1.
         -2   -1    0    0    0  501 -0.00000000000E+00 -0.00000000000E+00 -0.34396252650E+03  0.34396252650E+03  0.00000000000E+00 0. -1.
         25    2    1    2    0    0  0.24057798440E+02  0.68497136485E+02 -0.19052991559E+03  0.23921883852E+03  0.12511342292E+03 0.  0.
          5    1    3    3  502    0 -0.51176569642E+02  0.26309110903E+02 -0.87131162642E+02  0.10450130382E+03  0.41800000000E+01 0.  1.
         -5    1    3    3    0  502  0.75234368082E+02  0.42188025582E+02 -0.10339875295E+03  0.13471753470E+03  0.41800000000E+01 0.  1.
        -11    1    1    2    0    0 -0.54825625489E+02 -0.28878351929E+02 -0.34117495840E+02  0.70737627490E+02  0.00000000000E+00 0.  1.
         11    1    1    2    0    0  0.30767827049E+02 -0.39618784556E+02 -0.68454587338E+02  0.84866588234E+02  0.00000000000E+00 0. -1.
</event>
<event>
 7    1  0.3056346E-009  0.1742608E+03  0.7561462E-02  0.1173476E+00
          2   -1    0    0  501    0  0.00000000000E+00  0.00000000000E+00  0.23230998589E+03  0.23230998589E+03  0.00000000000E+00 0. -1.
         -2   -1    0    0    0  501 -0.00000000000E+00 -0.00000000000E+00 -0.13870946488E+03  0.13870946488E+03  0.00000000000E+00 0.  1.
         25    2    1    2    0    0 -0.31870908113E+02 -0.13472076573E+03  0.14004563058E+02  0.18711017063E+03  0.12509455889E+03 0.  0.
          5    1    3    3  502    0 -0.75641995843E+02 -0.49104365518E+02  0.44407267215E+01  0.90388841689E+02  0.41800000000E+01 0. -1.
         -5    1    3    3    0  502  0.43771087730E+02 -0.85616400209E+02  0.95638363362E+01  0.96721328937E+02  0.41800000000E+01 0. -1.
        -11    1    1    2    0    0  0.22186927959E+02  0.14568575126E+03  0.82656323776E+02  0.16896350421E+03  0.00000000000E+00 0. -1.
         11    1    1    2    0    0  0.96839801542E+01 -0.10964985537E+02 -0.30603658157E+01  0.14945775938E+02  0.00000000000E+00 0.  1.
</event>
<event>
 7    1  0.3056346E-009  0.7902246E+02  0.7561462E-02  0.1331849E+00
          1   -1    0    0  501    0  0.00000000000E+00  0.00000000000E+00  0.36037752355E+03  0.36037752355E+03  0.00000000000E+00 0. -1.
         -1   -1    0    0    0  501 -0.00000000000E+00 -0.00000000000E+00 -0.38638144500E+02  0.38638144500E+02  0.00000000000E+00 0.  1.
         25    2    1    2    0    0 -0.33211661512E+02  0.28661031357E+02  0.15049093263E+03  0.20054775743E+03  0.12508961999E+03 0.  0.
          5    1    3    3  502    0  0.20318012816E+02 -0.41775915135E+01 -0.13359883206E+02  0.25024643752E+02  0.41800000000E+01 0.  1.
         -5    1    3    3    0  502 -0.53529674328E+02  0.32838622871E+02  0.16385081584E+03  0.17552311368E+03  0.41800000000E+01 0.  1.
        -11    1    1    2    0    0 -0.12404024993E+02 -0.25336111607E+02  0.85703755431E+01  0.29482702121E+02  0.00000000000E+00 0.  1.
         11    1    1    2    0    0  0.45615686505E+02 -0.33249197503E+01  0.16267807088E+03  0.16898520850E+03  0.00000000000E+00 0. -1.
</event>
<event>
 7    1  0.3056346E-009  0.1247423E+03  0.7561462E-02  0.1235473E+00
         -4   -1    0    0    0  501 -0.00000000000E+00  0.00000000000E+00  0.53410399531E+02  0.53410399531E+02  0.00000000000E+00 0.  1.
          4   -1    0    0  501    0  0.00000000000E+00 -0.00000000000E+00 -0.29251393066E+03  0.29251393066E+03  0.00000000000E+00 0. -1.
         25    2    1    2    0    0  0.59079546285E+02  0.30189406801E+02 -0.12528901715E+03  0.18906423344E+03  0.12508458529E+03 0.  0.
          5    1    3    3  502    0 -0.20908093502E+02  0.53974528286E+02 -0.50683515927E+02  0.77049914109E+02  0.41800000000E+01 0.  1.
         -5    1    3    3    0  502  0.79987639787E+02 -0.23785121485E+02 -0.74605501220E+02  0.11201431933E+03  0.41800000000E+01 0.  1.
        -11    1    1    2    0    0 -0.81297181637E+02 -0.22032663916E+02 -0.90674988447E+02  0.12376034725E+03  0.00000000000E+00 0.  1.
         11    1    1    2    0    0  0.22217635352E+02 -0.81567428851E+01 -0.23139525537E+02  0.33099749504E+02  0.00000000000E+00 0. -1.
</event>
<event>
 7    1  0.3056346E-009  0.1049548E+03  0.7561462E-02  0.1270209E+00
         -1   -1    0    0    0  501 -0.00000000000E+00  0.00000000000E+00  0.11365066651E+02  0.11365066651E+02  0.00000000000E+00 0.  1.
          1   -1    0    0  501    0  0.00000000000E+00 -0.00000000000E+00 -0.18080333997E+04  0.18080333997E+04  0.00000000000E+00 0. -1.
         25    2    1    2    0    0 -0.61806476200E+02  0.38226405180E+02 -0.13578265451E+04  0.13655148835E+04  0.12512662384E+03 0.  0.
          5    1    3    3  502    0 -0.78404601640E+02  0.24570135012E+02 -0.13135097066E+04  0.13160836580E+04  0.41800000000E+01 0. -1.
         -5    1    3    3    0  502  0.16598125440E+02  0.13656270169E+02 -0.44316838475E+02  0.49431225511E+02  0.41800000000E+01 0. -1.
        -11    1    1    2    0    0 -0.70121177801E+01 -0.36222161735E+02 -0.74980528993E+02  0.83566108708E+02  0.00000000000E+00 0.  1.
         11    1    1    2    0    0  0.68818593980E+02 -0.20042434451E+01 -0.36386125900E+03  0.37031747416E+03  0.00000000000E+00 0. -1.
</event>
<event>
 6    1  0.3056346E-009  0.1353664E+03  0.7561462E-02  0.1219703E+00
          1   -1    0    0  501    0  0.00000000000E+00  0.00000000000E+00  0.14024163580E+03  0.14024163580E+03  0.00000000000E+00 0. -1.
         -1   -1    0    0    0  501 -0.00000000000E+00 -0.00000000000E+00 -0.14743492348E+03  0.14743492348E+03  0.00000000000E+00 0.  1.
          5    1    1    2  502    0 -0.50490132517E+02  0.37053904367E+01 -0.26135284557E+02  0.57127129271E+02  0.41800000000E+01 0.  1.
         -5    1    1    2    0  502  0.31388495341E+02  0.82503308312E+02  0.38409560446E+02  0.96357668382E+02  0.41800000000E+01 0.  1.
        -11    1    1    2    0    0  0.48492452786E+02 -0.89697080819E+02 -0.74170963149E+01  0.10223550070E+03  0.00000000000E+00 0.  1.
         11    1    1    2    0    0 -0.29390815609E+02  0.34883820701E+01 -0.12050467250E+02  0.31956260930E+02  0.00000000000E+00 0. -1.
</event>
<event>
 7    1  0.3056346E-009  0.9949740E+02  0.7561462E-02  0.1281356E+00
          1   -1    0    0  501    0  0.00000000000E+00  0.00000000000E+00  0.59453459167E+03  0.59453459167E+03  0.00000000000E+00 0. -1.
         -1   -1    0    0    0  501 -0.00000000000E+00 -0.00000000000E+00 -0.25998178917E+02  0.25998178917E+02  0.00000000000E+00 0.  1.
         25    2    1    2    0    0 -0.55576329730E+02 -0.14396091775E+02  0.29530844720E+03  0.32580653724E+03  0.12508734884E+03 0.  0.
          5    1    3    3  502    0 -0.65733269654E+02  0.51743157692E+01  0.29606957863E+03  0.30335178271E+03  0.41800000000E+01 0. -1.
         -5    1    3    3    0  502  0.10156939924E+02 -0.19570407544E+02 -0.76113143502E+00  0.22454754532E+02  0.41800000000E+01 0. -1.
        -11    1    1    2    0    0  0.44090342690E+02 -0.37161628357E+02  0.14502589681E+03  0.15606875307E+03  0.00000000000E+00 0.  1.
         11    1    1    2    0    0  0.11485987040E+02  0.51557720131E+02  0.12820206875E+03  0.13865748027E+03  0.00000000000E+00 0. -1.
</event>
<event>
 7    1  0.3056346E-009  0.1041180E+03  0.7561462E-02  0.1271867E+00
          1   -1    0    0  501    0  0.00000000000E+00  0.00000000000E+00  0.66957332392E+02  0.66957332392E+02  0.00000000000E+00 0. -1.
         -1   -1    0    0    0  501 -0.00000000000E+00 -0.00000000000E+00 -0.25821592539E+03  0.25821592539E+03  0.00000000000E+00 0.  1.
         25    2    1    2    0    0  0.28617931156E+02  0.19262014085E+02 -0.25176530629E+02  0.13218013345E+03  0.12509084225E+03 0.  0.
          5    1    3    3  502    0  0.56153866370E+02 -0.34286549037E+02  0.20653036272E+01  0.65958790409E+02  0.41800000000E+01 0. -1.
         -5    1    3    3    0  502 -0.27535935214E+02  0.53548563122E+02 -0.27241834256E+02  0.66221343042E+02  0.41800000000E+01 0. -1.
        -11    1    1    2    0    0 -0.31032367440E+01  0.28037476016E+02 -0.11652046070E+03  0.11988639581E+03  0.00000000000E+00 0.  1.
         11    1    1    2    0    0 -0.25514694412E+02 -0.47299490102E+02 -0.49561601677E+02  0.73106728525E+02  0.00000000000E+00 0. -1.
</event>
<event>
 7    1  0.3056346E-009  0.1097307E+03  0.7561462E-02  0.1261069E+00
         -2   -1    0    0    0  501 -0.00000000000E+00  0.00000000000E+00  0.15892847699E+02  0.15892847699E+02  0.00000000000E+00 0. -1.
          2   -1    0    0  501    0  0.00000000000E+00 -0.00000000000E+00 -0.15438053282E+04  0.15438053282E+04  0.00000000000E+00 0.  1.
         25    2    1    2    0    0  0.49594701969E+01 -0.84241751710E+02 -0.12003073951E+04  0.12097534205E+04  0.12507688287E+03 0.  0.
          5    1    3    3  502    0 -0.84274427884E+01 -0.82016750908E+02 -0.36072812576E+03  0.37005408028E+03  0.41800000000E+01 0. -1.
         -5    1    3    3    0  502  0.13386912985E+02 -0.22250008021E+01 -0.83957926936E+03  0.83969934024E+03  0.41800000000E+01 0. -1.
        -11    1    1    2    0    0 -0.39681172186E+02  0.10265376486E+02 -0.12165649675E+03  0.12837552953E+03  0.00000000000E+00 0.  1.
         11    1    1    2    0    0  0.34721701990E+02  0.73976375224E+02 -0.20594858864E+03  0.22156922585E+03  0.00000000000E+00 0. -1.
</event>
<event>
 7    1  0.3056346E-009  0.1783056E+03  0.7561462E-02  0.1169453E+00
         -2   -1    0    0    0  501 -0.00000000000E+00  0.00000000000E+00  0.27266247684E+02  0.27266247684E+02  0.00000000000E+00 0.  1.
          2   -1    0    0  501    0  0.00000000000E+00 -0.00000000000E+00 -0.12665382502E+04  0.12665382502E+04  0.00000000000E+00 0. -1.
         25    2    1    2    0    0 -0.12658475964E+03 -0.62244407436E+02 -0.47049767639E+03  0.50686604364E+03  0.12508818922E+03 0.  0.
          5    1    3    3  502    0 -0.84840370340E+02  0.27649090960E+02 -0.22433112745E+03  0.24146280835E+03  0.41800000000E+01 0. -1.
         -5    1    3    3    0  502 -0.41744389300E+02 -0.89893498397E+02 -0.24616654893E+03  0.26540323530E+03  0.41800000000E+01 0. -1.
        -11    1    1    2    0    0  0.10218780489E+03  0.10409202435E+01 -0.47356679732E+03  0.48446768985E+03  0.00000000000E+00 0.  1.
         11    1    1    2    0    0  0.24396954749E+02  0.61203487193E+02 -0.29520752879E+03  0.30247076437E+03  0.00000000000E+00 0. -1.
</event>
<event>
 7    1  0.3056346E-009  0.8018936E+02  0.7561462E-02  0.1328515E+00
          2   -1    0    0  501    0  0.00000000000E+00  0.00000000000E+00  0.29382988315E+03  0.29382988315E+03  0.00000000000E+00 0. -1.
         -2   -1    0    0    0  501 -0.00000000000E+00 -0.00000000000E+00 -0.51730736442E+02  0.51730736442E+02  0.00000000000E+00 0.  1.
         25    2    1    2    0    0 -0.52890400840E+02  0.16472947602E+02  0.10438588366E+03  0.17208507068E+03  0.12509239122E+03 0.  0.
          5    1    3    3  502    0 -0.38042269514E+02  0.15272843460E+02 -0.20653264801E+02  0.46092339538E+02  0.41800000000E+01 0. -1.
         -5    1    3    3    0  502 -0.14848131326E+02  0.12001041416E+01  0.12503914846E+03  0.12599273115E+03  0.41800000000E+01 0. -1.
        -11    1    1    2    0    0 -0.18959112257E+02  0.16043015517E+02  0.20515505543E+02  0.32213541440E+02  0.00000000000E+00 0.  1.
         11    1    1    2    0    0  0.71849513097E+02 -0.32515963119E+02  0.11719775750E+03  0.14126200747E+03  0.00000000000E+00 0. -1.
</event>
<event>
 7    1  0.3056346E-009  0.9713761E+02  0.7561462E-02  0.1286433E+00
         -1   -1    0    0    0  501 -0.00000000000E+00  0.00000000000E+00  0.36195394224E+03  0.36195394224E+03  0.00000000000E+00 0.  1.
          1   -1    0    0  501    0  0.00000000000E+00 -0.00000000000E+00 -0.66022478521E+02  0.66022478521E+02  0.00000000000E+00 0. -1.
         25    2    1    2    0    0 -0.68096456607E+02  0.30800018498E+02  0.48104938536E+02  0.15345312844E+03  0.12509200204E+03 0.  0.
          5    1    3    3  502    0 -0.19828018657E+01  0.25834213572E+02  0.76746700667E+02  0.81110212411E+02  0.41800000000E+01 0.  1.
         -5    1    3    3    0  502 -0.66113654742E+02  0.49658049257E+01 -0.28641762131E+02  0.72342916031E+02  0.41800000000E+01 0.  1.
        -11    1    1    2    0    0  0.39829839490E+02 -0.52545565340E+02  0.21886634158E+03  0.22858243158E+03  0.00000000000E+00 0.  1.
         11    1    1    2    0    0  0.28266617117E+02  0.21745546843E+02  0.28960183595E+02  0.45940860730E+02  0.00000000000E+00 0. -1.
</event>
<event>
 7    1  0.3056346E-009  0.1201063E+03  0.7561462E-02  0.1242922E+00
         -1   -1    0    0    0  501 -0.00000000000E+00  0.00000000000E+00  0.32347102219E+03  0.32347102219E+03  0.00000000000E+00 0.  1.
          1   -1    0    0  501    0  0.00000000000E+00 -0.00000000000E+00 -0.52563931272E+02  0.52563931272E+02  0.00000000000E+00 0. -1.
         25    2    1    2    0    0  0.37051228620E+02  0.23050784749E+02  0.14360769584E+03  0.19538569582E+03  0.12509303580E+03 0.  0.
          5    1    3    3  502    0 -0.37348571253E+02  0.14648812883E+02  0.10186702664E+03  0.10956216048E+03  0.41800000000E+01 0. -1.
         -5    1    3    3    0  502  0.74399799872E+02  0.84019718666E+01  0.41740669204E+02  0.85823535338E+02  0.41800000000E+01 0. -1.
        -11    1    1    2    0    0  0.38389120600E+01 -0.65694836917E+02  0.87204166126E+02  0.10924795391E+03  0.00000000000E+00 0.  1.
         11    1    1    2    0    0 -0.40890140680E+02  0.42644052167E+02  0.40095228944E+02  0.71401303729E+02  0.00000000000E+00 0. -1.
</event>
<event>
 7    1  0.3056346E-009  0.1394943E+03  0.7561462E-02  0.1214011E+00
          1   -1    0    0  501    0  0.00000000000E+00  0.00000000000E+00  0.27130387441E+03  0.27130387441E+03  0.00000000000E+00 0. -1.
         -1   -1    0    0    0  501 -0.00000000000E+00 -0.00000000000E+00 -0.83242754702E+02  0.83242754702E+02  0.00000000000E+00 0.  1.
         25    2    1    2    0    0 -0.41573906009E+02 -0.95075289958E+02  0.10716645490E+03  0.19467695315E+03  0.12508703613E+03 0.  0.
          5    1    3    3  502    0  0.36219655944E+01 -0.10488202736E+03  0.38663059711E+02  0.11191810793E+03  0.41800000000E+01 0. -1.
         -5    1    3    3    0  502 -0.45195871604E+02  0.98067373979E+01  0.68503395193E+02  0.82758845215E+02  0.41800000000E+01 0. -1.
        -11    1    1    2    0    0  0.61993881093E+02  0.56498539645E+02  0.80446473470E+02  0.11621945349E+03  0.00000000000E+00 0.  1.
         11    1    1    2    0    0 -0.20419975084E+02  0.38576750314E+02  0.44819133836E+00  0.43650222481E+02  0.00000000000E+00 0. -1.
</event>
<event>
 7    1  0.3056346E-009  0.9240741E+02  0.7561462E-02  0.1297124E+00
          1   -1    0    0  501    0  0.00000000000E+00  0.00000000000E+00  0.20236124321E+03  0.20236124321E+03  0.00000000000E+00 0. -1.
         -1   -1    0    0    0  501 -0.00000000000E+00 -0.00000000000E+00 -0.74961088687E+02  0.74961088687E+02  0.00000000000E+00 0.  1.
         25    2    1    2    0    0  0.36777773117E+02 -0.22530419232E+02  0.27815212947E+02  0.13520518440E+03  0.12508609608E+03 0.  0.
          5    1    3    3  502    0  0.37731547950E+01 -0.47210304817E+02  0.64324982249E+02  0.79988907477E+02  0.41800000000E+01 0. -1.
         -5    1    3    3    0  502  0.33004618322E+02  0.24679885584E+02 -0.36509769303E+02  0.55216276926E+02  0.41800000000E+01 0. -1.
        -11    1    1    2    0    0 -0.33845852759E+02  0.54276992131E+02  0.42702186557E+02  0.76909104536E+02  0.00000000000E+00 0.  1.
         11    1    1    2    0    0 -0.29319203579E+01 -0.31746572899E+02  0.56882755019E+02  0.65208042957E+02  0.00000000000E+00 0. -1.
</event>
<event>
 7    1  0.3056346E-009  0.1010124E+03  0.7561462E-02  0.1278181E+00
         -1   -1    0    0    0  501 -0.00000000000E+00  0.00000000000E+00  0.86673867329E+02  0.86673867329E+02  0.00000000000E+00 0.  1.
          1   -1    0    0  501    0  0.00000000000E+00 -0.00000000000E+00 -0.13982095033E+03  0.13982095033E+03  0.00000000000E+00 0. -1.
         25    2    1    2    0    0 -0.47204671138E+01 -0.19227357305E+02 -0.28561275929E+02  0.12982719423E+03  0.12508948717E+03 0.  0.
          5    1    3    3  502    0  0.28275966595E+02 -0.64401766239E+02 -0.13482668030E+02  0.71738222161E+02  0.41800000000E+01 0.  1.
         -5    1    3    3    0  502 -0.32996433709E+02  0.45174408934E+02 -0.15078607899E+02  0.58088972071E+02  0.41800000000E+01 0.  1.
        -11    1    1    2    0    0  0.34319194345E+02  0.28328518823E+02 -0.41957316641E+02  0.61161495231E+02  0.00000000000E+00 0. -1.
         11    1    1    2    0    0 -0.29598727231E+02 -0.91011615179E+01  0.17371509569E+02  0.35506128195E+02  0.00000000000E+00 0.  1.
</event>
<event>
 7    1  0.3056346E-009  0.1310539E+03  0.7561462E-02  0.1225900E+00
          1   -1    0    0  501    0  0.00000000000E+00  0.00000000000E+00  0.11311542825E+04  0.11311542825E+04  0.00000000000E+00 0. -1.
         -1   -1    0    0    0  501 -0.00000000000E+00 -0.00000000000E+00 -0.17075108114E+02  0.17075108114E+02  0.00000000000E+00 0.  1.
         25    2    1    2    0    0  0.60022242586E+02  0.55787686858E+02  0.53904995683E+03  0.55940912150E+03  0.12509505845E+03 0.  0.
          5    1    3    3  502    0  0.57990897354E+02 -0.24069580304E+02  0.32192816976E+03  0.32802059045E+03  0.41800000000E+01 0.  1.
         -5    1    3    3    0  502  0.20313452315E+01  0.79857267161E+02  0.21712178707E+03  0.23138853105E+03  0.41800000000E+01 0.  1.
        -11    1    1    2    0    0 -0.82674424382E+02 -0.43820235150E+02  0.51682928183E+03  0.52523116817E+03  0.00000000000E+00 0. -1.
         11    1    1    2    0    0  0.22652181797E+02 -0.11967451707E+02  0.58199935682E+02  0.63589100906E+02  0.00000000000E+00 0.  1.
</event>
<event>
 7    1  0.3056346E-009  0.2044257E+03  0.7561462E-02  0.1146058E+00
         -2   -1    0    0    0  501 -0.00000000000E+00  0.00000000000E+00  0.11571651125E+03  0.11571651125E+03  0.00000000000E+00 0.  1.
          2   -1    0    0  501    0  0.00000000000E+00 -0.00000000000E+00 -0.43429123552E+03  0.43429123552E+03  0.00000000000E+00 0. -1.
         25    2    1    2    0    0 -0.19537590062E+03 -0.93911781245E+01 -0.16708827031E+03  0.28604868137E+03  0.12508165839E+03 0.  0.
          5    1    3    3  502    0 -0.19261602598E+03 -0.27355035592E+02 -0.17860225215E+03  0.26413153600E+03  0.41800000000E+01 0. -1.
         -5    1    3    3    0  502 -0.27598746417E+01  0.17963857467E+02  0.11513981841E+02  0.21917145365E+02  0.41800000000E+01 0. -1.
        -11    1    1    2    0    0  0.13624439201E+03  0.57830918195E+01 -0.47725550767E+02  0.14447735705E+03  0.00000000000E+00 0. -1.
         11    1    1    2    0    0  0.59131508615E+02  0.36080863050E+01 -0.10376090320E+03  0.11948170835E+03  0.00000000000E+00 0.  1.
</event>
<event>
 7    1  0.3056346E-009  0.2110407E+03  0.7561462E-02  0.1140745E+00
          2   -1    0    0  501    0  0.00000000000E+00  0.00000000000E+00  0.19307641119E+03  0.19307641119E+03  0.00000000000E+00 0.  1.
         -2   -1    0    0    0  501 -0.00000000000E+00 -0.00000000000E+00 -0.24005018693E+03  0.24005018693E+03  0.00000000000E+00 0. -1.
         25    2    1    2    0    0  0.81578875179E+01  0.18282777083E+03 -0.51698761716E+02  0.22762397458E+03  0.12508943570E+03 0.  0.
          5    1    3    3  502    0 -0.54819769456E+02  0.90795503340E+02 -0.38801391445E+01  0.10621468086E+03  0.41800000000E+01 0. -1.
         -5    1    3    3    0  502  0.62977656974E+02  0.92032267488E+02 -0.47818622571E+02  0.12140929372E+03  0.41800000000E+01 0. -1.
        -11    1    1    2    0    0  0.41089508357E+02 -0.97814768467E+02 -0.81893774346E+01  0.10641025576E+03  0.00000000000E+00 0. -1.
         11    1    1    2    0    0 -0.49247395875E+02 -0.85013002361E+02  0.12914363410E+02  0.99092367785E+02  0.00000000000E+00 0.  1.
</event>
<event>
 7    1  0.3056346E-009  0.9013352E+02  0.7561462E-02  0.1302529E+00
         -1   -1    0    0    0  501 -0.00000000000E+00  0.00000000000E+00  0.64775865700E+02  0.64775865700E+02  0.00000000000E+00 0.  1.
          1   -1    0    0  501    0  0.00000000000E+00 -0.00000000000E+00 -0.30122157832E+03  0.30122157832E+03  0.00000000000E+00 0. -1.
         25    2    1    2    0    0  0.67323332753E+01  0.78750295307E+01 -0.23511824577E+03  0.26652466215E+03  0.12508983027E+03 0.  0.
          5    1    3    3  502    0  0.60584247812E+01  0.50089804993E+02 -0.21249568318E+03  0.21844354155E+03  0.41800000000E+01 0. -1.
         -5    1    3    3    0  502  0.67390849410E+00 -0.42214775462E+02 -0.22622562595E+02  0.48081120602E+02  0.41800000000E+01 0. -1.
        -11    1    1    2    0    0 -0.39997192053E+02  0.19157940485E+02 -0.24583217900E+02  0.50706376897E+02  0.00000000000E+00 0. -1.
         11    1    1    2    0    0  0.33264858778E+02 -0.27032970015E+02  0.23255751050E+02  0.48766404976E+02  0.00000000000E+00 0.  1.
</event>
<event>
 7    1  0.3056346E-009  0.1437762E+03  0.7561462E-02  0.1208336E+00
         -2   -1    0    0    0  501 -0.00000000000E+00  0.00000000000E+00  0.81826129031E+02  0.81826129031E+02  0.00000000000E+00 0.  1.
          2   -1    0    0  501    0  0.00000000000E+00 -0.00000000000E+00 -0.65346306556E+03  0.65346306556E+03  0.00000000000E+00 0. -1.
         25    2    1    2    0    0  0.10389681432E+03  0.39139222198E+01 -0.19341100686E+02  0.16379230850E+03  0.12507587832E+03 0.  0.
          5    1    3    3  502    0  0.90520608336E+00  0.49647233025E+02 -0.77790451094E+01  0.50434641745E+02  0.41800000000E+01 0.  1.
         -5    1    3    3    0  502  0.10299160823E+03 -0.45733310805E+02 -0.11562055577E+02  0.11335766676E+03  0.41800000000E+01 0.  1.
        -11    1    1    2    0    0 -0.16489854511E+01  0.19901826756E+02 -0.17684360442E+02  0.26674678358E+02  0.00000000000E+00 0.  1.
         11    1    1    2    0    0 -0.10224782886E+03 -0.23815748976E+02 -0.53461147540E+03  0.54482220773E+03  0.00000000000E+00 0. -1.
</event>
<event>
 7    1  0.3056346E-009  0.1408164E+03  0.7561462E-02  0.1212235E+00
          1   -1    0    0  501    0  0.00000000000E+00  0.00000000000E+00  0.24285933559E+03  0.24285933559E+03  0.00000000000E+00 0. -1.
         -1   -1    0    0    0  501 -0.00000000000E+00 -0.00000000000E+00 -0.85527838924E+02  0.85527838924E+02  0.00000000000E+00 0.  1.
         25    2    1    2    0    0 -0.64474709642E+02 -0.65674232368E+02  0.11446155423E+03  0.19292358342E+03  0.12509184091E+03 0.  0.
          5    1    3    3  502    0 -0.10147091754E+03 -0.57783316147E+02  0.80255355563E+02  0.14175208368E+03  0.41800000000E+01 0. -1.
         -5    1    3    3    0  502  0.36996207902E+02 -0.78909162217E+01  0.34206198663E+02  0.51171499733E+02  0.41800000000E+01 0. -1.
        -11    1    1    2    0    0 -0.94440632719E+01  0.50363735170E+02  0.64384975724E+01  0.51644461488E+02  0.00000000000E+00 0.  1.
         11    1    1    2    0    0  0.73918772914E+02  0.15310497198E+02  0.36431444868E+02  0.83819129611E+02  0.00000000000E+00 0. -1.
</event>
<event>
 7    1  0.3056346E-009  0.9289218E+02  0.7561462E-02  0.1295995E+00
         -1   -1    0    0    0  501 -0.00000000000E+00  0.00000000000E+00  0.12105997528E+03  0.12105997528E+03  0.00000000000E+00 0.  1.
          1   -1    0    0  501    0  0.00000000000E+00 -0.00000000000E+00 -0.10905300173E+03  0.10905300173E+03  0.00000000000E+00 0. -1.
         25    2    1    2    0    0 -0.30332772567E+02  0.46440343619E+00  0.39566990040E+02  0.13466157555E+03  0.12509156833E+03 0.  0.
          5    1    3    3  502    0 -0.41386651081E+02  0.43909881842E+02  0.60019338901E+02  0.85209894104E+02  0.41800000000E+01 0.  1.
         -5    1    3    3    0  502  0.11053878514E+02 -0.43445478406E+02 -0.20452348861E+02  0.49451681448E+02  0.41800000000E+01 0.  1.
        -11    1    1    2    0    0 -0.11322432116E+02 -0.28094148488E+02 -0.33442672567E+02  0.45120848803E+02  0.00000000000E+00 0.  1.
         11    1    1    2    0    0  0.41655204682E+02  0.27629745052E+02  0.58826560730E+01  0.50330552662E+02  0.00000000000E+00 0. -1.
</event>
<event>
 7    1  0.3056346E-009  0.1072072E+03  0.7561462E-02  0.1265831E+00
         -2   -1    0    0    0  501 -0.00000000000E+00  0.00000000000E+00  0.27199624460E+02  0.27199624460E+02  0.00000000000E+00 0.  1.
          2   -1    0    0  501    0  0.00000000000E+00 -0.00000000000E+00 -0.43764708089E+03  0.43764708089E+03  0.00000000000E+00 0. -1.
         25    2    1    2    0    0 -0.21068571052E+02 -0.57108925314E+00 -0.23713735442E+03  0.26893454300E+03  0.12508977868E+03 0.  0.
          5    1    3    3  502    0  0.47733262189E+02  0.23712500613E+02 -0.10954926566E+03  0.12189856854E+03  0.41800000000E+01 0.  1.
         -5    1    3    3    0  502 -0.68801833241E+02 -0.24283589866E+02 -0.12758808876E+03  0.14703597446E+03  0.41800000000E+01 0.  1.
        -11    1    1    2    0    0  0.19408372350E+02 -0.41475277203E+02 -0.11680403877E+03  0.12545942376E+03  0.00000000000E+00 0. -1.
         11    1    1    2    0    0  0.16601987021E+01  0.42046366456E+02 -0.56506063234E+02  0.70452738585E+02  0.00000000000E+00 0.  1.
</event>
<event>
 7    1  0.3056346E-009  0.1274015E+03  0.7561462E-02  0.1231363E+00
          3   -1    0    0  501    0  0.00000000000E+00  0.00000000000E+00  0.13008805388E+03  0.13008805388E+03  0.00000000000E+00 0. -1.
         -3   -1    0    0    0  501 -0.00000000000E+00 -0.00000000000E+00 -0.19066383609E+03  0.19066383609E+03  0.00000000000E+00 0.  1.
         25    2    1    2    0    0  0.22474784641E+02  0.83742022291E+02 -0.10914857846E+03  0.18729196129E+03  0.12508806634E+03 0.  0.
          5    1    3    3  502    0 -0.30191925217E+02  0.69831015055E+02 -0.13846771173E+02  0.77441129149E+02  0.41800000000E+01 0. -1.
         -5    1    3    3    0  502  0.52666709858E+02  0.13911007236E+02 -0.95301807290E+02  0.10985083214E+03  0.41800000000E+01 0. -1.
        -11    1    1    2    0    0  0.24213187735E+02 -0.71818411172E+02  0.24925451108E+02  0.79783712351E+02  0.00000000000E+00 0. -1.
         11    1    1    2    0    0 -0.46687972376E+02 -0.11923611120E+02  0.23647345143E+02  0.53676216325E+02  0.00000000000E+00 0.  1.
</event>
<event>
 7    1  0.3056346E-009  0.1832630E+03  0.7561462E-02  0.1164682E+00
          2   -1    0    0  501    0  0.00000000000E+00  0.00000000000E+00  0.13554309478E+04  0.13554309478E+04  0.00000000000E+00 0. -1.
         -2   -1    0    0    0  501 -0.00000000000E+00 -0.00000000000E+00 -0.25873100651E+02  0.25873100651E+02  0.00000000000E+00 0.  1.
         25    2    1    2    0    0 -0.14725526580E+03  0.33854491006E+02  0.64949903542E+03  0.67847795512E+03  0.12511234433E+03 0.  0.
          5    1    3    3  502    0 -0.39682408688E+02  0.70113391303E+02  0.22430651366E+03  0.23837253548E+03  0.41800000000E+01 0.  1.
         -5    1    3    3    0  502 -0.10757285711E+03 -0.36258900297E+02  0.42519252176E+03  0.44010541964E+03  0.41800000000E+01 0.  1.
        -11    1    1    2    0    0  0.52803160338E+02  0.27591281286E+02  0.16080003466E+03  0.17148207980E+03  0.00000000000E+00 0. -1.
         11    1    1    2    0    0  0.94452105457E+02 -0.61445772292E+02  0.51925877702E+03  0.53134401349E+03  0.00000000000E+00 0.  1.
</event>
<event>
 7    1  0.3056346E-009  0.1200025E+03  0.7561462E-02  0.1243093E+00
         -3   -1    0    0    0  501 -0.00000000000E+00  0.00000000000E+00  0.15477061666E+03  0.15477061666E+03  0.00000000000E+00 0.  1.
          3   -1    0    0  501    0  0.00000000000E+00 -0.00000000000E+00 -0.16138300007E+03  0.16138300007E+03  0.00000000000E+00 0. -1.
         25    2    1    2    0    0  0.61365388995E+02 -0.36109869415E+02  0.80415834930E+02  0.16487684203E+03  0.12509209765E+03 0.  0.
          5    1    3    3  502    0 -0.21494316441E+02  0.13498580165E+02 -0.14394270800E+02  0.29476850877E+02  0.41800000000E+01 0.  1.
         -5    1    3    3    0  502  0.82859705437E+02 -0.49608449579E+02  0.94810105730E+02  0.13539999115E+03  0.41800000000E+01 0.  1.
        -11    1    1    2    0    0  0.13768603298E+02 -0.19691157423E+02 -0.83152130228E+00  0.24041787478E+02  0.00000000000E+00 0. -1.
         11    1    1    2    0    0 -0.75133992293E+02  0.55801026838E+02 -0.86196697042E+02  0.12723498723E+03  0.00000000000E+00 0.  1.
</event>
<event>
 7    1  0.3056346E-009  0.1107489E+03  0.7561462E-02  0.1259189E+00
         -2   -1    0    0    0  501 -0.00000000000E+00  0.00000000000E+00  0.77390466221E+02  0.77390466221E+02  0.00000000000E+00 0.  1.
          2   -1    0    0  501    0  0.00000000000E+00 -0.00000000000E+00 -0.17308895415E+03  0.17308895415E+03  0.00000000000E+00 0. -1.
         25    2    1    2    0    0  0.28991500807E+01 -0.34059222182E+02 -0.29172458604E+02  0.13291730681E+03  0.12509013719E+03 0.  0.
          5    1    3    3  502    0 -0.32351772802E+02 -0.69979642679E+02 -0.62634716732E+01  0.77462836704E+02  0.41800000000E+01 0. -1.
         -5    1    3    3    0  502  0.35250922882E+02  0.35920420497E+02 -0.22908986931E+02  0.55454470108E+02  0.41800000000E+01 0. -1.
        -11    1    1    2    0    0  0.41661745245E+02  0.88547921904E+01 -0.15622142746E+02  0.45366945076E+02  0.00000000000E+00 0. -1.
         11    1    1    2    0    0 -0.44560895325E+02  0.25204429992E+02 -0.50903886578E+02  0.72195168482E+02  0.00000000000E+00 0.  1.
</event>
<event>
 7    1  0.3056346E-009  0.7619865E+02  0.7561462E-02  0.1340199E+00
          1   -1    0    0  501    0  0.00000000000E+00  0.00000000000E+00  0.18508939400E+04  0.18508939400E+04  0.00000000000E+00 0. -1.
         -1   -1    0    0    0  501 -0.00000000000E+00 -0.00000000000E+00 -0.92056264512E+01  0.92056264512E+01  0.00000000000E+00 0.  1.
         25    2    1    2    0    0  0.40569700094E+02 -0.24700442226E+02  0.13980685396E+04  0.14044567748E+04  0.12508868226E+03 0.  0.
          5    1    3    3  502    0  0.18982779553E+02 -0.74819898622E+01  0.13385477636E+04  0.13387097945E+04  0.41800000000E+01 0. -1.
         -5    1    3    3    0  502  0.21586920541E+02 -0.17218452363E+02  0.59520776023E+02  0.65746980300E+02  0.41800000000E+01 0. -1.
        -11    1    1    2    0    0  0.30037762772E+02  0.80546503769E+01  0.11685461034E+03  0.12092205978E+03  0.00000000000E+00 0.  1.
         11    1    1    2    0    0 -0.70607462866E+02  0.16645791849E+02  0.32676516367E+03  0.33472073193E+03  0.00000000000E+00 0. -1.
</event>
<event>
 7    1  0.3056346E-009  0.1801145E+03  0.7561462E-02  0.1167692E+00
          3   -1    0    0  501    0  0.00000000000E+00  0.00000000000E+00  0.30986821977E+03  0.30986821977E+03  0.00000000000E+00 0. -1.
         -3   -1    0    0    0  501 -0.00000000000E+00 -0.00000000000E+00 -0.13640320168E+03  0.13640320168E+03  0.00000000000E+00 0.  1.
         25    2    1    2    0    0  0.42109286704E+00 -0.14551053519E+03  0.19636713251E+03  0.27455344491E+03  0.12508417252E+03 0.  0.
          5    1    3    3  502    0 -0.37402232994E+02 -0.14758308569E+03  0.16978878564E+03  0.22809076778E+03  0.41800000000E+01 0.  1.
         -5    1    3    3    0  502  0.37823325861E+02  0.20725505029E+01  0.26578346864E+02  0.46462677138E+02  0.41800000000E+01 0.  1.
        -11    1    1    2    0    0  0.38761959026E+02  0.11109049530E+03 -0.21078735653E+02  0.11953200705E+03  0.00000000000E+00 0.  1.
         11    1    1    2    0    0 -0.39183051893E+02  0.34420039888E+02 -0.18233787604E+01  0.52185969490E+02  0.00000000000E+00 0. -1.
</event>
<event>
 7    1  0.3056346E-009  0.1724707E+03  0.7561462E-02  0.1175295E+00
         -1   -1    0    0    0  501 -0.00000000000E+00  0.00000000000E+00  0.22394024116E+02  0.22394024116E+02  0.00000000000E+00 0.  1.
          1   -1    0    0  501    0  0.00000000000E+00 -0.00000000000E+00 -0.16145700380E+04  0.16145700380E+04  0.00000000000E+00 0. -1.
         25    2    1    2    0    0 -0.10882636490E+03  0.10424569064E+03 -0.10281666744E+04  0.10466539345E+04  0.12508959372E+03 0.  0.
          5    1    3    3  502    0  0.19114098702E+02  0.20958313087E+02 -0.59794134501E+02  0.66312974427E+02  0.41800000000E+01 0. -1.
         -5    1    3    3    0  502 -0.12794046360E+03  0.83287377554E+02 -0.96837253990E+03  0.98034096004E+03  0.41800000000E+01 0. -1.
        -11    1    1    2    0    0  0.36825697128E+02 -0.79157871732E+02 -0.19722255661E+03  0.21568226043E+03  0.00000000000E+00 0.  1.
         11    1    1    2    0    0  0.72000667770E+02 -0.25087818909E+02 -0.36678678291E+03  0.37462786727E+03  0.00000000000E+00 0. -1.
</event>
<event>
 7    1  0.3056346E-009  0.1166669E+03  0.7561462E-02  0.1248699E+00
         -2   -1    0    0    0  501 -0.00000000000E+00  0.00000000000E+00  0.76069470935E+02  0.76069470935E+02  0.00000000000E+00 0.  1.
          2   -1    0    0  501    0  0.00000000000E+00 -0.00000000000E+00 -0.23106761244E+03  0.23106761244E+03  0.00000000000E+00 0. -1.
         25    2    1    2    0    0  0.72754908163E+02 -0.86259429712E+01 -0.10956216857E+03  0.18171018031E+03  0.12508811812E+03 0.  0.
          5    1    3    3  502    0  0.91713808429E+02 -0.24111512931E+02 -0.31845009145E+02  0.10012174948E+03  0.41800000000E+01 0. -1.
         -5    1    3    3    0  502 -0.18958900266E+02  0.15485569960E+02 -0.77717159422E+02  0.81588430828E+02  0.41800000000E+01 0. -1.
        -11    1    1    2    0    0 -0.21832798997E+02  0.45660958107E+02 -0.56069138944E+01  0.50921819397E+02  0.00000000000E+00 0.  1.
         11    1    1    2    0    0 -0.50922109166E+02 -0.37035015136E+02 -0.39829059044E+02  0.74505083667E+02  0.00000000000E+00 0. -1.
</event>
<event>
 7    1  0.3056346E-009  0.1074548E+03  0.7561462E-02  0.1265357E+00
          2   -1    0    0  501    0  0.00000000000E+00  0.00000000000E+00  0.76471427918E+02  0.76471427918E+02  0.00000000000E+00 0. -1.
         -2   -1    0    0    0  501 -0.00000000000E+00 -0.00000000000E+00 -0.18945689533E+03  0.18945689533E+03  0.00000000000E+00 0.  1.
         25    2    1    2    0    0 -0.31159695877E+02 -0.33164336418E+02 -0.34658639138E+02  0.13754818927E+03  0.12508990066E+03 0.  0.
          5    1    3    3  502    0 -0.66440699304E+02  0.10937720347E+02 -0.43438348195E+02  0.80239408923E+02  0.41800000000E+01 0. -1.
         -5    1    3    3    0  502  0.35281003427E+02 -0.44102056765E+02  0.87797090573E+01  0.57308780347E+02  0.41800000000E+01 0. -1.
        -11    1    1    2    0    0  0.46655224004E+02 -0.75382537854E+01 -0.69333797608E+02  0.83908942835E+02  0.00000000000E+00 0.  1.
         11    1    1    2    0    0 -0.15495528127E+02  0.40702590204E+02 -0.89930306686E+01  0.44471191145E+02  0.00000000000E+00 0. -1.
</event>
<event>
 7    1  0.3056346E-009  0.9108314E+02  0.7561462E-02  0.1300250E+00
          2   -1    0    0  501    0  0.00000000000E+00  0.00000000000E+00  0.23727101636E+03  0.23727101636E+03  0.00000000000E+00 0. -1.
         -2   -1    0    0    0  501 -0.00000000000E+00 -0.00000000000E+00 -0.54328761733E+02  0.54328761733E+02  0.00000000000E+00 0.  1.
         25    2    1    2    0    0 -0.46780986071E+01 -0.19149147223E+02  0.14047246478E+03  0.18912247016E+03  0.12508485484E+03 0.  0.
          5    1    3    3  502    0  0.54849585793E+02 -0.23977275043E+02  0.39842662649E+02  0.72029833729E+02  0.41800000000E+01 0.  1.
         -5    1    3    3    0  502 -0.59527684400E+02  0.48281278200E+01  0.10062980213E+03  0.11709263643E+03  0.41800000000E+01 0.  1.
        -11    1    1    2    0    0  0.25857277513E+02 -0.87184676382E+01 -0.17942155469E+02  0.32657792657E+02  0.00000000000E+00 0.  1.
         11    1    1    2    0    0 -0.21179178906E+02  0.27867614861E+02  0.60411945317E+02  0.69819515282E+02  0.00000000000E+00 0. -1.
</event>
<event>
 7    1  0.3056346E-009  0.9185638E+02  0.7561462E-02  0.1298417E+00
          1   -1    0    0  501    0  0.00000000000E+00  0.00000000000E+00  0.15765105596E+03  0.15765105596E+03  0.00000000000E+00 0. -1.
         -1   -1    0    0    0  501 -0.00000000000E+00 -0.00000000000E+00 -0.11062487622E+03  0.11062487622E+03  0.00000000000E+00 0.  1.
         25    2    1    2    0    0  0.13869124373E+02 -0.25275332448E+01 -0.49121341487E+02  0.13512824789E+03  0.12509195079E+03 0.  0.
          5    1    3    3  502    0  0.52352893560E+02  0.25779475798E+02  0.96269109281E+01  0.59292129752E+02  0.41800000000E+01 0.  1.
         -5    1    3    3    0  502 -0.38483769187E+02 -0.28307009042E+02 -0.58748252415E+02  0.75836118133E+02  0.41800000000E+01 0.  1.
        -11    1    1    2    0    0 -0.30277454092E+02  0.31665487970E+02  0.88638429376E+02  0.98874660642E+02  0.00000000000E+00 0. -1.
         11    1    1    2    0    0  0.16408329719E+02 -0.29137954725E+02  0.75090918534E+01  0.34273023651E+02  0.00000000000E+00 0.  1.
</event>
<event>
 7    1  0.3056346E-009  0.1359014E+03  0.7561462E-02  0.1218953E+00
          1   -1    0    0  501    0  0.00000000000E+00  0.00000000000E+00  0.38707393378E+02  0.38707393378E+02  0.00000000000E+00 0. -1.
         -1   -1    0    0    0  501 -0.00000000000E+00 -0.00000000000E+00 -0.67420714363E+03  0.67420714363E+03  0.00000000000E+00 0.  1.
         25    2    1    2    0    0 -0.10083753833E+03  0.60154674262E+02 -0.38325225807E+03  0.41989724133E+03  0.12507839939E+03 0.  0.
          5    1    3    3  502    0 -0.10301001395E+03  0.34987048155E+02 -0.37851153758E+03  0.39385735107E+03  0.41800000000E+01 0.  1.
         -5    1    3    3    0  502  0.21724756187E+01  0.25167626107E+02 -0.47407204877E+01  0.26039890263E+02  0.41800000000E+01 0.  1.
        -11    1    1    2    0    0  0.62594856225E+02  0.39106411780E+01 -0.59984091571E+02  0.86784217355E+02  0.00000000000E+00 0. -1.
         11    1    1    2    0    0  0.38242682104E+02 -0.64065315440E+02 -0.19226340062E+03  0.20623307832E+03  0.00000000000E+00 0.  1.
</event>
<event>
 7    1  0.3056346E-009  0.1716453E+03  0.7561462E-02  0.1176143E+00
          3   -1    0    0  501    0  0.00000000000E+00  0.00000000000E+00  0.33021110590E+02  0.33021110590E+02  0.00000000000E+00 0. -1.
         -3   -1    0    0    0  501 -0.00000000000E+00 -0.00000000000E+00 -0.96010922637E+03  0.96010922637E+03  0.00000000000E+00 0.  1.
         25    2    1    2    0    0 -0.32894544429E+02 -0.13160562586E+03 -0.38291172812E+03  0.42505341939E+03  0.12508767320E+03 0.  0.
          5    1    3    3  502    0 -0.52644882645E+02 -0.18263839411E+01 -0.98461794368E+02  0.11174532069E+03  0.41800000000E+01 0.  1.
         -5    1    3    3    0  502  0.19750338216E+02 -0.12977924192E+03 -0.28444993376E+03  0.31330809869E+03  0.41800000000E+01 0.  1.
        -11    1    1    2    0    0 -0.22321467431E+02  0.79672488717E+01 -0.13535734007E+03  0.13741664555E+03  0.00000000000E+00 0.  1.
         11    1    1    2    0    0  0.55216011860E+02  0.12363837699E+03 -0.40881904759E+03  0.43066027202E+03  0.00000000000E+00 0. -1.
</event>
<event>
 7    1  0.3056346E-009  0.1273580E+03  0.7561462E-02  0.1231430E+00
          2   -1    0    0  501    0  0.00000000000E+00  0.00000000000E+00  0.83641745977E+03  0.83641745977E+03  0.00000000000E+00 0. -1.
         -2   -1    0    0    0  501 -0.00000000000E+00 -0.00000000000E+00 -0.26175757772E+02  0.26175757772E+02  0.00000000000E+00 0.  1.
         25    2    1    2    0    0  0.59330446163E+02 -0.83747283235E+02  0.46586047294E+03  0.49316079091E+03  0.12509147116E+03 0.  0.
          5    1    3    3  502    0 -0.22066823762E+02 -0.28510452450E+02  0.28442938600E+03  0.28673565985E+03  0.41800000000E+01 0.  1.
         -5    1    3    3    0  502  0.81397269925E+02 -0.55236830784E+02  0.18143108694E+03  0.20642513106E+03  0.41800000000E+01 0.  1.
        -11    1    1    2    0    0 -0.15520769750E+02  0.73299813712E+02  0.12716692021E+03  0.14759804396E+03  0.00000000000E+00 0.  1.
         11    1    1    2    0    0 -0.43809676413E+02  0.10447469523E+02  0.21721430885E+03  0.22183438268E+03  0.00000000000E+00 0. -1.
</event>
<event>
 7    1  0.3056346E-009  0.1060551E+03  0.7561462E-02  0.1268055E+00
          2   -1    0    0  501    0  0.00000000000E+00  0.00000000000E+00  0.56683740060E+03  0.56683740060E+03  0.00000000000E+00 0. -1.
         -2   -1    0    0    0  501 -0.00000000000E+00 -0.00000000000E+00 -0.30082246569E+02  0.30082246569E+02  0.00000000000E+00 0.  1.
         25    2    1    2    0    0 -0.37510541766E+02  0.19538539488E+02  0.43407557655E+03  0.45371778635E+03  0.12509767473E+03 0.  0.
          5    1    3    3  502    0 -0.12098489073E+02  0.61631122730E+02  0.11730427001E+03  0.13312600381E+03  0.41800000000E+01 0.  1.
         -5    1    3    3    0  502 -0.25412052693E+02 -0.42092583242E+02  0.31677130654E+03  0.32059178254E+03  0.41800000000E+01 0.  1.
        -11    1    1    2    0    0 -0.30164290963E+02 -0.74685539168E+01  0.32135911143E+02  0.44703249679E+02  0.00000000000E+00 0.  1.
         11    1    1    2    0    0  0.67674832728E+02 -0.12069985571E+02  0.70543666340E+02  0.98498611143E+02  0.00000000000E+00 0. -1.
</event>
<event>
 7    1  0.3056346E-009  0.8139643E+02  0.7561462E-02  0.1325135E+00
          3   -1    0    0  501    0  0.00000000000E+00  0.00000000000E+00  0.76216849683E+02  0.76216849683E+02  0.00000000000E+00 0. -1.
         -3   -1    0    0    0  501 -0.00000000000E+00 -0.00000000000E+00 -0.15232814205E+03  0.15232814205E+03  0.00000000000E+00 0.  1.
         25    2    1    2    0    0  0.10649723327E+02 -0.10249026567E+02 -0.38248912720E+02  0.13163767188E+03  0.12508812167E+03 0.  0.
          5    1    3    3  502    0 -0.36063233118E+02  0.39933092794E+02 -0.20777131715E+01  0.54009239719E+02  0.41800000000E+01 0. -1.
         -5    1    3    3    0  502  0.46712956445E+02 -0.50182119362E+02 -0.36171199549E+02  0.77628432164E+02  0.41800000000E+01 0. -1.
        -11    1    1    2    0    0  0.31781691150E+01 -0.12838178960E+02 -0.60383893228E+02  0.61815323014E+02  0.00000000000E+00 0.  1.
         11    1    1    2    0    0 -0.13827892442E+02  0.23087205527E+02  0.22521513577E+02  0.35091996840E+02  0.00000000000E+00 0. -1.
</event>
<event>
 6    1  0.3056346E-009  0.8250803E+02  0.7561462E-02  0.1322081E+00
         -1   -1    0    0    0  501 -0.00000000000E+00  0.00000000000E+00  0.43574824205E+02  0.43574824205E+02  0.00000000000E+00 0.  1.
          1   -1    0    0  501    0  0.00000000000E+00 -0.00000000000E+00 -0.43394734593E+03  0.43394734593E+03  0.00000000000E+00 0. -1.
          5    1    1    2  502    0  0.14219162666E+02  0.24147845867E+02  0.25971581018E+02  0.38435640589E+02  0.41800000000E+01 0. -1.
         -5    1    1    2    0  502 -0.41067802653E+02 -0.91500159566E+01 -0.10334996091E+03  0.11166456030E+03  0.41800000000E+01 0. -1.
        -11    1    1    2    0    0  0.42654860394E+02 -0.44056068981E+02 -0.23115098475E+03  0.23914671665E+03  0.00000000000E+00 0.  1.
         11    1    1    2    0    0 -0.15806220406E+02  0.29058239071E+02 -0.81843157084E+02  0.88275252607E+02  0.00000000000E+00 0. -1.
</event>
<event>
 7    1  0.3056346E-009  0.2060715E+03  0.7561462E-02  0.1144715E+00
         -2   -1    0    0    0  501 -0.00000000000E+00  0.00000000000E+00  0.10028243844E+03  0.10028243844E+03  0.00000000000E+00 0.  1.
          2   -1    0    0  501    0  0.00000000000E+00 -0.00000000000E+00 -0.50329709117E+03  0.50329709117E+03  0.00000000000E+00 0. -1.
         25    2    1    2    0    0  0.14357386271E+03 -0.13232984220E+03 -0.24462601177E+03  0.33706651778E+03  0.12508921050E+03 0.  0.
          5    1    3    3  502    0 -0.27366381956E+01 -0.23294877965E+02  0.82411620057E+01  0.25209713985E+02  0.41800000000E+01 0.  1.
         -5    1    3    3    0  502  0.14631050091E+03 -0.10903496424E+03 -0.25286717377E+03  0.31185680379E+03  0.41800000000E+01 0.  1.
        -11    1    1    2    0    0 -0.14728495630E+02  0.51813086060E+02 -0.77519666238E+02  0.94397156336E+02  0.00000000000E+00 0. -1.
         11    1    1    2    0    0 -0.12884536708E+03  0.80516756140E+02 -0.80868974728E+02  0.17211585549E+03  0.00000000000E+00 0.  1.
</event>
<event>
 7    1  0.3056346E-009  0.2715627E+03  0.7561462E-02  0.1100389E+00
          1   -1    0    0  501    0  0.00000000000E+00  0.00000000000E+00  0.46633151653E+03  0.46633151653E+03  0.00000000000E+00 0. -1.
         -1   -1    0    0    0  501 -0.00000000000E+00 -0.00000000000E+00 -0.17261186104E+03  0.17261186104E+03  0.00000000000E+00 0.  1.
         25    2    1    2    0    0 -0.23761110850E+03 -0.99888947411E+02  0.98209071700E+02  0.30286813238E+03  0.12508894096E+03 0.  0.
          5    1    3    3  502    0 -0.21477551834E+03 -0.37022737306E+02  0.88015308334E+02  0.23508163105E+03  0.41800000000E+01 0.  1.
         -5    1    3    3    0  502 -0.22835590158E+02 -0.62866210105E+02  0.10193763366E+02  0.67786501329E+02  0.41800000000E+01 0.  1.
        -11    1    1    2    0    0  0.76898726044E+02  0.39427640841E+02  0.12149296548E+03  0.14909223183E+03  0.00000000000E+00 0.  1.
         11    1    1    2    0    0  0.16071238245E+03  0.60461306570E+02  0.74017618307E+02  0.18698301336E+03  0.00000000000E+00 0. -1.
</event>
<event>
 7    1  0.3056346E-009  0.1308514E+03  0.7561462E-02  0.1226198E+00
         -1   -1    0    0    0  501 -0.00000000000E+00  0.00000000000E+00  0.16811434787E+02  0.16811434787E+02  0.00000000000E+00 0.  1.
          1   -1    0    0  501    0  0.00000000000E+00 -0.00000000000E+00 -0.14377603151E+04  0.14377603151E+04  0.00000000000E+00 0. -1.
         25    2    1    2    0    0 -0.17785077143E+02  0.10254952903E+03 -0.94734642726E+03  0.96122078793E+03  0.12508970794E+03 0.  0.
          5    1    3    3  502    0  0.84462417863E+01  0.10349325985E+03 -0.40161407348E+03  0.41484157247E+03  0.41800000000E+01 0. -1.
         -5    1    3    3    0  502 -0.26231318929E+02 -0.94373081851E+00 -0.54573235378E+03  0.54637921546E+03  0.41800000000E+01 0. -1.
        -11    1    1    2    0    0 -0.28769906909E+02 -0.15983672959E+02 -0.62208391208E+02  0.70378045451E+02  0.00000000000E+00 0. -1.
         11    1    1    2    0    0  0.46554984052E+02 -0.86565856069E+02 -0.41139406184E+03  0.42297291650E+03  0.00000000000E+00 0.  1.
</event>
<event>
 7    1  0.3056346E-009  0.1672818E+03  0.7561462E-02  0.1180712E+00
         -1   -1    0    0    0  501 -0.00000000000E+00  0.00000000000E+00  0.10018644393E+03  0.10018644393E+03  0.00000000000E+00 0.  1.
          1   -1    0    0  501    0  0.00000000000E+00 -0.00000000000E+00 -0.38940987492E+03  0.38940987492E+03  0.00000000000E+00 0. -1.
         25    2    1    2    0    0  0.12634337608E+03 -0.46788041226E+02 -0.33863265906E+02  0.18693786900E+03  0.12508907469E+03 0.  0.
          5    1    3    3  502    0  0.12947866259E+02 -0.66974493043E+02 -0.79193736897E+01  0.68799846211E+02  0.41800000000E+01 0. -1.
         -5    1    3    3    0  502  0.11339550982E+03  0.20186451817E+02 -0.25943892216E+02  0.11813802279E+03  0.41800000000E+01 0. -1.
        -11    1    1    2    0    0 -0.10767972296E+03  0.80655509114E+01 -0.12390979282E+03  0.16435818387E+03  0.00000000000E+00 0.  1.
         11    1    1    2    0    0 -0.18663653119E+02  0.38722490314E+02 -0.13145037226E+03  0.13830026598E+03  0.00000000000E+00 0. -1.
</event>
<event>
 7    1  0.3056346E-009  0.1298532E+03  0.7561462E-02  0.1227674E+00
          1   -1    0    0  501    0  0.00000000000E+00  0.00000000000E+00  0.65933305514E+02  0.65933305514E+02  0.00000000000E+00 0. -1.
         -1   -1    0    0    0  501 -0.00000000000E+00 -0.00000000000E+00 -0.28454850872E+03  0.28454850872E+03  0.00000000000E+00 0.  1.
         25    2    1    2    0    0 -0.74873492822E+02  0.35854853813E+02 -0.12499891819E+03  0.19535587759E+03  0.12509028296E+03 0.  0.
          5    1    3    3  502    0 -0.10800604729E+02  0.70185515738E+02 -0.89576948740E+02  0.11438602112E+03  0.41800000000E+01 0.  1.
         -5    1    3    3    0  502 -0.64072888093E+02 -0.34330661925E+02 -0.35421969448E+02  0.80969856468E+02  0.41800000000E+01 0.  1.
        -11    1    1    2    0    0  0.26801062127E+02  0.26055131876E+02 -0.58069891668E+02  0.69059967757E+02  0.00000000000E+00 0.  1.
         11    1    1    2    0    0  0.48072430695E+02 -0.61909985689E+02 -0.35546393350E+02  0.86065968891E+02  0.00000000000E+00 0. -1.
</event>
<event>
 7    1  0.3056346E-009  0.1294519E+03  0.7561462E-02  0.1228271E+00
          4   -1    0    0  501    0  0.00000000000E+00  0.00000000000E+00  0.15048613449E+02  0.15048613449E+02  0.00000000000E+00 0.  1.
         -4   -1    0    0    0  501 -0.00000000000E+00 -0.00000000000E+00 -0.24167239082E+04  0.24167239082E+04  0.00000000000E+00 0. -1.
         25    2    1    2    0    0 -0.72601052093E+02 -0.88768667882E+01 -0.21414274113E+04  0.21463245731E+04  0.12509238077E+03 0.  0.
          5    1    3    3  502    0 -0.59314781161E+02  0.53900830642E+02 -0.12619700882E+04  0.12645194814E+04  0.41800000000E+01 0. -1.
         -5    1    3    3    0  502 -0.13286270931E+02 -0.62777697430E+02 -0.87945732305E+03  0.88180509170E+03  0.41800000000E+01 0. -1.
        -11    1    1    2    0    0  0.35549017569E+02 -0.39673331069E+02 -0.15328064813E+03  0.16227342031E+03  0.00000000000E+00 0.  1.
         11    1    1    2    0    0  0.37052034524E+02  0.48550197858E+02 -0.10696723537E+03  0.12317452828E+03  0.00000000000E+00 0. -1.
</event>
<event>
 7    1  0.3056346E-009  0.1041878E+03  0.7561462E-02  0.1271728E+00
          1   -1    0    0  501    0  0.00000000000E+00  0.00000000000E+00  0.76983744780E+02  0.76983744780E+02  0.00000000000E+00 0. -1.
         -1   -1    0    0    0  501 -0.00000000000E+00 -0.00000000000E+00 -0.20410565344E+03  0.20410565344E+03  0.00000000000E+00 0.  1.
         25    2    1    2    0    0 -0.37011275318E+02 -0.44425337696E+02 -0.10039427498E+03  0.17050043003E+03  0.12509173060E+03 0.  0.
          5    1    3    3  502    0 -0.58042587091E+02 -0.72682716885E+02 -0.97646155948E+02  0.13492206425E+03  0.41800000000E+01 0.  1.
         -5    1    3    3    0  502  0.21031311774E+02  0.28257379190E+02 -0.27481190278E+01  0.35578365783E+02  0.41800000000E+01 0.  1.
        -11    1    1    2    0    0  0.15570543725E+02 -0.11854368307E+02 -0.43814712276E+02  0.47986424035E+02  0.00000000000E+00 0.  1.
         11    1    1    2    0    0  0.21440731593E+02  0.56279706002E+02  0.17087078595E+02  0.62602544149E+02  0.00000000000E+00 0. -1.
</event>
<event>
 7    1  0.3056346E-009  0.1337985E+03  0.7561462E-02  0.1221926E+00
          2   -1    0    0  501    0  0.00000000000E+00  0.00000000000E+00  0.18052315535E+03  0.18052315535E+03  0.00000000000E+00 0.  1.
         -2   -1    0    0    0  501 -0.00000000000E+00 -0.00000000000E+00 -0.13440321264E+03  0.13440321264E+03  0.00000000000E+00 0. -1.
         25    2    1    2    0    0  0.10078410258E+03  0.44197421980E+01  0.72297408787E+02  0.17621377969E+03  0.12508961340E+03 0.  0.
          5    1    3    3  502    0  0.71928021929E+02 -0.36804055073E+02 -0.80638185206E+01  0.81306066057E+02  0.41800000000E+01 0. -1.
         -5    1    3    3    0  502  0.28856080656E+02  0.41223797271E+02  0.80361227308E+02  0.94907713631E+02  0.41800000000E+01 0. -1.
        -11    1    1    2    0    0 -0.31893824479E+02 -0.45818745572E+02 -0.95245116578E+01  0.56632939249E+02  0.00000000000E+00 0. -1.
         11    1    1    2    0    0 -0.68890278106E+02  0.41399003374E+02 -0.16652954421E+02  0.82079649054E+02  0.00000000000E+00 0.  1.
</event>
<event>
 7    1  0.3056346E-009  0.2167974E+03  0.7561462E-02  0.1136294E+00
         -2   -1    0    0    0  501 -0.00000000000E+00  0.00000000000E+00  0.39116667097E+02  0.39116667097E+02  0.00000000000E+00 0.  1.
          2   -1    0    0  501    0  0.00000000000E+00 -0.00000000000E+00 -0.14446247272E+04  0.14446247272E+04  0.00000000000E+00 0. -1.
         25    2    1    2    0    0  0.16825099321E+03 -0.10590591358E+03 -0.52753115090E+03  0.57746179509E+03  0.12509416601E+03 0.  0.
          5    1    3    3  502    0  0.87206580697E+02  0.82428403035E+01 -0.27561881755E+03  0.28923370675E+03  0.41800000000E+01 0. -1.
         -5    1    3    3    0  502  0.81044412518E+02 -0.11414875388E+03 -0.25191233335E+03  0.28822808834E+03  0.41800000000E+01 0. -1.
        -11    1    1    2    0    0 -0.11471566304E+03  0.99633573657E+02 -0.77799844688E+03  0.79269673627E+03  0.00000000000E+00 0. -1.
         11    1    1    2    0    0 -0.53535330174E+02  0.62723399228E+01 -0.99978462332E+02  0.11358286295E+03  0.00000000000E+00 0.  1.
</event>
<event>
 7    1  0.3056346E-009  0.2331503E+03  0.7561462E-02  0.1124442E+00
          1   -1    0    0  501    0  0.00000000000E+00  0.00000000000E+00  0.20575838554E+03  0.20575838554E+03  0.00000000000E+00 0. -1.
         -1   -1    0    0    0  501 -0.00000000000E+00 -0.00000000000E+00 -0.29765415559E+03  0.29765415559E+03  0.00000000000E+00 0.  1.
         25    2    1    2    0    0  0.21846031403E+03 -0.38656776411E+02 -0.53399902155E+02  0.26024196782E+03  0.12512025054E+03 0.  0.
          5    1    3    3  502    0  0.99210903815E+02  0.27212626276E+02 -0.67659946298E+02  0.12320174998E+03  0.41800000000E+01 0. -1.
         -5    1    3    3    0  502  0.11924941022E+03 -0.65869402688E+02  0.14260044143E+02  0.13704021785E+03  0.41800000000E+01 0. -1.
        -11    1    1    2    0    0 -0.19356416884E+03  0.49647715858E+02 -0.59825995201E+02  0.20859322340E+03  0.00000000000E+00 0.  1.
         11    1    1    2    0    0 -0.24896145198E+02 -0.10990939446E+02  0.21330127311E+02  0.34577349909E+02  0.00000000000E+00 0. -1.
</event>
<event>
 7    1  0.3056346E-009  0.1913685E+03  0.7561462E-02  0.1157233E+00
          1   -1    0    0  501    0  0.00000000000E+00  0.00000000000E+00  0.13227612446E+04  0.13227612446E+04  0.00000000000E+00 0. -1.
         -1   -1    0    0    0  501 -0.00000000000E+00 -0.00000000000E+00 -0.45612023729E+02  0.45612023729E+02  0.00000000000E+00 0.  1.
         25    2    1    2    0    0 -0.94843572302E+02  0.12538744129E+03  0.22983687973E+03  0.30527159048E+03  0.12509372098E+03 0.  0.
          5    1    3    3  502    0 -0.11536488990E+03  0.13494682345E+03  0.19783196311E+03  0.26584706320E+03  0.41800000000E+01 0.  1.
         -5    1    3    3    0  502  0.20521317602E+02 -0.95593821614E+01  0.32004916621E+02  0.39424527281E+02  0.41800000000E+01 0.  1.
        -11    1    1    2    0    0  0.40204035172E+02  0.52305394285E+01  0.20463603946E+03  0.20861359408E+03  0.00000000000E+00 0.  1.
         11    1    1    2    0    0  0.54639537130E+02 -0.13061798072E+03  0.84267630169E+03  0.85448808379E+03  0.00000000000E+00 0. -1.
</event>
<event>
 7    1  0.3056346E-009  0.8478884E+02  0.7561462E-02  0.1315986E+00
         -2   -1    0    0    0  501 -0.00000000000E+00  0.00000000000E+00  0.17347973341E+03  0.17347973341E+03  0.00000000000E+00 0.  1.
          2   -1    0    0  501    0  0.00000000000E+00 -0.00000000000E+00 -0.11592214201E+03  0.11592214201E+03  0.00000000000E+00 0. -1.
         25    2    1    2    0    0 -0.47091659866E+02  0.25904063518E+02 -0.44010171636E+02  0.14308195718E+03  0.12508759462E+03 0.  0.
          5    1    3    3  502    0 -0.47936544713E+02 -0.93898148551E+01 -0.79144763265E+02  0.93099124025E+02  0.41800000000E+01 0. -1.
         -5    1    3    3    0  502  0.84488484732E+00  0.35293878373E+02  0.35134591629E+02  0.49982833153E+02  0.41800000000E+01 0. -1.
        -11    1    1    2    0    0 -0.14959496096E+02  0.48774411583E+01  0.67159324580E+02  0.68977901053E+02  0.00000000000E+00 0.  1.
         11    1    1    2    0    0  0.62051155962E+02 -0.30781504676E+02  0.34408438450E+02  0.77342017190E+02  0.00000000000E+00 0. -1.
</event>
<event>
 7    1  0.3056346E-009  0.1041291E+03  0.7561462E-02  0.1271845E+00
         -2   -1    0    0    0  501 -0.00000000000E+00  0.00000000000E+00  0.53752957807E+03  0.53752957807E+03  0.00000000000E+00 0.  1.
          2   -1    0    0  501    0  0.00000000000E+00 -0.00000000000E+00 -0.38030757366E+02  0.38030757366E+02  0.00000000000E+00 0. -1.
         25    2    1    2    0    0 -0.22628419811E+02  0.31926463892E+02  0.40160682443E+03  0.42245858714E+03  0.12510744161E+03 0.  0.
          5    1    3    3  502    0  0.42786464387E+02 -0.17065196776E+02  0.19077394418E+03  0.19630097466E+03  0.41800000000E+01 0. -1.
         -5    1    3    3    0  502 -0.65414884198E+02  0.48991660668E+02  0.21083288025E+03  0.22615761248E+03  0.41800000000E+01 0. -1.
        -11    1    1    2    0    0  0.26961011126E+02 -0.52568571070E+02  0.11275773869E+03  0.12729751930E+03  0.00000000000E+00 0.  1.
         11    1    1    2    0    0 -0.43325913154E+01  0.20642107178E+02 -0.14865742414E+02  0.25804228990E+02  0.00000000000E+00 0. -1.
</event>
<event>
 7    1  0.3056346E-009  0.9909922E+02  0.7561462E-02  0.1282202E+00
          2   -1    0    0  501    0  0.00000000000E+00  0.00000000000E+00  0.18166930728E+03  0.18166930728E+03  0.00000000000E+00 0. -1.
         -2   -1    0    0    0  501 -0.00000000000E+00 -0.00000000000E+00 -0.78963347987E+02  0.78963347987E+02  0.00000000000E+00 0.  1.
         25    2    1    2    0    0  0.34740081727E+02  0.11375106113E+02  0.16946343667E+02  0.13142431795E+03  0.12509558932E+03 0.  0.
          5    1    3    3  502    0  0.40770923121E+01  0.58094536689E+02  0.40056637113E+02  0.70806810771E+02  0.41800000000E+01 0. -1.
         -5    1    3    3    0  502  0.30662989415E+02 -0.46719430575E+02 -0.23110293446E+02  0.60617507177E+02  0.41800000000E+01 0. -1.
        -11    1    1    2    0    0 -0.86551947539E+00  0.30161359869E+02  0.65124674111E+02  0.71775204153E+02  0.00000000000E+00 0. -1.
         11    1    1    2    0    0 -0.33874562252E+02 -0.41536465983E+02  0.20634941517E+02  0.57433133168E+02  0.00000000000E+00 0.  1.
</event>
<event>
 7    1  0.3056346E-009  0.8245795E+02  0.7561462E-02  0.1322217E+00
          2   -1    0    0  501    0  0.00000000000E+00  0.00000000000E+00  0.47391633893E+02  0.47391633893E+02  0.00000000000E+00 0. -1.
         -2   -1    0    0    0  501 -0.00000000000E+00 -0.00000000000E+00 -0.35547464029E+03  0.35547464029E+03  0.00000000000E+00 0.  1.
         25    2    1    2    0    0  0.64603205229E+02 -0.20739496643E+02 -0.13898692580E+03  0.19892159509E+03  0.12509490239E+03 0.  0.
          5    1    3    3  502    0 -0.11650898459E+02 -0.45498868008E+01 -0.11710750521E+03  0.11784771988E+03  0.41800000000E+01 0.  1.
         -5    1    3    3    0  502  0.76254103687E+02 -0.16189609843E+02 -0.21879420591E+02  0.81073875209E+02  0.41800000000E+01 0.  1.
        -11    1    1    2    0    0 -0.56815126345E+02  0.27708293065E+02 -0.17882377038E+03  0.18966720575E+03  0.00000000000E+00 0.  1.
         11    1    1    2    0    0 -0.77880788843E+01 -0.69687964216E+01  0.97276897851E+01  0.14277473335E+02  0.00000000000E+00 0. -1.
</event>
<event>
 7    1  0.5227447E-009  0.1073693E+03  0.7561462E-02  0.1265521E+00
         -3   -1    0    0    0  501 -0.00000000000E+00  0.00000000000E+00  0.81211531945E+02  0.81211531945E+02  0.00000000000E+00 0.  1.
          3   -1    0    0  501    0  0.00000000000E+00 -0.00000000000E+00 -0.21043164701E+03  0.21043164701E+03  0.00000000000E+00 0. -1.
         25    2    1    2    0    0  0.17436996225E+02 -0.65466824508E+02 -0.99774353014E+02  0.17375985216E+03  0.12509041033E+03 0.  0.
          5    1    3    3  502    0  0.68835292466E+02 -0.53080575098E+02 -0.46845437195E+02  0.98832243360E+02  0.41800000000E+01 0. -1.
         -5    1    3    3    0  502 -0.51398296241E+02 -0.12386249409E+02 -0.52928915819E+02  0.74927608802E+02  0.41800000000E+01 0. -1.
        -11    1    1    2    0    0  0.59118641909E+01  0.38745499336E+02  0.29517478723E+02  0.49065725381E+02  0.00000000000E+00 0.  1.
         11    1    1    2    0    0 -0.23348860416E+02  0.26721325171E+02 -0.58963240778E+02  0.68817601416E+02  0.00000000000E+00 0. -1.
</event>
<event>
 7    1  0.3056346E-009  0.1112589E+03  0.7561462E-02  0.1258256E+00
          1   -1    0    0  501    0  0.00000000000E+00  0.00000000000E+00  0.34569335018E+03  0.34569335018E+03  0.00000000000E+00 0. -1.
         -1   -1    0    0    0  501 -0.00000000000E+00 -0.00000000000E+00 -0.54243275265E+02  0.54243275265E+02  0.00000000000E+00 0.  1.
         25    2    1    2    0    0  0.53755166279E+02 -0.40818164295E+02  0.23108391549E+03  0.27130128913E+03  0.12509545574E+03 0.  0.
          5    1    3    3  502    0  0.75677499494E+02 -0.44329850860E+02  0.80786264710E+02  0.11931518165E+03  0.41800000000E+01 0.  1.
         -5    1    3    3    0  502 -0.21922333215E+02  0.35116865648E+01  0.15029765078E+03  0.15198610748E+03  0.41800000000E+01 0.  1.
        -11    1    1    2    0    0 -0.62942050688E+02  0.62421054723E+02  0.38827696120E+02  0.96776442400E+02  0.00000000000E+00 0.  1.
         11    1    1    2    0    0  0.91868844094E+01 -0.21602890428E+02  0.21538463305E+02  0.31858893916E+02  0.00000000000E+00 0. -1.
</event>
<event>
 7    1  0.3056346E-009  0.8919352E+02  0.7561462E-02  0.1304817E+00
          1   -1    0    0  501    0  0.00000000000E+00  0.00000000000E+00  0.37747176525E+02  0.37747176525E+02  0.00000000000E+00 0. -1.
         -1   -1    0    0    0  501 -0.00000000000E+00 -0.00000000000E+00 -0.34775882400E+03  0.34775882400E+03  0.00000000000E+00 0.  1.
         25    2    1    2    0    0 -0.12828935397E+02 -0.29939858339E+02 -0.21730952080E+03  0.25284413264E+03  0.12508297598E+03 0.  0.
          5    1    3    3  502    0  0.52490809273E+02 -0.89220589816E+01 -0.55433116953E+02  0.76975262583E+02  0.41800000000E+01 0. -1.
         -5    1    3    3    0  502 -0.65319744671E+02 -0.21017799358E+02 -0.16187640385E+03  0.17586887006E+03  0.41800000000E+01 0. -1.
        -11    1    1    2    0    0  0.13301740302E+02 -0.97810207731E+01  0.12174708792E+02  0.20514097509E+02  0.00000000000E+00 0. -1.
         11    1    1    2    0    0 -0.47280490442E+00  0.39720879112E+02 -0.10487683546E+03  0.11214777037E+03  0.00000000000E+00 0.  1.
</event>
<event>
 7    1  0.3056346E-009  0.1132806E+03  0.7561462E-02  0.1254613E+00
          1   -1    0    0  501    0  0.00000000000E+00  0.00000000000E+00  0.79196751984E+03  0.79196751984E+03  0.00000000000E+00 0. -1.
         -1   -1    0    0    0  501 -0.00000000000E+00 -0.00000000000E+00 -0.17309424940E+02  0.17309424940E+02  0.00000000000E+00 0.  1.
         25    2    1    2    0    0 -0.43254340523E+02  0.90728443913E+01  0.46010050191E+03  0.47884596660E+03  0.12509090053E+03 0.  0.
          5    1    3    3  502    0  0.20427645805E+02  0.47984234761E+02  0.12494347710E+03  0.13545523382E+03  0.41800000000E+01 0.  1.
         -5    1    3    3    0  502 -0.63681986328E+02 -0.38911390370E+02  0.33515702481E+03  0.34339073278E+03  0.41800000000E+01 0.  1.
        -11    1    1    2    0    0  0.22042487603E+02 -0.49308918973E+02  0.14037223519E+03  0.15040480431E+03  0.00000000000E+00 0.  1.
         11    1    1    2    0    0  0.21211852920E+02  0.40236074582E+02  0.17418535781E+03  0.18002617387E+03  0.00000000000E+00 0. -1.
</event>
<event>
 7    1  0.3056346E-009  0.1941364E+03  0.7561462E-02  0.1154783E+00
          1   -1    0    0  501    0  0.00000000000E+00  0.00000000000E+00  0.14136634399E+03  0.14136634399E+03  0.00000000000E+00 0. -1.
         -1   -1    0    0    0  501 -0.00000000000E+00 -0.00000000000E+00 -0.26983011818E+03  0.26983011818E+03  0.00000000000E+00 0.  1.
         25    2    1    2    0    0  0.13962123758E+03  0.79070764270E+02 -0.58809444640E+02  0.21177044405E+03  0.12506755954E+03 0.  0.
          5    1    3    3  502    0  0.77262665030E+02 -0.25575560657E+02 -0.26065169562E+02  0.85559886482E+02  0.41800000000E+01 0.  1.
         -5    1    3    3    0  502  0.62358572550E+02  0.10464632493E+03 -0.32744275078E+02  0.12621055757E+03  0.41800000000E+01 0.  1.
        -11    1    1    2    0    0 -0.84802468956E+02 -0.95447530364E+02 -0.34428148199E+02  0.13223837258E+03  0.00000000000E+00 0. -1.
         11    1    1    2    0    0 -0.54818768624E+02  0.16376766094E+02 -0.35226181348E+02  0.67187645542E+02  0.00000000000E+00 0.  1.
</event>
<event>
 7    1  0.3056346E-009  0.1136394E+03  0.7561462E-02  0.1253975E+00
         -2   -1    0    0    0  501 -0.00000000000E+00  0.00000000000E+00  0.27400945488E+03  0.27400945488E+03  0.00000000000E+00 0. -1.
          2   -1    0    0  501    0  0.00000000000E+00 -0.00000000000E+00 -0.70327896727E+02  0.70327896727E+02  0.00000000000E+00 0.  1.
         25    2    1    2    0    0 -0.57792940015E+02 -0.65130418326E+01  0.19937887739E+03  0.24244844954E+03  0.12508745064E+03 0.  0.
          5    1    3    3  502    0 -0.43576437526E+02  0.56970555390E+02  0.90587648655E+02  0.11562069269E+03  0.41800000000E+01 0. -1.
         -5    1    3    3    0  502 -0.14216502489E+02 -0.63483597222E+02  0.10879122873E+03  0.12682775685E+03  0.41800000000E+01 0. -1.
        -11    1    1    2    0    0 -0.13464498888E+02 -0.10389438809E+02  0.20751053285E+02  0.26829822614E+02  0.00000000000E+00 0.  1.
         11    1    1    2    0    0  0.71257438903E+02  0.16902480642E+02 -0.16448372512E+02  0.75059079458E+02  0.00000000000E+00 0. -1.
</event>
<event>
 7    1  0.3056346E-009  0.1257735E+03  0.7561462E-02  0.1233865E+00
         -1   -1    0    0    0  501 -0.00000000000E+00  0.00000000000E+00  0.67530057880E+02  0.67530057880E+02  0.00000000000E+00 0.  1.
          1   -1    0    0  501    0  0.00000000000E+00 -0.00000000000E+00 -0.27548028645E+03  0.27548028645E+03  0.00000000000E+00 0. -1.
         25    2    1    2    0    0 -0.76128164208E+02 -0.39274839018E+01 -0.15242559409E+03  0.21140414532E+03  0.12508888204E+03 0.  0.
          5    1    3    3  502    0  0.25946803430E+02 -0.26943306753E+02 -0.20148165504E+02  0.42691912117E+02  0.41800000000E+01 0.  1.
         -5    1    3    3    0  502 -0.10207496764E+03  0.23015822852E+02 -0.13227742858E+03  0.16871223320E+03  0.41800000000E+01 0.  1.
        -11    1    1    2    0    0  0.55568961646E+02 -0.34640596810E+02 -0.63083451619E+01  0.65785071745E+02  0.00000000000E+00 0.  1.
         11    1    1    2    0    0  0.20559202563E+02  0.38568080712E+02 -0.49216289323E+02  0.65821127266E+02  0.00000000000E+00 0. -1.
</event>
<event>
 7    1  0.3056346E-009  0.1011657E+03  0.7561462E-02  0.1277863E+00
          2   -1    0    0  501    0  0.00000000000E+00  0.00000000000E+00  0.35228811271E+03  0.35228811271E+03  0.00000000000E+00 0. -1.
         -2   -1    0    0    0  501 -0.00000000000E+00 -0.00000000000E+00 -0.41265071003E+02  0.41265071003E+02  0.00000000000E+00 0.  1.
         25    2    1    2    0    0  0.24261192229E+01 -0.11608285079E+02  0.89953147638E+02  0.15453473811E+03  0.12509507654E+03 0.  0.
          5    1    3    3  502    0 -0.59609950970E+02 -0.13121833008E+02  0.29965650836E+02  0.68124455126E+02  0.41800000000E+01 0. -1.
         -5    1    3    3    0  502  0.62036070193E+02  0.15135479290E+01  0.59987496802E+02  0.86410282982E+02  0.41800000000E+01 0. -1.
        -11    1    1    2    0    0 -0.39598558798E+02  0.13225197080E+02  0.56244762758E+02  0.70045878068E+02  0.00000000000E+00 0. -1.
         11    1    1    2    0    0  0.37172439575E+02 -0.16169120012E+01  0.16482513131E+03  0.16897256754E+03  0.00000000000E+00 0.  1.
</event>
<event>
 7    1  0.3056346E-009  0.9641677E+02  0.7561462E-02  0.1288017E+00
          2   -1    0    0  501    0  0.00000000000E+00  0.00000000000E+00  0.47023354134E+03  0.47023354134E+03  0.00000000000E+00 0. -1.
         -2   -1    0    0    0  501 -0.00000000000E+00 -0.00000000000E+00 -0.37754416565E+02  0.37754416565E+02  0.00000000000E+00 0.  1.
         25    2    1    2    0    0 -0.32746752210E+01 -0.70007818467E+02  0.29977622593E+03  0.33230336023E+03  0.12509164418E+03 0.  0.
          5    1    3    3  502    0 -0.25978191423E+02 -0.45243410986E+02  0.29317513551E+03  0.29781028382E+03  0.41800000000E+01 0.  1.
         -5    1    3    3    0  502  0.22703516202E+02 -0.24764407481E+02  0.66010904249E+01  0.34493076416E+02  0.41800000000E+01 0.  1.
        -11    1    1    2    0    0  0.39188823153E+02  0.17248750397E+02  0.22585454819E+02  0.48408532510E+02  0.00000000000E+00 0.  1.
         11    1    1    2    0    0 -0.35914147932E+02  0.52759068070E+02  0.11011744403E+03  0.12727606517E+03  0.00000000000E+00 0. -1.
</event>
<event>
 7    1  0.3056346E-009  0.2571862E+03  0.7561462E-02  0.1108846E+00
          2   -1    0    0  501    0  0.00000000000E+00  0.00000000000E+00  0.56454133815E+03  0.56454133815E+03  0.00000000000E+00 0. -1.
         -2   -1    0    0    0  501 -0.00000000000E+00 -0.00000000000E+00 -0.13044858129E+03  0.13044858129E+03  0.00000000000E+00 0.  1.
         25    2    1    2    0    0 -0.70805055246E+02  0.23673314039E+03  0.19441258701E+03  0.33837779861E+03  0.12508934806E+03 0.  0.
          5    1    3    3  502    0 -0.77042430368E+02  0.14841805986E+03  0.18473923652E+03  0.24921780530E+03  0.41800000000E+01 0.  1.
         -5    1    3    3    0  502  0.62373751216E+01  0.88315080529E+02  0.96733504901E+01  0.89159993310E+02  0.41800000000E+01 0. -1.
        -11    1    1    2    0    0  0.29650062383E+02 -0.20326987747E+03  0.21734280543E+03  0.29905796154E+03  0.00000000000E+00 0. -1.
         11    1    1    2    0    0  0.41154992863E+02 -0.33463262922E+02  0.22337364415E+02  0.57554159293E+02  0.00000000000E+00 0.  1.
</event>
<event>
 7    1  0.3056346E-009  0.9382839E+02  0.7561462E-02  0.1293837E+00
          3   -1    0    0  501    0  0.00000000000E+00  0.00000000000E+00  0.54987792061E+03  0.54987792061E+03  0.00000000000E+00 0. -1.
         -3   -1    0    0    0  501 -0.00000000000E+00 -0.00000000000E+00 -0.28875370281E+02  0.28875370281E+02  0.00000000000E+00 0.  1.
         25    2    1    2    0    0  0.60884425944E+01  0.39747134379E+02  0.40120360458E+03  0.42217182940E+03  0.12509123623E+03 0.  0.
          5    1    3    3  502    0 -0.18505490397E+00  0.63370112649E+02  0.38969257753E+03  0.39483361407E+03  0.41800000000E+01 0.  1.
         -5    1    3    3    0  502  0.62734974984E+01 -0.23622978270E+02  0.11511027056E+02  0.27338215324E+02  0.41800000000E+01 0.  1.
        -11    1    1    2    0    0 -0.46443997617E+02 -0.61652506419E+01  0.69911364353E+02  0.84158505784E+02  0.00000000000E+00 0.  1.
         11    1    1    2    0    0  0.40355555023E+02 -0.33581883737E+02  0.49887581394E+02  0.72422955711E+02  0.00000000000E+00 0. -1.
</event>
<event>
 7    1  0.3056346E-009  0.8943813E+02  0.7561462E-02  0.1304218E+00
          1   -1    0    0  501    0  0.00000000000E+00  0.00000000000E+00  0.12065493773E+03  0.12065493773E+03  0.00000000000E+00 0. -1.
         -1   -1    0    0    0  501 -0.00000000000E+00 -0.00000000000E+00 -0.14292232311E+03  0.14292232311E+03  0.00000000000E+00 0.  1.
         25    2    1    2    0    0  0.42758833772E+02 -0.28031695713E+01 -0.73739321425E+02  0.15142891653E+03  0.12512814876E+03 0.  0.
          5    1    3    3  502    0 -0.39386596085E+01 -0.31304095278E+02  0.23647085080E+02  0.39649923751E+02  0.41800000000E+01 0.  1.
         -5    1    3    3    0  502  0.46697493380E+02  0.28500925707E+02 -0.97386406506E+02  0.11177899278E+03  0.41800000000E+01 0.  1.
        -11    1    1    2    0    0 -0.67326903671E+02 -0.92301657517E+00  0.16635921587E+02  0.69357896483E+02  0.00000000000E+00 0.  1.
         11    1    1    2    0    0  0.24568069899E+02  0.37261861465E+01  0.34836014462E+02  0.42790447828E+02  0.00000000000E+00 0. -1.
</event>
<event>
 7    1  0.3056346E-009  0.9639328E+02  0.7561462E-02  0.1288069E+00
          1   -1    0    0  501    0  0.00000000000E+00  0.00000000000E+00  0.13544981823E+04  0.13544981823E+04  0.00000000000E+00 0. -1.
         -1   -1    0    0    0  501 -0.00000000000E+00 -0.00000000000E+00 -0.12987559397E+02  0.12987559397E+02  0.00000000000E+00 0.  1.
         25    2    1    2    0    0 -0.13706602965E+02  0.64492045194E+02  0.92605670338E+03  0.93679028102E+03  0.12509163793E+03 0.  0.
          5    1    3    3  502    0 -0.21374668955E+02  0.98695225229E+01  0.78368941187E+03  0.78405411205E+03  0.41800000000E+01 0.  1.
         -5    1    3    3    0  502  0.76680659907E+01  0.54622522671E+02  0.14236729151E+03  0.15273616896E+03  0.41800000000E+01 0.  1.
        -11    1    1    2    0    0  0.42810127752E+02 -0.71761770079E+02  0.30401931240E+03  0.31529383279E+03  0.00000000000E+00 0. -1.
         11    1    1    2    0    0 -0.29103524788E+02  0.72697248846E+01  0.11143460717E+03  0.11540162793E+03  0.00000000000E+00 0.  1.
</event>
<event>
 7    1  0.3056346E-009  0.9367748E+02  0.7561462E-02  0.1294183E+00
         -1   -1    0    0    0  501 -0.00000000000E+00  0.00000000000E+00  0.18508367784E+02  0.18508367784E+02  0.00000000000E+00 0.  1.
          1   -1    0    0  501    0  0.00000000000E+00 -0.00000000000E+00 -0.99155865145E+03  0.99155865145E+03  0.00000000000E+00 0. -1.
         25    2    1    2    0    0 -0.63131782949E+02 -0.42159898147E+02 -0.51812433929E+03  0.53838933055E+03  0.12508861361E+03 0.  0.
          5    1    3    3  502    0 -0.22717752819E+02 -0.31295620474E+02 -0.48015617914E+03  0.48172911571E+03  0.41800000000E+01 0. -1.
         -5    1    3    3    0  502 -0.40414030129E+02 -0.10864277673E+02 -0.37968160150E+02  0.56660214841E+02  0.41800000000E+01 0. -1.
        -11    1    1    2    0    0  0.34210842051E+02  0.62357301310E+02 -0.40086402977E+03  0.40712502393E+03  0.00000000000E+00 0. -1.
         11    1    1    2    0    0  0.28920940898E+02 -0.20197403163E+02 -0.54061914594E+02  0.64552664751E+02  0.00000000000E+00 0.  1.
</event>
<event>
 7    1  0.3056346E-009  0.1152902E+03  0.7561462E-02  0.1251075E+00
          1   -1    0    0  501    0  0.00000000000E+00  0.00000000000E+00  0.28347368266E+03  0.28347368266E+03  0.00000000000E+00 0. -1.
         -1   -1    0    0    0  501 -0.00000000000E+00 -0.00000000000E+00 -0.52748702659E+02  0.52748702659E+02  0.00000000000E+00 0.  1.
         25    2    1    2    0    0 -0.54629419515E+02 -0.10828113307E+01  0.14816447274E+03  0.20145968540E+03  0.12509095850E+03 0.  0.
          5    1    3    3  502    0 -0.25081583371E+01  0.51288773913E+02  0.10189714411E+03  0.11418112613E+03  0.41800000000E+01 0.  1.
         -5    1    3    3    0  502 -0.52121261178E+02 -0.52371585244E+02  0.46267328633E+02  0.87278559261E+02  0.41800000000E+01 0.  1.
        -11    1    1    2    0    0  0.20112868126E+02 -0.43939255450E+02  0.26993458775E+02  0.55351896538E+02  0.00000000000E+00 0.  1.
         11    1    1    2    0    0  0.34516551389E+02  0.45022066781E+02  0.55567048481E+02  0.79410803383E+02  0.00000000000E+00 0. -1.
</event>
<event>
 7    1  0.3056346E-009  0.1103289E+03  0.7561462E-02  0.1259962E+00
         -1   -1    0    0    0  501 -0.00000000000E+00  0.00000000000E+00  0.11138141144E+03  0.11138141144E+03  0.00000000000E+00 0.  1.
          1   -1    0    0  501    0  0.00000000000E+00 -0.00000000000E+00 -0.20483277385E+03  0.20483277385E+03  0.00000000000E+00 0. -1.
         25    2    1    2    0    0 -0.68150111697E+02 -0.38418301224E+02 -0.12617076108E+03  0.19413314127E+03  0.12509281352E+03 0.  0.
          5    1    3    3  502    0 -0.87155257929E+02  0.98631084744E+01 -0.10755699677E+03  0.13884991843E+03  0.41800000000E+01 0.  1.
         -5    1    3    3    0  502  0.19005146232E+02 -0.48281409698E+02 -0.18613764308E+02  0.55283222839E+02  0.41800000000E+01 0.  1.
        -11    1    1    2    0    0  0.36999315657E+02  0.92996824426E+01 -0.28397522214E+02  0.47558939439E+02  0.00000000000E+00 0. -1.
         11    1    1    2    0    0  0.31150796039E+02  0.29118618781E+02  0.61116920877E+02  0.74522104581E+02  0.00000000000E+00 0.  1.
</event>
<event>
 7    1  0.3056346E-009  0.1105252E+03  0.7561462E-02  0.1259600E+00
         -2   -1    0    0    0  501 -0.00000000000E+00  0.00000000000E+00  0.16900974116E+02  0.16900974116E+02  0.00000000000E+00 0.  1.
          2   -1    0    0  501    0  0.00000000000E+00 -0.00000000000E+00 -0.92968192082E+03  0.92968192082E+03  0.00000000000E+00 0. -1.
         25    2    1    2    0    0  0.28904820290E+02 -0.76788741947E+02 -0.63543116224E+03  0.65280395127E+03  0.12509291474E+03 0.  0.
          5    1    3    3  502    0 -0.26616427070E+02 -0.78798023886E+02 -0.49075804808E+03  0.49777353979E+03  0.41800000000E+01 0.  1.
         -5    1    3    3    0  502  0.55521247361E+02  0.20092819388E+01 -0.14467311415E+03  0.15503041147E+03  0.41800000000E+01 0.  1.
        -11    1    1    2    0    0 -0.78445666092E+01  0.19244688837E+02 -0.18657859792E+02  0.27928677121E+02  0.00000000000E+00 0.  1.
         11    1    1    2    0    0 -0.21060253681E+02  0.57544053110E+02 -0.25869192468E+03  0.26585026655E+03  0.00000000000E+00 0. -1.
</event>
<event>
 7    1  0.3056346E-009  0.1610715E+03  0.7561462E-02  0.1187492E+00
          2   -1    0    0  501    0  0.00000000000E+00  0.00000000000E+00  0.94513798182E+03  0.94513798182E+03  0.00000000000E+00 0. -1.
         -2   -1    0    0    0  501 -0.00000000000E+00 -0.00000000000E+00 -0.43896887684E+02  0.43896887684E+02  0.00000000000E+00 0.  1.
         25    2    1    2    0    0  0.10456953390E+03 -0.10236088531E+03  0.72587862298E+03  0.75097282068E+03  0.12509142192E+03 0.  0.
          5    1    3    3  502    0  0.45837189110E+02 -0.10054525369E+03  0.62023056363E+03  0.63001096848E+03  0.41800000000E+01 0.  1.
         -5    1    3    3    0  502  0.58732344793E+02 -0.18156316185E+01  0.10564805935E+03  0.12096185220E+03  0.41800000000E+01 0.  1.
        -11    1    1    2    0    0 -0.35282930421E+02  0.64945954795E+02  0.12299821869E+03  0.14349712201E+03  0.00000000000E+00 0.  1.
         11    1    1    2    0    0 -0.69286603482E+02  0.37414930515E+02  0.52364252463E+02  0.94564926815E+02  0.00000000000E+00 0. -1.
</event>
<event>
 7    1  0.3056346E-009  0.8232971E+02  0.7561462E-02  0.1322567E+00
         -2   -1    0    0    0  501 -0.00000000000E+00  0.00000000000E+00  0.49871443119E+02  0.49871443119E+02  0.00000000000E+00 0.  1.
          2   -1    0    0  501    0  0.00000000000E+00 -0.00000000000E+00 -0.31738448209E+03  0.31738448209E+03  0.00000000000E+00 0. -1.
         25    2    1    2    0    0  0.10361419222E+02  0.51002581983E+02 -0.20276438035E+03  0.24386225267E+03  0.12508709750E+03 0.  0.
          5    1    3    3  502    0  0.21822302190E+01 -0.42909871860E+01 -0.18493314664E+03  0.18504301075E+03  0.41800000000E+01 0.  1.
         -5    1    3    3    0  502  0.81791890026E+01  0.55293569169E+02 -0.17831233704E+02  0.58819241916E+02  0.41800000000E+01 0.  1.
        -11    1    1    2    0    0 -0.26417752468E+02  0.17621242665E+02 -0.33932215394E+02  0.46473660067E+02  0.00000000000E+00 0. -1.
         11    1    1    2    0    0  0.16056333246E+02 -0.68623824647E+02 -0.30816443233E+02  0.76920012481E+02  0.00000000000E+00 0.  1.
</event>
<event>
 7    1  0.3056346E-009  0.1096657E+03  0.7561462E-02  0.1261190E+00
         -2   -1    0    0    0  501 -0.00000000000E+00  0.00000000000E+00  0.93165372229E+02  0.93165372229E+02  0.00000000000E+00 0.  1.
          2   -1    0    0  501    0  0.00000000000E+00 -0.00000000000E+00 -0.22241927678E+03  0.22241927678E+03  0.00000000000E+00 0. -1.
         25    2    1    2    0    0  0.30834462330E+02  0.30968792337E+02 -0.15969134753E+03  0.20750421840E+03  0.12508734553E+03 0.  0.
          5    1    3    3  502    0  0.31718765801E+02  0.73242721793E+02 -0.62598976495E+02  0.10152182355E+03  0.41800000000E+01 0.  1.
         -5    1    3    3    0  502 -0.88430347095E+00 -0.42273929457E+02 -0.97092371039E+02  0.10598239485E+03  0.41800000000E+01 0.  1.
        -11    1    1    2    0    0  0.24235213184E+02  0.12022421205E+02 -0.81686822217E+01  0.28259715832E+02  0.00000000000E+00 0.  1.
         11    1    1    2    0    0 -0.55069675514E+02 -0.42991213541E+02  0.38606125206E+02  0.79820714770E+02  0.00000000000E+00 0. -1.
</event>
<event>
 7    1  0.3056346E-009  0.2691047E+03  0.7561462E-02  0.1101793E+00
         -2   -1    0    0    0  501 -0.00000000000E+00  0.00000000000E+00  0.13166898033E+03  0.13166898033E+03  0.00000000000E+00 0.  1.
          2   -1    0    0  501    0  0.00000000000E+00 -0.00000000000E+00 -0.64239150847E+03  0.64239150847E+03  0.00000000000E+00 0. -1.
         25    2    1    2    0    0 -0.24010315585E+03  0.10916671695E+03 -0.34025346202E+03  0.44831580500E+03  0.12509094714E+03 0.  0.
          5    1    3    3  502    0  0.30809756859E+01  0.78632694251E+01 -0.70913434153E+02  0.71536780474E+02  0.41800000000E+01 0.  1.
         -5    1    3    3    0  502 -0.24318413154E+03  0.10130344752E+03 -0.26934002787E+03  0.37677902453E+03  0.41800000000E+01 0.  1.
        -11    1    1    2    0    0  0.11579727395E+03 -0.68412488189E+02 -0.38436989927E+02  0.13988094720E+03  0.00000000000E+00 0.  1.
         11    1    1    2    0    0  0.12430588190E+03 -0.40754228759E+02 -0.13203207619E+03  0.18586373659E+03  0.00000000000E+00 0. -1.
</event>
<event>
 7    1  0.3056346E-009  0.1639345E+03  0.7561462E-02  0.1184325E+00
          2   -1    0    0  501    0  0.00000000000E+00  0.00000000000E+00  0.15332659876E+04  0.15332659876E+04  0.00000000000E+00 0.  1.
         -2   -1    0    0    0  501 -0.00000000000E+00 -0.00000000000E+00 -0.23700439657E+02  0.23700439657E+02  0.00000000000E+00 0. -1.
         25    2    1    2    0    0 -0.13168308308E+03  0.62520109135E+02  0.10054420358E+04  0.10236261362E+04  0.12509029117E+03 0.  0.
          5    1    3    3  502    0 -0.11465456907E+03  0.26203334303E+02  0.93563682325E+03  0.94300902560E+03  0.41800000000E+01 0.  1.
         -5    1    3    3    0  502 -0.17028514009E+02  0.36316774832E+02  0.69805212578E+02  0.80617110632E+02  0.41800000000E+01 0.  1.
        -11    1    1    2    0    0  0.11141379067E+03 -0.80123638211E+01  0.38339078717E+03  0.39933159957E+03  0.00000000000E+00 0.  1.
         11    1    1    2    0    0  0.20269292409E+02 -0.54507745314E+02  0.12073272491E+03  0.13400869143E+03  0.00000000000E+00 0. -1.
</event>
<event>
 7    1  0.3298276E-009  0.1644127E+03  0.7561462E-02  0.1183803E+00
         -1   -1    0    0    0  501 -0.00000000000E+00  0.00000000000E+00  0.30237736560E+02  0.30237736560E+02  0.00000000000E+00 0.  1.
          1   -1    0    0  501    0  0.00000000000E+00 -0.00000000000E+00 -0.12603955516E+04  0.12603955516E+04  0.00000000000E+00 0. -1.
         25    2    1    2    0    0  0.10128767104E+03  0.81490146526E+02 -0.96496204088E+03  0.98168241727E+03  0.12509513078E+03 0.  0.
          5    1    3    3  502    0  0.42972177766E+02 -0.31130817555E+02 -0.31128907714E+03  0.31580705789E+03  0.41800000000E+01 0. -1.
         -5    1    3    3    0  502  0.58315493270E+02  0.11262096408E+03 -0.65367296374E+03  0.66587535938E+03  0.41800000000E+01 0. -1.
        -11    1    1    2    0    0 -0.52103322733E+02  0.16239873408E+01 -0.46397761853E+02  0.69786430484E+02  0.00000000000E+00 0.  1.
         11    1    1    2    0    0 -0.49184348303E+02 -0.83114133866E+02 -0.21879801228E+03  0.23916444038E+03  0.00000000000E+00 0. -1.
</event>
<event>
 7    1  0.3056346E-009  0.9715083E+02  0.7561462E-02  0.1286404E+00
          2   -1    0    0  501    0  0.00000000000E+00  0.00000000000E+00  0.44428659146E+03  0.44428659146E+03  0.00000000000E+00 0.  1.
         -2   -1    0    0    0  501 -0.00000000000E+00 -0.00000000000E+00 -0.38323194889E+02  0.38323194889E+02  0.00000000000E+00 0. -1.
         25    2    1    2    0    0  0.59101004257E+02  0.42150642215E+02  0.21181171918E+03  0.25647842301E+03  0.12508945498E+03 0.  0.
          5    1    3    3  502    0  0.74112322711E+02  0.19246747221E+02  0.21530814152E+03  0.22855664913E+03  0.41800000000E+01 0. -1.
         -5    1    3    3    0  502 -0.15011318454E+02  0.22903894993E+02 -0.34964223420E+01  0.27921773883E+02  0.41800000000E+01 0. -1.
        -11    1    1    2    0    0 -0.59550635709E+02 -0.52600771166E+02  0.19924063593E+03  0.21449930150E+03  0.00000000000E+00 0.  1.
         11    1    1    2    0    0  0.44963145227E+00  0.10450128951E+02 -0.50889585342E+01  0.11632061834E+02  0.00000000000E+00 0. -1.
</event>
<event>
 7    1  0.3056346E-009  0.9278816E+02  0.7561462E-02  0.1296237E+00
         -3   -1    0    0    0  501 -0.00000000000E+00  0.00000000000E+00  0.13657660143E+03  0.13657660143E+03  0.00000000000E+00 0.  1.
          3   -1    0    0  501    0  0.00000000000E+00 -0.00000000000E+00 -0.12121743846E+03  0.12121743846E+03  0.00000000000E+00 0. -1.
         25    2    1    2    0    0  0.57902964877E+02 -0.17219670727E+01  0.47271032000E+02  0.14572686015E+03  0.12508416682E+03 0.  0.
          5    1    3    3  502    0  0.78974903112E+01 -0.25124479351E+02 -0.36565816608E+02  0.45256393582E+02  0.41800000000E+01 0.  1.
         -5    1    3    3    0  502  0.50005474566E+02  0.23402512279E+02  0.83836848607E+02  0.10047046657E+03  0.41800000000E+01 0.  1.
        -11    1    1    2    0    0 -0.72595356331E+02  0.24342793589E+02 -0.98075382745E+01  0.77193556516E+02  0.00000000000E+00 0.  1.
         11    1    1    2    0    0  0.14692391454E+02 -0.22620826517E+02 -0.22104330753E+02  0.34873623227E+02  0.00000000000E+00 0. -1.
</event>
<event>
 7    1  0.3056346E-009  0.1257560E+03  0.7561462E-02  0.1233892E+00
          1   -1    0    0  501    0  0.00000000000E+00  0.00000000000E+00  0.42881946482E+03  0.42881946482E+03  0.00000000000E+00 0. -1.
         -1   -1    0    0    0  501 -0.00000000000E+00 -0.00000000000E+00 -0.50597559228E+02  0.50597559228E+02  0.00000000000E+00 0.  1.
         25    2    1    2    0    0 -0.85447357821E+02 -0.48385290901E+02  0.22886968313E+03  0.27869171181E+03  0.12508137769E+03 0.  0.
          5    1    3    3  502    0 -0.10288069531E+03 -0.22114653145E+02  0.97467314998E+02  0.14349510529E+03  0.41800000000E+01 0.  1.
         -5    1    3    3    0  502  0.17433337485E+02 -0.26270637756E+02  0.13140236813E+03  0.13519660652E+03  0.41800000000E+01 0.  1.
        -11    1    1    2    0    0  0.60504052740E+02  0.61935741861E+00  0.25505406805E+02  0.65663153883E+02  0.00000000000E+00 0.  1.
         11    1    1    2    0    0  0.24943305080E+02  0.47765933483E+02  0.12384681565E+03  0.13506215835E+03  0.00000000000E+00 0. -1.
</event>
<event>
 7    1  0.4228496E-009  0.1538314E+03  0.7561462E-02  0.1195842E+00
         -2   -1    0    0    0  501 -0.00000000000E+00  0.00000000000E+00  0.18101272041E+02  0.18101272041E+02  0.00000000000E+00 0.  1.
          2   -1    0    0  501    0  0.00000000000E+00 -0.00000000000E+00 -0.16311888782E+04  0.16311888782E+04  0.00000000000E+00 0. -1.
         25    2    1    2    0    0  0.35260421904E+02 -0.12412225221E+03 -0.10043946422E+04  0.10203460379E+04  0.12509120249E+03 0.  0.
          5    1    3    3  502    0 -0.18570403160E+02 -0.40596591751E+01 -0.45437138827E+03  0.45478805128E+03  0.41800000000E+01 0.  1.
         -5    1    3    3    0  502  0.53830825064E+02 -0.12006259304E+03 -0.55002325394E+03  0.56555798663E+03  0.41800000000E+01 0.  1.
        -11    1    1    2    0    0 -0.50060434000E+02  0.24308497754E+02 -0.26311837488E+03  0.26893908105E+03  0.00000000000E+00 0.  1.
         11    1    1    2    0    0  0.14800012096E+02  0.99813754457E+02 -0.34557458908E+03  0.36000503129E+03  0.00000000000E+00 0. -1.
</event>
<event>
 7    1  0.3056346E-009  0.4858602E+03  0.7561462E-02  0.1017537E+00
          2   -1    0    0  501    0  0.00000000000E+00  0.00000000000E+00  0.14161732457E+04  0.14161732457E+04  0.00000000000E+00 0. -1.
         -2   -1    0    0    0  501 -0.00000000000E+00 -0.00000000000E+00 -0.17927518720E+03  0.17927518720E+03  0.00000000000E+00 0.  1.
         25    2    1    2    0    0  0.33910278858E+03  0.34078088052E+03  0.45961196893E+03  0.67676653955E+03  0.12508987700E+03 0.  0.
          5    1    3    3  502    0  0.23572350430E+03  0.25829835856E+03  0.25386332796E+03  0.43214311772E+03  0.41800000000E+01 0.  1.
         -5    1    3    3    0  502  0.10337928428E+03  0.82482521961E+02  0.20574864098E+03  0.24462342184E+03  0.41800000000E+01 0.  1.
        -11    1    1    2    0    0 -0.37286313804E+02 -0.89507771700E+02  0.15627721841E+03  0.18391432621E+03  0.00000000000E+00 0. -1.
         11    1    1    2    0    0 -0.30181647478E+03 -0.25127310882E+03  0.62100887117E+03  0.73476756715E+03  0.00000000000E+00 0.  1.
</event>
<event>
 7    1  0.3056346E-009  0.9258390E+02  0.7561462E-02  0.1296712E+00
         -2   -1    0    0    0  501 -0.00000000000E+00  0.00000000000E+00  0.29599513835E+02  0.29599513835E+02  0.00000000000E+00 0.  1.
          2   -1    0    0  501    0  0.00000000000E+00 -0.00000000000E+00 -0.47029697265E+03  0.47029697265E+03  0.00000000000E+00 0. -1.
         25    2    1    2    0    0  0.11410729914E+02  0.40400966391E+02 -0.29544684020E+03  0.32357261001E+03  0.12509178918E+03 0.  0.
          5    1    3    3  502    0  0.31869037473E+02 -0.16075983507E+02 -0.19014451028E+02  0.40658265372E+02  0.41800000000E+01 0.  1.
         -5    1    3    3    0  502 -0.20458307558E+02  0.56476949898E+02 -0.27643238918E+03  0.28291434464E+03  0.41800000000E+01 0.  1.
        -11    1    1    2    0    0 -0.44597743146E+02 -0.14426482780E+02 -0.35618565571E+02  0.58870742414E+02  0.00000000000E+00 0.  1.
         11    1    1    2    0    0  0.33187013232E+02 -0.25974483611E+02 -0.10963205304E+03  0.11745313406E+03  0.00000000000E+00 0. -1.
</event>
<event>
 7    1  0.3056346E-009  0.1037893E+03  0.7561462E-02  0.1272524E+00
          4   -1    0    0  501    0  0.00000000000E+00  0.00000000000E+00  0.56675179335E+03  0.56675179335E+03  0.00000000000E+00 0. -1.
         -4   -1    0    0    0  501 -0.00000000000E+00 -0.00000000000E+00 -0.73403383885E+02  0.73403383885E+02  0.00000000000E+00 0.  1.
         25    2    1    2    0    0 -0.51231391836E+02  0.40749477509E+02  0.50725971175E+03  0.52654712032E+03  0.12511706248E+03 0.  0.
          5    1    3    3  502    0 -0.75813746629E+02 -0.17113531022E+02  0.26134140757E+03  0.27268553469E+03  0.41800000000E+01 0.  1.
         -5    1    3    3    0  502  0.24582354794E+02  0.57863008531E+02  0.24591830419E+03  0.25386158563E+03  0.41800000000E+01 0.  1.
        -11    1    1    2    0    0  0.37452003921E+02 -0.21887374922E+02  0.37370876682E+02  0.57256372595E+02  0.00000000000E+00 0. -1.
         11    1    1    2    0    0  0.13779387914E+02 -0.18862102587E+02 -0.51282178972E+02  0.56351684317E+02  0.00000000000E+00 0.  1.
</event>
<event>
 7    1  0.3056346E-009  0.9685633E+02  0.7561462E-02  0.1287049E+00
          2   -1    0    0  501    0  0.00000000000E+00  0.00000000000E+00  0.66001078818E+03  0.66001078818E+03  0.00000000000E+00 0. -1.
         -2   -1    0    0    0  501 -0.00000000000E+00 -0.00000000000E+00 -0.22386708734E+02  0.22386708734E+02  0.00000000000E+00 0.  1.
         25    2    1    2    0    0 -0.19900100742E+01 -0.45990914040E+02  0.43783096934E+03  0.45766102124E+03  0.12505410164E+03 0.  0.
          5    1    3    3  502    0  0.55413401923E+02  0.57358536810E+01  0.18112769166E+03  0.18954750913E+03  0.41800000000E+01 0. -1.
         -5    1    3    3    0  502 -0.57403411997E+02 -0.51726767721E+02  0.25670327768E+03  0.26811351211E+03  0.41800000000E+01 0. -1.
        -11    1    1    2    0    0 -0.17084717498E+02  0.33664606600E+02  0.19842511505E+03  0.20198445384E+03  0.00000000000E+00 0. -1.
         11    1    1    2    0    0  0.19074727572E+02  0.12326307441E+02  0.13679950580E+01  0.22752021834E+02  0.00000000000E+00 0.  1.
</event>
<event>
 7    1  0.3056346E-009  0.7301448E+02  0.7561462E-02  0.1350132E+00
         -2   -1    0    0    0  501 -0.00000000000E+00  0.00000000000E+00  0.37743742482E+02  0.37743742482E+02  0.00000000000E+00 0.  1.
          2   -1    0    0  501    0  0.00000000000E+00 -0.00000000000E+00 -0.48164837848E+03  0.48164837848E+03  0.00000000000E+00 0. -1.
         25    2    1    2    0    0 -0.33647377137E+01  0.37110649662E+02 -0.37990936572E+03  0.40170464739E+03  0.12508787228E+03 0.  0.
          5    1    3    3  502    0 -0.24831253157E+02  0.49474198564E+02 -0.63685158476E+02  0.84484077003E+02  0.41800000000E+01 0. -1.
         -5    1    3    3    0  502  0.21466515444E+02 -0.12363548902E+02 -0.31622420724E+03  0.31722057038E+03  0.41800000000E+01 0. -1.
        -11    1    1    2    0    0 -0.23319325242E+02 -0.53769578654E+01  0.15161284901E+02  0.28329616402E+02  0.00000000000E+00 0.  1.
         11    1    1    2    0    0  0.26684062955E+02 -0.31733691797E+02 -0.79156555176E+02  0.89357857171E+02  0.00000000000E+00 0. -1.
</event>
<event>
 7    1  0.3781906E-009  0.1511140E+03  0.7561462E-02  0.1199111E+00
         -1   -1    0    0    0  501 -0.00000000000E+00  0.00000000000E+00  0.20402448067E+02  0.20402448067E+02  0.00000000000E+00 0.  1.
          1   -1    0    0  501    0  0.00000000000E+00 -0.00000000000E+00 -0.12128950959E+04  0.12128950959E+04  0.00000000000E+00 0. -1.
         25    2    1    2    0    0 -0.32411230202E+02 -0.10807907876E+03 -0.70264353505E+03  0.72255486530E+03  0.12508405537E+03 0.  0.
          5    1    3    3  502    0 -0.69849964785E+02 -0.26035608158E+02 -0.39254434748E+03  0.39958154063E+03  0.41800000000E+01 0. -1.
         -5    1    3    3    0  502  0.37438734583E+02 -0.82043470604E+02 -0.31009918757E+03  0.32297332467E+03  0.41800000000E+01 0. -1.
        -11    1    1    2    0    0  0.50972769552E+02  0.34861296486E+02 -0.14300163965E+03  0.15576585688E+03  0.00000000000E+00 0.  1.
         11    1    1    2    0    0 -0.18561539350E+02  0.73217782277E+02 -0.34684747309E+03  0.35497682174E+03  0.00000000000E+00 0. -1.
</event>
<event>
 7    1  0.3056346E-009  0.2518997E+03  0.7561462E-02  0.1112110E+00
          2   -1    0    0  501    0  0.00000000000E+00  0.00000000000E+00  0.67133912279E+03  0.67133912279E+03  0.00000000000E+00 0. -1.
         -2   -1    0    0    0  501 -0.00000000000E+00 -0.00000000000E+00 -0.11657333945E+03  0.11657333945E+03  0.00000000000E+00 0.  1.
         25    2    1    2    0    0 -0.49394184811E+02 -0.24155260300E+03  0.38914128209E+03  0.47735280724E+03  0.12508924672E+03 0.  0.
          5    1    3    3  502    0 -0.12626022568E+01 -0.10158369015E+02 -0.90462635242E+01  0.14286143960E+02  0.41800000000E+01 0. -1.
         -5    1    3    3    0  502 -0.48131582554E+02 -0.23139423399E+03  0.39818754561E+03  0.46306666328E+03  0.41800000000E+01 0. -1.
        -11    1    1    2    0    0 -0.11534134846E+02  0.11837581920E+03  0.11097705922E+03  0.16267076723E+03  0.00000000000E+00 0.  1.
         11    1    1    2    0    0  0.60928319657E+02  0.12317678381E+03  0.54647442021E+02  0.14788888777E+03  0.00000000000E+00 0. -1.
</event>
<event>
 7    1  0.3056346E-009  0.1305118E+03  0.7561462E-02  0.1226698E+00
          1   -1    0    0  501    0  0.00000000000E+00  0.00000000000E+00  0.88160786554E+02  0.88160786554E+02  0.00000000000E+00 0. -1.
         -1   -1    0    0    0  501 -0.00000000000E+00 -0.00000000000E+00 -0.31222056887E+03  0.31222056887E+03  0.00000000000E+00 0.  1.
         25    2    1    2    0    0  0.12139586703E+03 -0.40183772168E+01 -0.15229849082E+03  0.23150499796E+03  0.12508648962E+03 0.  0.
          5    1    3    3  502    0  0.13461885136E+02 -0.10000201986E+02 -0.11617391706E+03  0.11745244909E+03  0.41800000000E+01 0. -1.
         -5    1    3    3    0  502  0.10793398189E+03  0.59818247696E+01 -0.36124573760E+02  0.11405254887E+03  0.41800000000E+01 0. -1.
        -11    1    1    2    0    0 -0.25546698646E+02 -0.24665796748E+02 -0.57828862708E+02  0.67861717507E+02  0.00000000000E+00 0.  1.
         11    1    1    2    0    0 -0.95849168379E+02  0.28684173964E+02 -0.13932428791E+02  0.10101463996E+03  0.00000000000E+00 0. -1.
</event>
<event>
 7    1  0.3056346E-009  0.1579644E+03  0.7561462E-02  0.1191014E+00
         -1   -1    0    0    0  501 -0.00000000000E+00  0.00000000000E+00  0.32252797804E+03  0.32252797804E+03  0.00000000000E+00 0.  1.
          1   -1    0    0  501    0  0.00000000000E+00 -0.00000000000E+00 -0.82956697471E+02  0.82956697471E+02  0.00000000000E+00 0. -1.
         25    2    1    2    0    0 -0.11343868771E+03  0.13451892357E+02  0.78876106670E+02  0.18686648545E+03  0.12509338073E+03 0.  0.
          5    1    3    3  502    0 -0.13508169297E+03  0.33062764527E+02  0.71619414970E+02  0.15648329999E+03  0.41800000000E+01 0. -1.
         -5    1    3    3    0  502  0.21643005265E+02 -0.19610872170E+02  0.72566916998E+01  0.30383185458E+02  0.41800000000E+01 0. -1.
        -11    1    1    2    0    0  0.48301190058E+02  0.40249509957E+02  0.80856457865E+02  0.10242458099E+03  0.00000000000E+00 0.  1.
         11    1    1    2    0    0  0.65137497652E+02 -0.53701402314E+02  0.79838716029E+02  0.11619360907E+03  0.00000000000E+00 0. -1.
</event>
<event>
 7    1  0.3056346E-009  0.1327816E+03  0.7561462E-02  0.1223386E+00
         -3   -1    0    0    0  501 -0.00000000000E+00  0.00000000000E+00  0.45583452539E+02  0.45583452539E+02  0.00000000000E+00 0.  1.
          3   -1    0    0  501    0  0.00000000000E+00 -0.00000000000E+00 -0.52603035051E+03  0.52603035051E+03  0.00000000000E+00 0. -1.
         25    2    1    2    0    0  0.28675857487E+02  0.55646957590E+02 -0.10448296540E+03  0.17459650712E+03  0.12509341129E+03 0.  0.
          5    1    3    3  502    0 -0.21864886580E+02 -0.31786641079E+02 -0.29029319450E+02  0.48462744495E+02  0.41800000000E+01 0.  1.
         -5    1    3    3    0  502  0.50540744068E+02  0.87433598668E+02 -0.75453645949E+02  0.12613376263E+03  0.41800000000E+01 0.  1.
        -11    1    1    2    0    0 -0.61337626720E+02 -0.21117240976E+00 -0.14959662202E+03  0.16168332742E+03  0.00000000000E+00 0. -1.
         11    1    1    2    0    0  0.32661769232E+02 -0.55435785180E+02 -0.22636731056E+03  0.23533396851E+03  0.00000000000E+00 0.  1.
</event>
<event>
 7    1  0.3056346E-009  0.1293631E+03  0.7561462E-02  0.1228404E+00
          2   -1    0    0  501    0  0.00000000000E+00  0.00000000000E+00  0.59791144497E+02  0.59791144497E+02  0.00000000000E+00 0. -1.
         -2   -1    0    0    0  501 -0.00000000000E+00 -0.00000000000E+00 -0.39172517952E+03  0.39172517952E+03  0.00000000000E+00 0.  1.
         25    2    1    2    0    0 -0.95141239217E+02 -0.37829332318E+02 -0.22811175698E+03  0.27957974715E+03  0.12508775942E+03 0.  0.
          5    1    3    3  502    0 -0.37264863204E+02 -0.72119148826E+02 -0.17770884263E+03  0.19541685394E+03  0.41800000000E+01 0. -1.
         -5    1    3    3    0  502 -0.57876376013E+02  0.34289816508E+02 -0.50402914358E+02  0.84162893203E+02  0.41800000000E+01 0. -1.
        -11    1    1    2    0    0  0.46272031479E+02  0.39939119859E+02 -0.45819950021E+01  0.61296238632E+02  0.00000000000E+00 0. -1.
         11    1    1    2    0    0  0.48869207738E+02 -0.21097875404E+01 -0.99240283038E+02  0.11064033824E+03  0.00000000000E+00 0.  1.
</event>
<event>
 7    1  0.3056346E-009  0.8889012E+02  0.7561462E-02  0.1305562E+00
          2   -1    0    0  501    0  0.00000000000E+00  0.00000000000E+00  0.64267944917E+03  0.64267944917E+03  0.00000000000E+00 0. -1.
         -2   -1    0    0    0  501 -0.00000000000E+00 -0.00000000000E+00 -0.19027751251E+02  0.19027751251E+02  0.00000000000E+00 0.  1.
         25    2    1    2    0    0  0.20940517417E+02  0.24413048223E+00  0.35492479201E+03  0.37690506901E+03  0.12508900108E+03 0.  0.
          5    1    3    3  502    0 -0.90960052581E+01  0.40919674158E+02  0.40581137499E+02  0.58493231793E+02  0.41800000000E+01 0.  1.
         -5    1    3    3    0  502  0.30036522675E+02 -0.40675543676E+02  0.31434365451E+03  0.31841183722E+03  0.41800000000E+01 0.  1.
        -11    1    1    2    0    0 -0.48486703125E+02  0.18174479792E+02  0.21905354821E+03  0.22509049086E+03  0.00000000000E+00 0. -1.
         11    1    1    2    0    0  0.27546185708E+02 -0.18418610274E+02  0.49673357706E+02  0.59711640551E+02  0.00000000000E+00 0.  1.
</event>
<event>
 7    1  0.3056346E-009  0.1178833E+03  0.7561462E-02  0.1246630E+00
          2   -1    0    0  501    0  0.00000000000E+00  0.00000000000E+00  0.59347938375E+03  0.59347938375E+03  0.00000000000E+00 0. -1.
         -2   -1    0    0    0  501 -0.00000000000E+00 -0.00000000000E+00 -0.39334103796E+02  0.39334103796E+02  0.00000000000E+00 0.  1.
         25    2    1    2    0    0  0.40171489417E+02 -0.88201767624E+02  0.39393757551E+03  0.42453271114E+03  0.12509160264E+03 0.  0.
          5    1    3    3  502    0  0.33229144212E+02 -0.62969069751E+01  0.28980230662E+03  0.29179903424E+03  0.41800000000E+01 0. -1.
         -5    1    3    3    0  502  0.69423452046E+01 -0.81904860649E+02  0.10413526889E+03  0.13273367690E+03  0.41800000000E+01 0. -1.
        -11    1    1    2    0    0  0.18713099170E+02  0.36523539721E+02  0.10415520712E+03  0.11194845334E+03  0.00000000000E+00 0.  1.
         11    1    1    2    0    0 -0.58884588587E+02  0.51678227903E+02  0.56052497320E+02  0.96332323070E+02  0.00000000000E+00 0. -1.
</event>
<event>
 7    1  0.3056346E-009  0.1047494E+03  0.7561462E-02  0.1270614E+00
          1   -1    0    0  501    0  0.00000000000E+00  0.00000000000E+00  0.36647837790E+03  0.36647837790E+03  0.00000000000E+00 0. -1.
         -1   -1    0    0    0  501 -0.00000000000E+00 -0.00000000000E+00 -0.56055038138E+02  0.56055038138E+02  0.00000000000E+00 0.  1.
         25    2    1    2    0    0  0.72296397182E+02 -0.23708140374E+02  0.25140189033E+03  0.29092742127E+03  0.12508800511E+03 0.  0.
          5    1    3    3  502    0 -0.55786830786E+01 -0.27264976184E+02  0.48492741796E+00  0.28146193096E+02  0.41800000000E+01 0.  1.
         -5    1    3    3    0  502  0.77875080260E+02  0.35568358096E+01  0.25091696291E+03  0.26278122818E+03  0.41800000000E+01 0.  1.
        -11    1    1    2    0    0 -0.61536088977E+02 -0.14812093822E+02  0.65506295491E+02  0.91088765053E+02  0.00000000000E+00 0. -1.
         11    1    1    2    0    0 -0.10760308204E+02  0.38520234196E+02 -0.64848460554E+01  0.40517229712E+02  0.00000000000E+00 0.  1.
</event>
<event>
 7    1  0.3056346E-009  0.5989381E+02  0.7561462E-02  0.1398278E+00
          2   -1    0    0  501    0  0.00000000000E+00  0.00000000000E+00  0.59401343013E+02  0.59401343013E+02  0.00000000000E+00 0. -1.
         -2   -1    0    0    0  501 -0.00000000000E+00 -0.00000000000E+00 -0.28689004647E+03  0.28689004647E+03  0.00000000000E+00 0.  1.
         25    2    1    2    0    0  0.92748268303E+01  0.43567941776E+02 -0.58046461232E+02  0.14492059164E+03  0.12509355801E+03 0.  0.
          5    1    3    3  502    0 -0.84446387534E+01  0.40170596349E+02  0.32485035366E+02  0.52514175776E+02  0.41800000000E+01 0.  1.
         -5    1    3    3    0  502  0.17719465584E+02  0.33973454274E+01 -0.90531496598E+02  0.92406415864E+02  0.41800000000E+01 0.  1.
        -11    1    1    2    0    0  0.12617715380E+02 -0.33715627462E+02 -0.17334913253E+03  0.17704765467E+03  0.00000000000E+00 0.  1.
         11    1    1    2    0    0 -0.21892542211E+02 -0.98523143139E+01  0.39068903046E+01  0.24323143169E+02  0.00000000000E+00 0. -1.
</event>
<event>
 7    1  0.3056346E-009  0.7861317E+02  0.7561462E-02  0.1333034E+00
          1   -1    0    0  501    0  0.00000000000E+00  0.00000000000E+00  0.90542441964E+02  0.90542441964E+02  0.00000000000E+00 0. -1.
         -1   -1    0    0    0  501 -0.00000000000E+00 -0.00000000000E+00 -0.15257635169E+03  0.15257635169E+03  0.00000000000E+00 0.  1.
         25    2    1    2    0    0  0.38861740568E+02 -0.23175662792E+02 -0.34641752713E+02  0.13745881610E+03  0.12509008301E+03 0.  0.
          5    1    3    3  502    0  0.94963695017E+01  0.11962880713E+02 -0.74769537276E+02  0.76428055406E+02  0.41800000000E+01 0.  1.
         -5    1    3    3    0  502  0.29365371066E+02 -0.35138543505E+02  0.40127784563E+02  0.61030760698E+02  0.41800000000E+01 0.  1.
        -11    1    1    2    0    0  0.20118708147E+02 -0.15047884983E+02 -0.24840251091E+02  0.35330430711E+02  0.00000000000E+00 0.  1.
         11    1    1    2    0    0 -0.58980448714E+02  0.38223547775E+02 -0.25519059232E+01  0.70329546841E+02  0.00000000000E+00 0. -1.
</event>
<event>
 7    1  0.3056346E-009  0.7692220E+02  0.7561462E-02  0.1338020E+00
         -2   -1    0    0    0  501 -0.00000000000E+00  0.00000000000E+00  0.30621941864E+02  0.30621941864E+02  0.00000000000E+00 0.  1.
          2   -1    0    0  501    0  0.00000000000E+00 -0.00000000000E+00 -0.59191009671E+03  0.59191009671E+03  0.00000000000E+00 0. -1.
         25    2    1    2    0    0 -0.28382887341E+02 -0.36175113622E+02 -0.43345800384E+03  0.45348336197E+03  0.12508833418E+03 0.  0.
          5    1    3    3  502    0  0.76459811406E+01 -0.12727423175E+02  0.22956478712E+01  0.15594573653E+02  0.41800000000E+01 0. -1.
         -5    1    3    3    0  502 -0.36028868482E+02 -0.23447690447E+02 -0.43575365171E+03  0.43788878831E+03  0.41800000000E+01 0. -1.
        -11    1    1    2    0    0  0.17332767416E+01 -0.26795995426E+02 -0.83122550990E+02  0.87352092718E+02  0.00000000000E+00 0. -1.
         11    1    1    2    0    0  0.26649610599E+02  0.62971109047E+02 -0.44707600015E+02  0.81696583887E+02  0.00000000000E+00 0.  1.
</event>
<event>
 7    1  0.3056346E-009  0.8801877E+02  0.7561462E-02  0.1307722E+00
         -2   -1    0    0    0  501 -0.00000000000E+00  0.00000000000E+00  0.22998957026E+03  0.22998957026E+03  0.00000000000E+00 0.  1.
          2   -1    0    0  501    0  0.00000000000E+00 -0.00000000000E+00 -0.52482971144E+02  0.52482971144E+02  0.00000000000E+00 0. -1.
         25    2    1    2    0    0 -0.53923186296E+01 -0.85597290316E+01  0.12712822436E+03  0.17863642389E+03  0.12508813072E+03 0.  0.
          5    1    3    3  502    0  0.27166017862E+02  0.30542060774E+02 -0.58920910583E+00  0.41092938204E+02  0.41800000000E+01 0. -1.
         -5    1    3    3    0  502 -0.32558336492E+02 -0.39101789806E+02  0.12771743347E+03  0.13754348568E+03  0.41800000000E+01 0. -1.
        -11    1    1    2    0    0  0.44399937140E+02  0.60034219419E+01  0.46467968331E+02  0.64549729464E+02  0.00000000000E+00 0.  1.
         11    1    1    2    0    0 -0.39007618510E+02  0.25563070898E+01  0.39104064169E+01  0.39286388052E+02  0.00000000000E+00 0. -1.
</event>
<event>
 7    1  0.3056346E-009  0.1270042E+03  0.7561462E-02  0.1231970E+00
          1   -1    0    0  501    0  0.00000000000E+00  0.00000000000E+00  0.19539659177E+03  0.19539659177E+03  0.00000000000E+00 0. -1.
         -1   -1    0    0    0  501 -0.00000000000E+00 -0.00000000000E+00 -0.11048009688E+03  0.11048009688E+03  0.00000000000E+00 0.  1.
         25    2    1    2    0    0 -0.19270983934E+02  0.67049852598E+02 -0.26455483297E+02  0.14566847090E+03  0.12510938120E+03 0.  0.
          5    1    3    3  502    0  0.53153176466E+02  0.22742774763E+02 -0.62995676668E+01  0.58306525579E+02  0.41800000000E+01 0.  1.
         -5    1    3    3    0  502 -0.72424160400E+02  0.44307077835E+02 -0.20155915630E+02  0.87361945324E+02  0.41800000000E+01 0.  1.
        -11    1    1    2    0    0 -0.34176107917E+02 -0.18652645454E+02  0.19871805495E+02  0.43712883551E+02  0.00000000000E+00 0.  1.
         11    1    1    2    0    0  0.53447091851E+02 -0.48397207144E+02  0.91500172687E+02  0.11649533419E+03  0.00000000000E+00 0. -1.
</event>
<event>
 7    1  0.3056346E-009  0.8764591E+02  0.7561462E-02  0.1308655E+00
         -2   -1    0    0    0  501 -0.00000000000E+00  0.00000000000E+00  0.32947749460E+02  0.32947749460E+02  0.00000000000E+00 0.  1.
          2   -1    0    0  501    0  0.00000000000E+00 -0.00000000000E+00 -0.38989634820E+03  0.38989634820E+03  0.00000000000E+00 0. -1.
         25    2    1    2    0    0 -0.27528396283E+02  0.20482000831E+02 -0.21032629532E+03  0.24711431592E+03  0.12510399541E+03 0.  0.
          5    1    3    3  502    0 -0.22924540756E+02 -0.39184213955E+02 -0.24314154067E+02  0.51668052800E+02  0.41800000000E+01 0.  1.
         -5    1    3    3    0  502 -0.46038555261E+01  0.59666214786E+02 -0.18601214126E+03  0.19544626312E+03  0.41800000000E+01 0.  1.
        -11    1    1    2    0    0 -0.16040033703E+02 -0.20645416889E+02 -0.12382925933E+03  0.12655908259E+03  0.00000000000E+00 0. -1.
         11    1    1    2    0    0  0.43568429985E+02  0.16341605860E+00 -0.22793044084E+02  0.49170699149E+02  0.00000000000E+00 0.  1.
</event>
<event>
 7    1  0.3056346E-009  0.1056960E+03  0.7561462E-02  0.1268754E+00
          1   -1    0    0  501    0  0.00000000000E+00  0.00000000000E+00  0.15184538236E+03  0.15184538236E+03  0.00000000000E+00 0. -1.
         -1   -1    0    0    0  501 -0.00000000000E+00 -0.00000000000E+00 -0.81371962655E+02  0.81371962655E+02  0.00000000000E+00 0.  1.
         25    2    1    2    0    0 -0.65463349872E+01  0.15446694288E+02  0.62809979739E+02  0.14102726857E+03  0.12514848005E+03 0.  0.
          5    1    3    3  502    0  0.58420940716E+02  0.75870794980E+01  0.41097772557E+02  0.71951854726E+02  0.41800000000E+01 0.  1.
         -5    1    3    3    0  502 -0.64967275703E+02  0.78596147904E+01  0.21712207182E+02  0.69075413843E+02  0.41800000000E+01 0.  1.
        -11    1    1    2    0    0  0.42596783697E+02 -0.25094308492E+02  0.19339714377E+02  0.53087049760E+02  0.00000000000E+00 0. -1.
         11    1    1    2    0    0 -0.36050448710E+02  0.96476142038E+01 -0.11676274410E+02  0.39103026687E+02  0.00000000000E+00 0.  1.
</event>
<event>
 7    1  0.3056346E-009  0.9681267E+02  0.7561462E-02  0.1287145E+00
          2   -1    0    0  501    0  0.00000000000E+00  0.00000000000E+00  0.49897424778E+03  0.49897424778E+03  0.00000000000E+00 0. -1.
         -2   -1    0    0    0  501 -0.00000000000E+00 -0.00000000000E+00 -0.31549926513E+02  0.31549926513E+02  0.00000000000E+00 0.  1.
         25    2    1    2    0    0 -0.60255053229E+02  0.45286725610E+01  0.22598491826E+03  0.26526213958E+03  0.12507453419E+03 0.  0.
          5    1    3    3  502    0 -0.19911446990E+02  0.37576468173E+02  0.11168409179E+02  0.44166304410E+02  0.41800000000E+01 0. -1.
         -5    1    3    3    0  502 -0.40343606239E+02 -0.33047795612E+02  0.21481650908E+03  0.22109583517E+03  0.41800000000E+01 0. -1.
        -11    1    1    2    0    0 -0.18907948735E+02  0.26293267764E+01  0.12254425709E+02  0.22684682808E+02  0.00000000000E+00 0.  1.
         11    1    1    2    0    0  0.79163001964E+02 -0.71579993374E+01  0.22918497730E+03  0.24257735190E+03  0.00000000000E+00 0. -1.
</event>
<event>
 7    1  0.3056346E-009  0.7905740E+02  0.7561462E-02  0.1331748E+00
          2   -1    0    0  501    0  0.00000000000E+00  0.00000000000E+00  0.54503003729E+03  0.54503003729E+03  0.00000000000E+00 0. -1.
         -2   -1    0    0    0  501 -0.00000000000E+00 -0.00000000000E+00 -0.46983261932E+02  0.46983261932E+02  0.00000000000E+00 0.  1.
         25    2    1    2    0    0  0.22278900852E+02 -0.47628861817E+02  0.72634048334E+02  0.15390977491E+03  0.12509059092E+03 0.  0.
          5    1    3    3  502    0  0.76520337903E+01 -0.12961089844E+02  0.10374109683E+03  0.10491058594E+03  0.41800000000E+01 0.  1.
         -5    1    3    3    0  502  0.14626867061E+02 -0.34667771972E+02 -0.31107048499E+02  0.48999188971E+02  0.41800000000E+01 0.  1.
        -11    1    1    2    0    0  0.35423354176E+02  0.16615113574E+02  0.15266343091E+03  0.15759758614E+03  0.00000000000E+00 0.  1.
         11    1    1    2    0    0 -0.57702255028E+02  0.31013748243E+02  0.27274929612E+03  0.28050593817E+03  0.00000000000E+00 0. -1.
</event>
<event>
 7    1  0.3056346E-009  0.9208842E+02  0.7561462E-02  0.1297872E+00
         -2   -1    0    0    0  501 -0.00000000000E+00  0.00000000000E+00  0.85028034987E+02  0.85028034987E+02  0.00000000000E+00 0.  1.
          2   -1    0    0  501    0  0.00000000000E+00 -0.00000000000E+00 -0.22246971635E+03  0.22246971635E+03  0.00000000000E+00 0. -1.
         25    2    1    2    0    0 -0.11805921910E+02 -0.53753773885E+02 -0.14735797605E+03  0.20095766495E+03  0.12506303210E+03 0.  0.
          5    1    3    3  502    0 -0.16175911230E+02 -0.82216008216E+02 -0.14986722000E+03  0.17175211248E+03  0.41800000000E+01 0. -1.
         -5    1    3    3    0  502  0.43699893193E+01  0.28462234331E+02  0.25092439518E+01  0.29205552468E+02  0.41800000000E+01 0. -1.
        -11    1    1    2    0    0  0.28775188471E+02  0.26740378297E+02  0.44589204094E+02  0.59424375678E+02  0.00000000000E+00 0.  1.
         11    1    1    2    0    0 -0.16969266561E+02  0.27013395588E+02 -0.34672909406E+02  0.47115710708E+02  0.00000000000E+00 0. -1.
</event>
<event>
 7    1  0.3056346E-009  0.1538200E+03  0.7561462E-02  0.1195856E+00
          2   -1    0    0  501    0  0.00000000000E+00  0.00000000000E+00  0.14655853130E+03  0.14655853130E+03  0.00000000000E+00 0. -1.
         -2   -1    0    0    0  501 -0.00000000000E+00 -0.00000000000E+00 -0.19397960033E+03  0.19397960033E+03  0.00000000000E+00 0.  1.
         25    2    1    2    0    0  0.10365578062E+03 -0.42455908047E+02 -0.88636812399E+02  0.18986988702E+03  0.12508822687E+03 0.  0.
          5    1    3    3  502    0  0.91580224136E+02 -0.80862659062E+02 -0.44772261241E+02  0.13018346615E+03  0.41800000000E+01 0.  1.
         -5    1    3    3    0  502  0.12075556483E+02  0.38406751015E+02 -0.43864551158E+02  0.59686420870E+02  0.41800000000E+01 0.  1.
        -11    1    1    2    0    0 -0.71124186700E+02 -0.20531796287E+02  0.20892978381E+02  0.76920225807E+02  0.00000000000E+00 0. -1.
         11    1    1    2    0    0 -0.32531593918E+02  0.62987704334E+02  0.20322764987E+02  0.73748018800E+02  0.00000000000E+00 0.  1.
</event>
<event>
 7    1  0.3056346E-009  0.1317306E+03  0.7561462E-02  0.1224910E+00
          3   -1    0    0  501    0  0.00000000000E+00  0.00000000000E+00  0.22330884302E+02  0.22330884302E+02  0.00000000000E+00 0. -1.
         -3   -1    0    0    0  501 -0.00000000000E+00 -0.00000000000E+00 -0.10325677713E+04  0.10325677713E+04  0.00000000000E+00 0.  1.
         25    2    1    2    0    0  0.23694504550E+02 -0.97597029310E+02 -0.43637134889E+03  0.46492338942E+03  0.12508874539E+03 0.  0.
          5    1    3    3  502    0  0.39486992377E+02 -0.10623479957E+03 -0.43101051705E+03  0.44568216636E+03  0.41800000000E+01 0. -1.
         -5    1    3    3    0  502 -0.15792487827E+02  0.86377702575E+01 -0.53608318380E+01  0.19241223058E+02  0.41800000000E+01 0. -1.
        -11    1    1    2    0    0 -0.32857960479E+02 -0.68037591846E+00 -0.82715052639E+02  0.89004990935E+02  0.00000000000E+00 0. -1.
         11    1    1    2    0    0  0.91634559287E+01  0.98277405228E+02 -0.49115048548E+03  0.50097027526E+03  0.00000000000E+00 0.  1.
</event>
<event>
 7    1  0.3235639E-009  0.9475793E+02  0.7561462E-02  0.1291722E+00
          1   -1    0    0  501    0  0.00000000000E+00  0.00000000000E+00  0.87611756432E+02  0.87611756432E+02  0.00000000000E+00 0. -1.
         -1   -1    0    0    0  501 -0.00000000000E+00 -0.00000000000E+00 -0.18059173472E+03  0.18059173472E+03  0.00000000000E+00 0.  1.
         25    2    1    2    0    0 -0.51550659590E+02  0.37237313878E+02 -0.50795400613E+02  0.14923872548E+03  0.12509171200E+03 0.  0.
          5    1    3    3  502    0 -0.39401897418E+02  0.68667682371E+02  0.96949355118E+01  0.79870046306E+02  0.41800000000E+01 0. -1.
         -5    1    3    3    0  502 -0.12148762172E+02 -0.31430368493E+02 -0.60490336125E+02  0.69368679174E+02  0.41800000000E+01 0. -1.
        -11    1    1    2    0    0  0.18473961859E+02  0.80909747153E+01 -0.57387526010E+02  0.60828276978E+02  0.00000000000E+00 0.  1.
         11    1    1    2    0    0  0.33076697731E+02 -0.45328288593E+02  0.15202948334E+02  0.58136488694E+02  0.00000000000E+00 0. -1.
</event>
<event>
 7    1  0.3056346E-009  0.1271744E+03  0.7561462E-02  0.1231710E+00
          2   -1    0    0  501    0  0.00000000000E+00  0.00000000000E+00  0.39964879555E+02  0.39964879555E+02  0.00000000000E+00 0. -1.
         -2   -1    0    0    0  501 -0.00000000000E+00 -0.00000000000E+00 -0.40527358716E+03  0.40527358716E+03  0.00000000000E+00 0.  1.
         25    2    1    2    0    0 -0.61326931391E+02  0.22982072203E+02 -0.19879238367E+03  0.24383157217E+03  0.12508499361E+03 0.  0.
          5    1    3    3  502    0  0.19121342803E+02  0.51901664772E+02 -0.83374269181E+02  0.10014064968E+03  0.41800000000E+01 0. -1.
         -5    1    3    3    0  502 -0.80448274194E+02 -0.28919592569E+02 -0.11541811449E+03  0.14369092249E+03  0.41800000000E+01 0. -1.
        -11    1    1    2    0    0  0.15855462733E+02 -0.55283269251E+02 -0.83060038586E+02  0.10102774652E+03  0.00000000000E+00 0.  1.
         11    1    1    2    0    0  0.45471468658E+02  0.32301197048E+02 -0.83456285352E+02  0.10037914802E+03  0.00000000000E+00 0. -1.
</event>
<event>
 7    1  0.3056346E-009  0.1014708E+03  0.7561462E-02  0.1277233E+00
          1   -1    0    0  501    0  0.00000000000E+00  0.00000000000E+00  0.86474956759E+02  0.86474956759E+02  0.00000000000E+00 0. -1.
         -1   -1    0    0    0  501 -0.00000000000E+00 -0.00000000000E+00 -0.17354059550E+03  0.17354059550E+03  0.00000000000E+00 0.  1.
         25    2    1    2    0    0 -0.53899036781E+02 -0.12800693189E+02 -0.70423934281E+02  0.15386475336E+03  0.12508344372E+03 0.  0.
          5    1    3    3  502    0 -0.81861354599E+01  0.52851540342E+02 -0.12705710974E+02  0.55128990755E+02  0.41800000000E+01 0.  1.
         -5    1    3    3    0  502 -0.45712901321E+02 -0.65652233531E+02 -0.57718223307E+02  0.98735762601E+02  0.41800000000E+01 0.  1.
        -11    1    1    2    0    0  0.53578525726E+02  0.23484790752E+02 -0.46312993684E+02  0.74612915770E+02  0.00000000000E+00 0.  1.
         11    1    1    2    0    0  0.32051105433E+00 -0.10684097563E+02  0.29671289226E+02  0.31537883131E+02  0.00000000000E+00 0. -1.
</event>
<event>
 7    1  0.3056346E-009  0.8181224E+02  0.7561462E-02  0.1323986E+00
         -2   -1    0    0    0  501 -0.00000000000E+00  0.00000000000E+00  0.43319192791E+02  0.43319192791E+02  0.00000000000E+00 0.  1.
          2   -1    0    0  501    0  0.00000000000E+00 -0.00000000000E+00 -0.28946798291E+03  0.28946798291E+03  0.00000000000E+00 0. -1.
         25    2    1    2    0    0  0.26521455588E+02  0.16154090258E+02 -0.18093765722E+03  0.22214795790E+03  0.12508771786E+03 0.  0.
          5    1    3    3  502    0 -0.75707222127E+01  0.34321828667E+02 -0.17982548517E+03  0.18327569744E+03  0.41800000000E+01 0.  1.
         -5    1    3    3    0  502  0.34092177801E+02 -0.18167738409E+02 -0.11121720502E+01  0.38872260453E+02  0.41800000000E+01 0.  1.
        -11    1    1    2    0    0 -0.48092943280E+02  0.15973158165E+02 -0.36389814218E+02  0.62388232495E+02  0.00000000000E+00 0.  1.
         11    1    1    2    0    0  0.21571487692E+02 -0.32127248423E+02 -0.28821318678E+02  0.48250985304E+02  0.00000000000E+00 0. -1.
</event>
<event>
 7    1  0.3267959E-009  0.1164167E+03  0.7561462E-02  0.1249128E+00
          1   -1    0    0  501    0  0.00000000000E+00  0.00000000000E+00  0.43926584926E+03  0.43926584926E+03  0.00000000000E+00 0. -1.
         -1   -1    0    0    0  501 -0.00000000000E+00 -0.00000000000E+00 -0.45236611400E+02  0.45236611400E+02  0.00000000000E+00 0.  1.
         25    2    1    2    0    0 -0.39141662645E+02 -0.39125392130E+02  0.92369048260E+02  0.16504916094E+03  0.12508524449E+03 0.  0.
          5    1    3    3  502    0 -0.44311637611E+02  0.34516680205E+02  0.15561544654E+02  0.58434206696E+02  0.41800000000E+01 0. -1.
         -5    1    3    3    0  502  0.51699749669E+01 -0.73642072336E+02  0.76807503606E+02  0.10661495425E+03  0.41800000000E+01 0. -1.
        -11    1    1    2    0    0 -0.42798613983E-01  0.58745748721E+02  0.13705166935E+03  0.14911145125E+03  0.00000000000E+00 0.  1.
         11    1    1    2    0    0  0.39184461259E+02 -0.19620356591E+02  0.16460852025E+03  0.17034184846E+03  0.00000000000E+00 0. -1.
</event>
<event>
 7    1  0.3056346E-009  0.8935744E+02  0.7561462E-02  0.1304415E+00
         -1   -1    0    0    0  501 -0.00000000000E+00  0.00000000000E+00  0.59872788709E+02  0.59872788709E+02  0.00000000000E+00 0.  1.
          1   -1    0    0  501    0  0.00000000000E+00 -0.00000000000E+00 -0.23997337122E+03  0.23997337122E+03  0.00000000000E+00 0. -1.
         25    2    1    2    0    0 -0.38289251206E+02 -0.62163834492E+01 -0.81313926721E+02  0.15415843608E+03  0.12509259993E+03 0.  0.
          5    1    3    3  502    0 -0.62555114200E+02  0.89325428730E+00 -0.10300129210E+03  0.12058473697E+03  0.41800000000E+01 0. -1.
         -5    1    3    3    0  502  0.24265862994E+02 -0.71096377365E+01  0.21687365375E+02  0.33573699118E+02  0.41800000000E+01 0. -1.
        -11    1    1    2    0    0  0.57484632390E+02 -0.17297570426E+02 -0.23418853775E+02  0.64437036057E+02  0.00000000000E+00 0.  1.
         11    1    1    2    0    0 -0.19195381184E+02  0.23513953875E+02 -0.75367802019E+02  0.81250687793E+02  0.00000000000E+00 0. -1.
</event>
<event>
 7    1  0.3056346E-009  0.8295798E+02  0.7561462E-02  0.1320861E+00
          1   -1    0    0  501    0  0.00000000000E+00  0.00000000000E+00  0.86538750952E+02  0.86538750952E+02  0.00000000000E+00 0. -1.
         -1   -1    0    0    0  501 -0.00000000000E+00 -0.00000000000E+00 -0.14150603450E+03  0.14150603450E+03  0.00000000000E+00 0.  1.
         25    2    1    2    0    0 -0.65837440846E+00 -0.21105820237E+02 -0.35879936315E+02  0.13183382945E+03  0.12508756794E+03 0.  0.
          5    1    3    3  502    0  0.34659292987E+02  0.23773683686E+02 -0.56876010479E+02  0.70843543068E+02  0.41800000000E+01 0.  1.
         -5    1    3    3    0  502 -0.35317667395E+02 -0.44879503923E+02  0.20996074164E+02  0.60990286382E+02  0.41800000000E+01 0.  1.
        -11    1    1    2    0    0 -0.14129916683E+02 -0.18996250508E+02  0.25259027050E+02  0.34619799629E+02  0.00000000000E+00 0. -1.
         11    1    1    2    0    0  0.14788291091E+02  0.40102070745E+02 -0.44346374285E+02  0.61591156375E+02  0.00000000000E+00 0.  1.
</event>
<event>
 7    1  0.3056346E-009  0.6081946E+02  0.7561462E-02  0.1394425E+00
          1   -1    0    0  501    0  0.00000000000E+00  0.00000000000E+00  0.17225706817E+02  0.17225706817E+02  0.00000000000E+00 0. -1.
         -1   -1    0    0    0  501 -0.00000000000E+00 -0.00000000000E+00 -0.67852850296E+03  0.67852850296E+03  0.00000000000E+00 0.  1.
         25    2    1    2    0    0  0.20910324361E+02  0.28761776679E+01 -0.47669175704E+03  0.49328158811E+03  0.12508469083E+03 0.  0.
          5    1    3    3  502    0  0.14168610997E+01  0.22901112300E+02 -0.94149601055E+01  0.25151189112E+02  0.41800000000E+01 0.  1.
         -5    1    3    3    0  502  0.19493463262E+02 -0.20024934632E+02 -0.46727679693E+03  0.46813039900E+03  0.41800000000E+01 0.  1.
        -11    1    1    2    0    0 -0.26761818518E+02  0.27942020412E+02 -0.15346738532E+03  0.15826935834E+03  0.00000000000E+00 0. -1.
         11    1    1    2    0    0  0.58514941570E+01 -0.30818198080E+02 -0.31143653787E+02  0.44203263319E+02  0.00000000000E+00 0.  1.
</event>
<event>
 7    1  0.4980231E-009  0.1231150E+03  0.7561462E-02  0.1238045E+00
         -2   -1    0    0    0  501 -0.00000000000E+00  0.00000000000E+00  0.14721837618E+02  0.14721837618E+02  0.00000000000E+00 0.  1.
          2   -1    0    0  501    0  0.00000000000E+00 -0.00000000000E+00 -0.13742253645E+04  0.13742253645E+04  0.00000000000E+00 0. -1.
         25    2    1    2    0    0 -0.69184617013E+02 -0.20724531340E+02 -0.10170987723E+04  0.10273039231E+04  0.12508964962E+03 0.  0.
          5    1    3    3  502    0  0.31477830474E+02  0.28209707650E-01 -0.11314979782E+03  0.11752107791E+03  0.41800000000E+01 0.  1.
         -5    1    3    3    0  502 -0.10066244749E+03 -0.20752741048E+02 -0.90394897447E+03  0.90978284521E+03  0.41800000000E+01 0.  1.
        -11    1    1    2    0    0 -0.17527117861E+02  0.17607247645E+02 -0.40458428179E+02  0.47477357139E+02  0.00000000000E+00 0.  1.
         11    1    1    2    0    0  0.86711734874E+02  0.31172836954E+01 -0.30194632645E+03  0.31416592189E+03  0.00000000000E+00 0. -1.
</event>
<event>
 7    1  0.3056346E-009  0.2267338E+03  0.7561462E-02  0.1128960E+00
          1   -1    0    0  501    0  0.00000000000E+00  0.00000000000E+00  0.10743232013E+04  0.10743232013E+04  0.00000000000E+00 0. -1.
         -1   -1    0    0    0  501 -0.00000000000E+00 -0.00000000000E+00 -0.49727277735E+02  0.49727277735E+02  0.00000000000E+00 0.  1.
         25    2    1    2    0    0 -0.15133204862E+03  0.13126433125E+03  0.61911821779E+03  0.66263541358E+03  0.12508641067E+03 0.  0.
          5    1    3    3  502    0 -0.16884361669E+03  0.93485871131E+02  0.48015738642E+03  0.51750977105E+03  0.41800000000E+01 0. -1.
         -5    1    3    3    0  502  0.17511568073E+02  0.37778460116E+02  0.13896083136E+03  0.14512564252E+03  0.41800000000E+01 0. -1.
        -11    1    1    2    0    0  0.84007291985E+02 -0.12547848071E+03  0.30492596873E+03  0.34026742517E+03  0.00000000000E+00 0. -1.
         11    1    1    2    0    0  0.67324756631E+02 -0.57858505403E+01  0.10055173701E+03  0.12114764025E+03  0.00000000000E+00 0.  1.
</event>
<event>
 7    1  0.3769934E-009  0.1127997E+03  0.7561462E-02  0.1255471E+00
         -1   -1    0    0    0  501 -0.00000000000E+00  0.00000000000E+00  0.64594207922E+02  0.64594207922E+02  0.00000000000E+00 0.  1.
          1   -1    0    0  501    0  0.00000000000E+00 -0.00000000000E+00 -0.32126858201E+03  0.32126858201E+03  0.00000000000E+00 0. -1.
         25    2    1    2    0    0 -0.37534575234E+02  0.68982744533E+02 -0.68892027004E+02  0.16297613322E+03  0.12509054814E+03 0.  0.
          5    1    3    3  502    0  0.19364214170E+02 -0.26051892312E+02 -0.32970047121E+02  0.46456111446E+02  0.41800000000E+01 0.  1.
         -5    1    3    3    0  502 -0.56898789405E+02  0.95034636846E+02 -0.35921979883E+02  0.11652002178E+03  0.41800000000E+01 0.  1.
        -11    1    1    2    0    0  0.23937153684E+02 -0.20003920278E+02 -0.31141104396E+01  0.31350308401E+02  0.00000000000E+00 0.  1.
         11    1    1    2    0    0  0.13597421550E+02 -0.48978824255E+02 -0.18466823665E+03  0.19153634831E+03  0.00000000000E+00 0. -1.
</event>
<event>
 7    1  0.3056346E-009  0.1235875E+03  0.7561462E-02  0.1237293E+00
          2   -1    0    0  501    0  0.00000000000E+00  0.00000000000E+00  0.10279647586E+04  0.10279647586E+04  0.00000000000E+00 0. -1.
         -2   -1    0    0    0  501 -0.00000000000E+00 -0.00000000000E+00 -0.16575848540E+02  0.16575848540E+02  0.00000000000E+00 0.  1.
         25    2    1    2    0    0 -0.66636202428E+02  0.95080588197E+01  0.66474352711E+03  0.67975160137E+03  0.12508995194E+03 0.  0.
          5    1    3    3  502    0 -0.14231337441E+02  0.64227759631E+02  0.32923394559E+03  0.33576807383E+03  0.41800000000E+01 0.  1.
         -5    1    3    3    0  502 -0.52404864987E+02 -0.54719700811E+02  0.33550958152E+03  0.34398352755E+03  0.41800000000E+01 0.  1.
        -11    1    1    2    0    0  0.85786152625E+02 -0.72276657317E+01  0.32300113206E+03  0.33427718206E+03  0.00000000000E+00 0. -1.
         11    1    1    2    0    0 -0.19149950197E+02 -0.22803930880E+01  0.23644250845E+02  0.30511823662E+02  0.00000000000E+00 0.  1.
</event>
<event>
 7    1  0.3056346E-009  0.4128937E+03  0.7561462E-02  0.1039404E+00
         -1   -1    0    0    0  501 -0.00000000000E+00  0.00000000000E+00  0.16033370864E+03  0.16033370864E+03  0.00000000000E+00 0.  1.
          1   -1    0    0  501    0  0.00000000000E+00 -0.00000000000E+00 -0.12062341470E+04  0.12062341470E+04  0.00000000000E+00 0. -1.
         25    2    1    2    0    0 -0.39590592292E+03 -0.78356888458E+02 -0.74047620929E+03  0.85254576563E+03  0.12509182309E+03 0.  0.
          5    1    3    3  502    0 -0.28991573778E+03  0.63700901268E+00 -0.49278790252E+03  0.57175950369E+03  0.41800000000E+01 0. -1.
         -5    1    3    3    0  502 -0.10599018514E+03 -0.78993897471E+02 -0.24768830677E+03  0.28078626194E+03  0.41800000000E+01 0. -1.
        -11    1    1    2    0    0  0.86519680827E+02  0.17286616565E+02 -0.24205162179E+02  0.91489737998E+02  0.00000000000E+00 0.  1.
         11    1    1    2    0    0  0.30938624209E+03  0.61070271894E+02 -0.28121906686E+03  0.42253235198E+03  0.00000000000E+00 0. -1.
</event>
<event>
 7    1  0.3056346E-009  0.1151589E+03  0.7561462E-02  0.1251304E+00
         -2   -1    0    0    0  501 -0.00000000000E+00  0.00000000000E+00  0.35434846510E+02  0.35434846510E+02  0.00000000000E+00 0.  1.
          2   -1    0    0  501    0  0.00000000000E+00 -0.00000000000E+00 -0.48192956609E+03  0.48192956609E+03  0.00000000000E+00 0. -1.
         25    2    1    2    0    0 -0.47408572074E+02 -0.37015513370E+01 -0.13856549564E+03  0.19263970491E+03  0.12509350559E+03 0.  0.
          5    1    3    3  502    0  0.23347375707E+02 -0.41832335111E+02 -0.79096848784E+02  0.92567964765E+02  0.41800000000E+01 0. -1.
         -5    1    3    3    0  502 -0.70755947782E+02  0.38130783774E+02 -0.59468646852E+02  0.10007174015E+03  0.41800000000E+01 0. -1.
        -11    1    1    2    0    0  0.64169269487E+02 -0.24705755016E+02 -0.23115448323E+03  0.24116480795E+03  0.00000000000E+00 0.  1.
         11    1    1    2    0    0 -0.16760697413E+02  0.28407306353E+02 -0.76774740715E+02  0.83559899736E+02  0.00000000000E+00 0. -1.
</event>
<event>
 7    1  0.3056346E-009  0.1446339E+03  0.7561462E-02  0.1207226E+00
         -1   -1    0    0    0  501 -0.00000000000E+00  0.00000000000E+00  0.43868115953E+02  0.43868115953E+02  0.00000000000E+00 0.  1.
          1   -1    0    0  501    0  0.00000000000E+00 -0.00000000000E+00 -0.11022854237E+04  0.11022854237E+04  0.00000000000E+00 0. -1.
         25    2    1    2    0    0 -0.12725866527E+03  0.57078777460E+02 -0.88928043693E+03  0.90880174305E+03  0.12509259745E+03 0.  0.
          5    1    3    3  502    0 -0.72621111695E+02  0.55297759737E+01 -0.16233190456E+03  0.17797057039E+03  0.41800000000E+01 0. -1.
         -5    1    3    3    0  502 -0.54637553572E+02  0.51549001486E+02 -0.72694853237E+03  0.73083117266E+03  0.41800000000E+01 0. -1.
        -11    1    1    2    0    0  0.10778004836E+03 -0.39331430880E+02 -0.69169850197E+02  0.13397002820E+03  0.00000000000E+00 0.  1.
         11    1    1    2    0    0  0.19478616904E+02 -0.17747346580E+02 -0.99967020649E+02  0.10338176843E+03  0.00000000000E+00 0. -1.
</event>
<event>
 7    1  0.3056346E-009  0.1184509E+03  0.7561462E-02  0.1245675E+00
          2   -1    0    0  501    0  0.00000000000E+00  0.00000000000E+00  0.28283701761E+03  0.28283701761E+03  0.00000000000E+00 0. -1.
         -2   -1    0    0    0  501 -0.00000000000E+00 -0.00000000000E+00 -0.11856292935E+03  0.11856292935E+03  0.00000000000E+00 0.  1.
         25    2    1    2    0    0 -0.47899425972E+02 -0.45455914307E+02  0.23047631082E+03  0.27042078696E+03  0.12508987577E+03 0.  0.
          5    1    3    3  502    0  0.40660933972E+02 -0.29366139244E+02  0.67568337541E+02  0.84253393544E+02  0.41800000000E+01 0. -1.
         -5    1    3    3    0  502 -0.88560359944E+02 -0.16089775063E+02  0.16290797328E+03  0.18616739342E+03  0.41800000000E+01 0. -1.
        -11    1    1    2    0    0  0.32890554580E+02 -0.13555176455E+02 -0.60027500191E+02  0.69777017481E+02  0.00000000000E+00 0.  1.
         11    1    1    2    0    0  0.15008871392E+02  0.59011090762E+02 -0.61747223672E+01  0.61202142525E+02  0.00000000000E+00 0. -1.
</event>
<event>
 7    1  0.3056346E-009  0.1694726E+03  0.7561462E-02  0.1178399E+00
          2   -1    0    0  501    0  0.00000000000E+00  0.00000000000E+00  0.43010698483E+03  0.43010698483E+03  0.00000000000E+00 0.  1.
         -2   -1    0    0    0  501 -0.00000000000E+00 -0.00000000000E+00 -0.79818410882E+02  0.79818410882E+02  0.00000000000E+00 0. -1.
         25    2    1    2    0    0  0.22067535892E+02 -0.14481529348E+03  0.19431660359E+03  0.27362009908E+03  0.12510224149E+03 0.  0.
          5    1    3    3  502    0  0.32978705694E+02 -0.14717962971E+03  0.20703747913E+03  0.25618631617E+03  0.41800000000E+01 0.  1.
         -5    1    3    3    0  502 -0.10911169802E+02  0.23643362289E+01 -0.12720875535E+02  0.17433782912E+02  0.41800000000E+01 0.  1.
        -11    1    1    2    0    0 -0.54513023799E+02  0.43465349982E+02  0.47594182145E+02  0.84416305218E+02  0.00000000000E+00 0. -1.
         11    1    1    2    0    0  0.32445487907E+02  0.10134994350E+03  0.10837778821E+03  0.15188899141E+03  0.00000000000E+00 0.  1.
</event>
<event>
 7    1  0.3056346E-009  0.1049816E+03  0.7561462E-02  0.1270156E+00
         -2   -1    0    0    0  501 -0.00000000000E+00  0.00000000000E+00  0.17555626230E+02  0.17555626230E+02  0.00000000000E+00 0.  1.
          2   -1    0    0  501    0  0.00000000000E+00 -0.00000000000E+00 -0.89983864804E+03  0.89983864804E+03  0.00000000000E+00 0. -1.
         25    2    1    2    0    0  0.24934817840E+02 -0.26452923554E+02 -0.68882559181E+03  0.70103419778E+03  0.12508696263E+03 0.  0.
          5    1    3    3  502    0 -0.33515207097E+02 -0.43566165474E+02 -0.17204941923E+03  0.18066475843E+03  0.41800000000E+01 0. -1.
         -5    1    3    3    0  502  0.58450024937E+02  0.17113241920E+02 -0.51677617258E+03  0.52036943935E+03  0.41800000000E+01 0. -1.
        -11    1    1    2    0    0 -0.26249836553E+01  0.56392502835E+02 -0.88636619060E+02  0.10508784494E+03  0.00000000000E+00 0. -1.
         11    1    1    2    0    0 -0.22309834184E+02 -0.29939579281E+02 -0.10482081094E+03  0.11127223156E+03  0.00000000000E+00 0.  1.
</event>
<event>
 7    1  0.3056346E-009  0.3867746E+03  0.7561462E-02  0.1048458E+00
         -1   -1    0    0    0  501 -0.00000000000E+00  0.00000000000E+00  0.21724336273E+03  0.21724336273E+03  0.00000000000E+00 0.  1.
          1   -1    0    0  501    0  0.00000000000E+00 -0.00000000000E+00 -0.11231953898E+04  0.11231953898E+04  0.00000000000E+00 0. -1.
         25    2    1    2    0    0 -0.30418982736E+03 -0.22211789180E+03 -0.48769256174E+02  0.39986533752E+03  0.12508412720E+03 0.  0.
          5    1    3    3  502    0 -0.22913024764E+03 -0.22551923266E+03 -0.43106138840E+02  0.32439976309E+03  0.41800000000E+01 0. -1.
         -5    1    3    3    0  502 -0.75059579712E+02  0.34013408621E+01 -0.56631173339E+01  0.75465574430E+02  0.41800000000E+01 0. -1.
        -11    1    1    2    0    0  0.13767483297E+03  0.10639913462E+03 -0.50564478247E+03  0.53474459466E+03  0.00000000000E+00 0. -1.
         11    1    1    2    0    0  0.16651499439E+03  0.11571875717E+03 -0.35153798847E+03  0.40582882038E+03  0.00000000000E+00 0.  1.
</event>
<event>
 7    1  0.3056346E-009  0.1468964E+03  0.7561462E-02  0.1204339E+00
          1   -1    0    0  501    0  0.00000000000E+00  0.00000000000E+00  0.22453933040E+03  0.22453933040E+03  0.00000000000E+00 0. -1.
         -1   -1    0    0    0  501 -0.00000000000E+00 -0.00000000000E+00 -0.12522263348E+03  0.12522263348E+03  0.00000000000E+00 0.  1.
         25    2    1    2    0    0 -0.86966683525E+02  0.86344119232E+02  0.10422491473E+03  0.20378773797E+03  0.12509235918E+03 0.  0.
          5    1    3    3  502    0 -0.10287022637E+03  0.25640629074E+02  0.90413072291E+02  0.13939770936E+03  0.41800000000E+01 0.  1.
         -5    1    3    3    0  502  0.15903542846E+02  0.60703490158E+02  0.13811842442E+02  0.64390028608E+02  0.41800000000E+01 0.  1.
        -11    1    1    2    0    0  0.27974500955E+02 -0.44173533886E+02  0.35272062370E+02  0.63071326160E+02  0.00000000000E+00 0. -1.
         11    1    1    2    0    0  0.58992182570E+02 -0.42170585346E+02 -0.40180280184E+02  0.82902899759E+02  0.00000000000E+00 0.  1.
</event>
<event>
 7    1  0.3056346E-009  0.1041238E+03  0.7561462E-02  0.1271856E+00
          2   -1    0    0  501    0  0.00000000000E+00  0.00000000000E+00  0.78420671219E+02  0.78420671219E+02  0.00000000000E+00 0. -1.
         -2   -1    0    0    0  501 -0.00000000000E+00 -0.00000000000E+00 -0.24002282046E+03  0.24002282046E+03  0.00000000000E+00 0.  1.
         25    2    1    2    0    0 -0.82152536742E+02 -0.15075905110E+02 -0.88978355266E+02  0.17476110968E+03  0.12509186841E+03 0.  0.
          5    1    3    3  502    0 -0.58751170751E+02  0.21607636675E+02  0.12766335948E+02  0.64023759346E+02  0.41800000000E+01 0.  1.
         -5    1    3    3    0  502 -0.23401365991E+02 -0.36683541785E+02 -0.10174469121E+03  0.11073735033E+03  0.41800000000E+01 0.  1.
        -11    1    1    2    0    0 -0.88417390686E+01  0.52274218375E+01 -0.47742595738E+02  0.48835005238E+02  0.00000000000E+00 0.  1.
         11    1    1    2    0    0  0.90994275811E+02  0.98484832725E+01 -0.24881198238E+02  0.94847376763E+02  0.00000000000E+00 0. -1.
</event>
<event>
 7    1  0.3056346E-009  0.1534335E+03  0.7561462E-02  0.1196316E+00
         -1   -1    0    0    0  501 -0.00000000000E+00  0.00000000000E+00  0.93430825333E+02  0.93430825333E+02  0.00000000000E+00 0.  1.
          1   -1    0    0  501    0  0.00000000000E+00 -0.00000000000E+00 -0.32069113646E+03  0.32069113646E+03  0.00000000000E+00 0. -1.
         25    2    1    2    0    0  0.14029555365E+02  0.13183866354E+03 -0.15418190925E+03  0.23874665920E+03  0.12509853920E+03 0.  0.
          5    1    3    3  502    0 -0.34529674887E+02  0.34774772232E+02 -0.11183034414E+03  0.12216825079E+03  0.41800000000E+01 0. -1.
         -5    1    3    3    0  502  0.48559230251E+02  0.97063891309E+02 -0.42351565112E+02  0.11657840840E+03  0.41800000000E+01 0. -1.
        -11    1    1    2    0    0  0.26506913561E+02 -0.72614124380E+02 -0.66570225617E+01  0.77587005841E+02  0.00000000000E+00 0.  1.
         11    1    1    2    0    0 -0.40536468926E+02 -0.59224539161E+02 -0.66421379313E+02  0.97788296752E+02  0.00000000000E+00 0. -1.
</event>
<event>
 7    1  0.3056346E-009  0.8452835E+02  0.7561462E-02  0.1316671E+00
         -2   -1    0    0    0  501 -0.00000000000E+00  0.00000000000E+00  0.34651125157E+02  0.34651125157E+02  0.00000000000E+00 0.  1.
          2   -1    0    0  501    0  0.00000000000E+00 -0.00000000000E+00 -0.42005121659E+03  0.42005121659E+03  0.00000000000E+00 0. -1.
         25    2    1    2    0    0 -0.57698309328E+01 -0.17893430189E+02 -0.26781069411E+03  0.29618218635E+03  0.12509138196E+03 0.  0.
          5    1    3    3  502    0  0.20370125972E+02  0.29258706401E+02 -0.22323647829E+03  0.22610398398E+03  0.41800000000E+01 0. -1.
         -5    1    3    3    0  502 -0.26139956905E+02 -0.47152136590E+02 -0.44574215819E+02  0.70078202373E+02  0.41800000000E+01 0. -1.
        -11    1    1    2    0    0 -0.10188947216E+02  0.45810406310E+02 -0.11732472667E+03  0.12636257143E+03  0.00000000000E+00 0. -1.
         11    1    1    2    0    0  0.15958778149E+02 -0.27916976121E+02 -0.26467065912E+00  0.32157583963E+02  0.00000000000E+00 0.  1.
</event>
<event>
 7    1  0.3056346E-009  0.1034838E+03  0.7561462E-02  0.1273136E+00
         -3   -1    0    0    0  501 -0.00000000000E+00  0.00000000000E+00  0.71914519871E+02  0.71914519871E+02  0.00000000000E+00 0.  1.
          3   -1    0    0  501    0  0.00000000000E+00 -0.00000000000E+00 -0.18553702523E+03  0.18553702523E+03  0.00000000000E+00 0. -1.
         25    2    1    2    0    0  0.24480172180E+02 -0.33979220588E+02 -0.67089214416E+02  0.14799465358E+03  0.12509032151E+03 0.  0.
          5    1    3    3  502    0  0.18393916243E+02  0.36776551936E+02 -0.64748789138E+02  0.76816202860E+02  0.41800000000E+01 0. -1.
         -5    1    3    3    0  502  0.60862559366E+01 -0.70755772524E+02 -0.23404252784E+01  0.71178450723E+02  0.41800000000E+01 0. -1.
        -11    1    1    2    0    0  0.94207893258E+01  0.54206427945E+02 -0.10508670395E+02  0.56013572066E+02  0.00000000000E+00 0.  1.
         11    1    1    2    0    0 -0.33900961506E+02 -0.20227207357E+02 -0.36024620548E+02  0.53443319452E+02  0.00000000000E+00 0. -1.
</event>
<event>
 7    1  0.3056346E-009  0.1538890E+03  0.7561462E-02  0.1195774E+00
          2   -1    0    0  501    0  0.00000000000E+00  0.00000000000E+00  0.17417202150E+02  0.17417202150E+02  0.00000000000E+00 0. -1.
         -2   -1    0    0    0  501 -0.00000000000E+00 -0.00000000000E+00 -0.17650481286E+04  0.17650481286E+04  0.00000000000E+00 0.  1.
         25    2    1    2    0    0 -0.12018902472E+03 -0.21767347958E+02 -0.12323599469E+04  0.12446994491E+04  0.12508581328E+03 0.  0.
          5    1    3    3  502    0 -0.10768307623E+03 -0.60791183563E+02 -0.10726804743E+04  0.10797926122E+04  0.41800000000E+01 0.  1.
         -5    1    3    3    0  502 -0.12505948497E+02  0.39023835605E+02 -0.15967947261E+03  0.16490683693E+03  0.41800000000E+01 0.  1.
        -11    1    1    2    0    0  0.97689850865E+02 -0.15907472224E+02 -0.43665623730E+03  0.44773320651E+03  0.00000000000E+00 0.  1.
         11    1    1    2    0    0  0.22499173857E+02  0.37674820182E+02 -0.78614742231E+02  0.90032675158E+02  0.00000000000E+00 0. -1.
</event>
<event>
 7    1  0.3056346E-009  0.1945957E+03  0.7561462E-02  0.1154380E+00
          2   -1    0    0  501    0  0.00000000000E+00  0.00000000000E+00  0.55927534774E+03  0.55927534774E+03  0.00000000000E+00 0. -1.
         -2   -1    0    0    0  501 -0.00000000000E+00 -0.00000000000E+00 -0.81587553674E+02  0.81587553674E+02  0.00000000000E+00 0.  1.
         25    2    1    2    0    0 -0.16733811892E+03 -0.69150016227E+02  0.20512339410E+03  0.30084267096E+03  0.12508770952E+03 0.  0.
          5    1    3    3  502    0  0.98866769961E+01  0.65691441823E+01  0.55256541502E+02  0.56671490329E+02  0.41800000000E+01 0.  1.
         -5    1    3    3    0  502 -0.17722479592E+03 -0.75719160409E+02  0.14986685260E+03  0.24417118063E+03  0.41800000000E+01 0.  1.
        -11    1    1    2    0    0  0.11076803642E+03  0.29100213985E+02  0.23443155975E+03  0.26091097438E+03  0.00000000000E+00 0. -1.
         11    1    1    2    0    0  0.56570082502E+02  0.40049802242E+02  0.38132840212E+02  0.79109256073E+02  0.00000000000E+00 0.  1.
</event>
<event>
 7    1  0.3056346E-009  0.1638188E+03  0.7561462E-02  0.1184452E+00
         -2   -1    0    0    0  501 -0.00000000000E+00  0.00000000000E+00  0.96224541864E+02  0.96224541864E+02  0.00000000000E+00 0.  1.
          2   -1    0    0  501    0  0.00000000000E+00 -0.00000000000E+00 -0.30987912148E+03  0.30987912148E+03  0.00000000000E+00 0. -1.
         25    2    1    2    0    0  0.93659272000E+01  0.13025168798E+03 -0.13758930189E+03  0.22722795733E+03  0.12509398780E+03 0.  0.
          5    1    3    3  502    0  0.59785962372E+02  0.83876586925E+02 -0.46275712427E+02  0.11299804021E+03  0.41800000000E+01 0. -1.
         -5    1    3    3    0  502 -0.50420035172E+02  0.46375101058E+02 -0.91313589459E+02  0.11422991712E+03  0.41800000000E+01 0. -1.
        -11    1    1    2    0    0 -0.47036555709E+02 -0.60384430421E+02 -0.61469127424E+02  0.98169092063E+02  0.00000000000E+00 0. -1.
         11    1    1    2    0    0  0.37670628509E+02 -0.69867257562E+02 -0.14596150304E+02  0.80706613949E+02  0.00000000000E+00 0.  1.
</event>
<event>
 7    1  0.3056346E-009  0.1079719E+03  0.7561462E-02  0.1264372E+00
         -1   -1    0    0    0  501 -0.00000000000E+00  0.00000000000E+00  0.71073978271E+02  0.71073978271E+02  0.00000000000E+00 0.  1.
          1   -1    0    0  501    0  0.00000000000E+00 -0.00000000000E+00 -0.41926734721E+03  0.41926734721E+03  0.00000000000E+00 0. -1.
         25    2    1    2    0    0  0.34229387173E+01 -0.56859037312E+02 -0.35569306324E+03  0.38132495722E+03  0.12508597493E+03 0.  0.
          5    1    3    3  502    0 -0.50952513708E+02 -0.52483740006E+02 -0.13130733130E+03  0.15036551889E+03  0.41800000000E+01 0. -1.
         -5    1    3    3    0  502  0.54375452426E+02 -0.43752973061E+01 -0.22438573194E+03  0.23095943833E+03  0.41800000000E+01 0. -1.
        -11    1    1    2    0    0  0.31733179936E+02  0.23360084595E+02  0.35435233719E+02  0.52993811429E+02  0.00000000000E+00 0.  1.
         11    1    1    2    0    0 -0.35156118653E+02  0.33498952717E+02 -0.27935539418E+02  0.56022556836E+02  0.00000000000E+00 0. -1.
</event>
<event>
 7    1  0.3056346E-009  0.1456321E+03  0.7561462E-02  0.1205945E+00
          2   -1    0    0  501    0  0.00000000000E+00  0.00000000000E+00  0.60280037111E+03  0.60280037111E+03  0.00000000000E+00 0. -1.
         -2   -1    0    0    0  501 -0.00000000000E+00 -0.00000000000E+00 -0.48262251385E+02  0.48262251385E+02  0.00000000000E+00 0.  1.
         25    2    1    2    0    0 -0.22145078257E+02 -0.12868508838E+03  0.31331816384E+03  0.36175481036E+03  0.12509202439E+03 0.  0.
          5    1    3    3  502    0 -0.13331940388E+02 -0.13926103078E+03  0.31732511780E+03  0.34681995057E+03  0.41800000000E+01 0.  1.
         -5    1    3    3    0  502 -0.88131378689E+01  0.10575942405E+02 -0.40069539586E+01  0.14934859788E+02  0.41800000000E+01 0.  1.
        -11    1    1    2    0    0 -0.60721704670E+01  0.82988152060E+02  0.66495803596E+02  0.10651571026E+03  0.00000000000E+00 0.  1.
         11    1    1    2    0    0  0.28217248724E+02  0.45696936317E+02  0.17472415229E+03  0.18279210187E+03  0.00000000000E+00 0. -1.
</event>
<event>
 7    1  0.3056346E-009  0.2341406E+03  0.7561462E-02  0.1123759E+00
          2   -1    0    0  501    0  0.00000000000E+00  0.00000000000E+00  0.11630392888E+04  0.11630392888E+04  0.00000000000E+00 0. -1.
         -2   -1    0    0    0  501 -0.00000000000E+00 -0.00000000000E+00 -0.56921399707E+02  0.56921399707E+02  0.00000000000E+00 0.  1.
         25    2    1    2    0    0 -0.21746204084E+03  0.54011247713E+02  0.42057736386E+03  0.49268645958E+03  0.12509066462E+03 0.  0.
          5    1    3    3  502    0 -0.19720764430E+03  0.71580751533E+02  0.41492459248E+03  0.46496725562E+03  0.41800000000E+01 0.  1.
         -5    1    3    3    0  502 -0.20254396544E+02 -0.17569503820E+02  0.56527713859E+01  0.27719203960E+02  0.41800000000E+01 0.  1.
        -11    1    1    2    0    0  0.21061247361E+02  0.11838169530E+02  0.23976557616E+02  0.34038121472E+02  0.00000000000E+00 0.  1.
         11    1    1    2    0    0  0.19640079348E+03 -0.65849417243E+02  0.66156396762E+03  0.69323610746E+03  0.00000000000E+00 0. -1.
</event>
<event>
 7    1  0.3056346E-009  0.7446265E+02  0.7561462E-02  0.1345543E+00
          2   -1    0    0  501    0  0.00000000000E+00  0.00000000000E+00  0.11990162828E+03  0.11990162828E+03  0.00000000000E+00 0. -1.
         -2   -1    0    0    0  501 -0.00000000000E+00 -0.00000000000E+00 -0.13212168111E+03  0.13212168111E+03  0.00000000000E+00 0.  1.
         25    2    1    2    0    0 -0.50249851436E+02  0.26534797262E+02  0.22048220504E+02  0.13914385994E+03  0.12508295925E+03 0.  0.
          5    1    3    3  502    0 -0.21223721561E+02 -0.20343655351E+02  0.63457705939E+02  0.70061854906E+02  0.41800000000E+01 0. -1.
         -5    1    3    3    0  502 -0.29026129875E+02  0.46878452613E+02 -0.41409485435E+02  0.69082005029E+02  0.41800000000E+01 0. -1.
        -11    1    1    2    0    0  0.29410330274E+02  0.97098481671E+00  0.28681208784E+02  0.41091630239E+02  0.00000000000E+00 0. -1.
         11    1    1    2    0    0  0.20839521162E+02 -0.27505782078E+02 -0.62949482114E+02  0.71787819220E+02  0.00000000000E+00 0.  1.
</event>
<event>
 7    1  0.3056346E-009  0.2643313E+03  0.7561462E-02  0.1104569E+00
          2   -1    0    0  501    0  0.00000000000E+00  0.00000000000E+00  0.12210470574E+04  0.12210470574E+04  0.00000000000E+00 0. -1.
         -2   -1    0    0    0  501 -0.00000000000E+00 -0.00000000000E+00 -0.60433634953E+02  0.60433634953E+02  0.00000000000E+00 0.  1.
         25    2    1    2    0    0 -0.23124887436E+03 -0.86533505356E+02  0.63712785324E+03  0.69465346922E+03  0.12508977371E+03 0.  0.
          5    1    3    3  502    0 -0.17146575220E+03 -0.11521413339E+03  0.42874112727E+03  0.47593195661E+03  0.41800000000E+01 0. -1.
         -5    1    3    3    0  502 -0.59783122158E+02  0.28680628029E+02  0.20838672597E+03  0.21872151261E+03  0.41800000000E+01 0. -1.
        -11    1    1    2    0    0  0.75829597687E+02  0.62643651672E+02  0.12947345518E+03  0.16259683446E+03  0.00000000000E+00 0.  1.
         11    1    1    2    0    0  0.15541927667E+03  0.23889853685E+02  0.39401211400E+03  0.42423038865E+03  0.00000000000E+00 0. -1.
</event>
<event>
 7    1  0.3056346E-009  0.9434251E+02  0.7561462E-02  0.1292664E+00
         -1   -1    0    0    0  501 -0.00000000000E+00  0.00000000000E+00  0.12455957039E+03  0.12455957039E+03  0.00000000000E+00 0.  1.
          1   -1    0    0  501    0  0.00000000000E+00 -0.00000000000E+00 -0.13372006295E+03  0.13372006295E+03  0.00000000000E+00 0. -1.
         25    2    1    2    0    0 -0.46489126809E+02 -0.33377890631E+02 -0.45984100194E+02  0.14504210524E+03  0.12508937735E+03 0.  0.
          5    1    3    3  502    0 -0.63174378438E+02 -0.49012015432E+02 -0.73732444693E+02  0.10884450169E+03  0.41800000000E+01 0. -1.
         -5    1    3    3    0  502  0.16685251629E+02  0.15634124801E+02  0.27748344499E+02  0.36197603548E+02  0.41800000000E+01 0. -1.
        -11    1    1    2    0    0  0.57510628271E+02  0.42137709986E+02  0.55143757371E+02  0.90132640835E+02  0.00000000000E+00 0.  1.
         11    1    1    2    0    0 -0.11021501462E+02 -0.87598193554E+01 -0.18320149731E+02  0.23104887270E+02  0.00000000000E+00 0. -1.
</event>
<event>
 7    1  0.3056346E-009  0.1275788E+03  0.7561462E-02  0.1231093E+00
          1   -1    0    0  501    0  0.00000000000E+00  0.00000000000E+00  0.54036807882E+03  0.54036807882E+03  0.00000000000E+00 0. -1.
         -1   -1    0    0    0  501 -0.00000000000E+00 -0.00000000000E+00 -0.35533341949E+02  0.35533341949E+02  0.00000000000E+00 0.  1.
         25    2    1    2    0    0  0.73382730087E+02  0.17212293838E+02  0.19529586374E+03  0.24386378731E+03  0.12509110375E+03 0.  0.
          5    1    3    3  502    0 -0.66563400381E+01 -0.42544070092E+02  0.38532497432E+02  0.57935572156E+02  0.41800000000E+01 0. -1.
         -5    1    3    3    0  502  0.80039070125E+02  0.59756363930E+02  0.15676336630E+03  0.18592821516E+03  0.41800000000E+01 0. -1.
        -11    1    1    2    0    0 -0.10321703031E+02  0.30915220318E+02  0.43074988113E+02  0.54016136494E+02  0.00000000000E+00 0.  1.
         11    1    1    2    0    0 -0.63061027056E+02 -0.48127514156E+02  0.26646388502E+03  0.27802149696E+03  0.00000000000E+00 0. -1.
</event>
<event>
 7    1  0.3056346E-009  0.1762656E+03  0.7561462E-02  0.1171467E+00
          1   -1    0    0  501    0  0.00000000000E+00  0.00000000000E+00  0.10611802411E+04  0.10611802411E+04  0.00000000000E+00 0. -1.
         -1   -1    0    0    0  501 -0.00000000000E+00 -0.00000000000E+00 -0.34765169222E+02  0.34765169222E+02  0.00000000000E+00 0.  1.
         25    2    1    2    0    0 -0.12362089940E+03  0.78612056765E+02  0.36766694206E+03  0.41507561969E+03  0.12508719975E+03 0.  0.
          5    1    3    3  502    0  0.24775655578E+02  0.19715478891E+02  0.46819342012E+02  0.56675006870E+02  0.41800000000E+01 0.  1.
         -5    1    3    3    0  502 -0.14839655498E+03  0.58896577874E+02  0.32084760005E+03  0.35840061282E+03  0.41800000000E+01 0.  1.
        -11    1    1    2    0    0  0.37545360147E+02 -0.63092100101E+02  0.42498292752E+03  0.43127804934E+03  0.00000000000E+00 0. -1.
         11    1    1    2    0    0  0.86075539257E+02 -0.15519956664E+02  0.23376520235E+03  0.24959174133E+03  0.00000000000E+00 0.  1.
</event>
<event>
 7    1  0.3056346E-009  0.1246573E+03  0.7561462E-02  0.1235606E+00
         -2   -1    0    0    0  501 -0.00000000000E+00  0.00000000000E+00  0.28110514460E+02  0.28110514460E+02  0.00000000000E+00 0.  1.
          2   -1    0    0  501    0  0.00000000000E+00 -0.00000000000E+00 -0.89545533739E+03  0.89545533739E+03  0.00000000000E+00 0. -1.
         25    2    1    2    0    0 -0.10339318477E+02 -0.79135493251E+02 -0.70856342542E+03  0.72393248908E+03  0.12508714205E+03 0.  0.
          5    1    3    3  502    0  0.16698266551E+02 -0.10518615867E+03 -0.44002566427E+03  0.45275050271E+03  0.41800000000E+01 0.  1.
         -5    1    3    3    0  502 -0.27037585028E+02  0.26050665418E+02 -0.26853776115E+03  0.27118198637E+03  0.41800000000E+01 0.  1.
        -11    1    1    2    0    0  0.24806352083E+02  0.30857238164E+00 -0.37204014659E+01  0.25085687307E+02  0.00000000000E+00 0.  1.
         11    1    1    2    0    0 -0.14467033607E+02  0.78826920869E+02 -0.15506099605E+03  0.17454767546E+03  0.00000000000E+00 0. -1.
</event>
<event>
 7    1  0.3056346E-009  0.1342284E+03  0.7561462E-02  0.1221313E+00
         -1   -1    0    0    0  501 -0.00000000000E+00  0.00000000000E+00  0.94104177110E+02  0.94104177110E+02  0.00000000000E+00 0.  1.
          1   -1    0    0  501    0  0.00000000000E+00 -0.00000000000E+00 -0.26749328233E+03  0.26749328233E+03  0.00000000000E+00 0. -1.
         25    2    1    2    0    0 -0.61360411377E+02  0.87491934342E+02 -0.14439623063E+03  0.21889902519E+03  0.12508626283E+03 0.  0.
          5    1    3    3  502    0  0.36239710602E+02  0.20775328909E+02 -0.17698329437E+02  0.45559128401E+02  0.41800000000E+01 0. -1.
         -5    1    3    3    0  502 -0.97600121980E+02  0.66716605433E+02 -0.12669790119E+03  0.17333989679E+03  0.41800000000E+01 0. -1.
        -11    1    1    2    0    0  0.36799956338E+02 -0.37838451776E+02 -0.59435145765E+02  0.79489129895E+02  0.00000000000E+00 0. -1.
         11    1    1    2    0    0  0.24560455039E+02 -0.49653482567E+02  0.30442271177E+02  0.63209304356E+02  0.00000000000E+00 0.  1.
</event>
<event>
 7    1  0.3056346E-009  0.9937324E+02  0.7561462E-02  0.1281619E+00
         -2   -1    0    0    0  501 -0.00000000000E+00  0.00000000000E+00  0.16291761698E+03  0.16291761698E+03  0.00000000000E+00 0.  1.
          2   -1    0    0  501    0  0.00000000000E+00 -0.00000000000E+00 -0.12204784383E+03  0.12204784383E+03  0.00000000000E+00 0. -1.
         25    2    1    2    0    0 -0.26930477031E+02 -0.34919430583E+02 -0.56694455200E+02  0.14421260904E+03  0.12505358104E+03 0.  0.
          5    1    3    3  502    0 -0.24738625253E+02 -0.63697961388E+02 -0.81137204364E+02  0.10616095420E+03  0.41800000000E+01 0.  1.
         -5    1    3    3    0  502 -0.21918517783E+01  0.28778530806E+02  0.24442749165E+02  0.38051654843E+02  0.41800000000E+01 0.  1.
        -11    1    1    2    0    0 -0.10210345443E+02 -0.27029096232E+02  0.33139454451E+02  0.43966426265E+02  0.00000000000E+00 0. -1.
         11    1    1    2    0    0  0.37140822474E+02  0.61948526814E+02  0.64424773906E+02  0.96786425501E+02  0.00000000000E+00 0.  1.
</event>
<event>
 7    1  0.3056346E-009  0.5087216E+02  0.7561462E-02  0.1440693E+00
         -2   -1    0    0    0  501 -0.00000000000E+00  0.00000000000E+00  0.10289264055E+03  0.10289264055E+03  0.00000000000E+00 0.  1.
          2   -1    0    0  501    0  0.00000000000E+00 -0.00000000000E+00 -0.11924249640E+03  0.11924249640E+03  0.00000000000E+00 0. -1.
         25    2    1    2    0    0  0.92577204745E+01  0.76219525884E+01  0.10097667831E+02  0.12606608391E+03  0.12508754961E+03 0.  0.
          5    1    3    3  502    0 -0.21917871058E+02  0.11868643689E+01 -0.51757576940E+02  0.56374824962E+02  0.41800000000E+01 0. -1.
         -5    1    3    3    0  502  0.31175591533E+02  0.64350882195E+01  0.61855244771E+02  0.69691258946E+02  0.41800000000E+01 0. -1.
        -11    1    1    2    0    0 -0.26177223445E+02  0.43915712441E+01 -0.54825989252E+02  0.60913233560E+02  0.00000000000E+00 0. -1.
         11    1    1    2    0    0  0.16919502971E+02 -0.12013523833E+02  0.28378465565E+02  0.35155819482E+02  0.00000000000E+00 0.  1.
</event>
<event>
 7    1  0.3056346E-009  0.1046132E+03  0.7561462E-02  0.1270884E+00
          2   -1    0    0  501    0  0.00000000000E+00  0.00000000000E+00  0.74927312806E+02  0.74927312806E+02  0.00000000000E+00 0. -1.
         -2   -1    0    0    0  501 -0.00000000000E+00 -0.00000000000E+00 -0.30566733871E+03  0.30566733871E+03  0.00000000000E+00 0.  1.
         25    2    1    2    0    0  0.23227830325E+02 -0.31155328641E+02 -0.23575773500E+01  0.13100753748E+03  0.12508888881E+03 0.  0.
          5    1    3    3  502    0  0.15015225096E+02 -0.68918056477E+02  0.33433018524E+02  0.78169013175E+02  0.41800000000E+01 0.  1.
         -5    1    3    3    0  502  0.82126052288E+01  0.37762727836E+02 -0.35790595874E+02  0.52838524310E+02  0.41800000000E+01 0.  1.
        -11    1    1    2    0    0 -0.30322768325E+02  0.61481230775E+02 -0.14011121027E+03  0.15598257358E+03  0.00000000000E+00 0.  1.
         11    1    1    2    0    0  0.70949380002E+01 -0.30325902134E+02 -0.88271238279E+02  0.93604540450E+02  0.00000000000E+00 0. -1.
</event>
<event>
 7    1  0.3056346E-009  0.1154823E+03  0.7561462E-02  0.1250742E+00
         -3   -1    0    0    0  501 -0.00000000000E+00  0.00000000000E+00  0.65391676458E+02  0.65391676458E+02  0.00000000000E+00 0.  1.
          3   -1    0    0  501    0  0.00000000000E+00 -0.00000000000E+00 -0.20665604438E+03  0.20665604438E+03  0.00000000000E+00 0. -1.
         25    2    1    2    0    0 -0.37207581377E+02 -0.17697864712E+02 -0.90345513851E+02  0.15970929658E+03  0.12508848473E+03 0.  0.
          5    1    3    3  502    0 -0.83397605153E+02 -0.12465576566E+02 -0.50776366197E+02  0.98520367988E+02  0.41800000000E+01 0.  1.
         -5    1    3    3    0  502  0.46190023776E+02 -0.52322881461E+01 -0.39569147654E+02  0.61188928588E+02  0.41800000000E+01 0.  1.
        -11    1    1    2    0    0  0.67077654174E+02  0.45603129447E+01 -0.38114088633E+02  0.77284486775E+02  0.00000000000E+00 0. -1.
         11    1    1    2    0    0 -0.29870072797E+02  0.13137551768E+02 -0.12804765438E+02  0.35053937486E+02  0.00000000000E+00 0.  1.
</event>
<event>
 7    1  0.3056346E-009  0.1211112E+03  0.7561462E-02  0.1241275E+00
         -1   -1    0    0    0  501 -0.00000000000E+00  0.00000000000E+00  0.28527359837E+02  0.28527359837E+02  0.00000000000E+00 0.  1.
          1   -1    0    0  501    0  0.00000000000E+00 -0.00000000000E+00 -0.79348140207E+03  0.79348140207E+03  0.00000000000E+00 0. -1.
         25    2    1    2    0    0 -0.17974614232E+02 -0.10119703147E+03 -0.42136145349E+03  0.45139309380E+03  0.12508526976E+03 0.  0.
          5    1    3    3  502    0 -0.19917485899E+02  0.13627776271E+02 -0.14170038121E+02  0.28296376287E+02  0.41800000000E+01 0.  1.
         -5    1    3    3    0  502  0.19428716664E+01 -0.11482480775E+03 -0.40719141536E+03  0.42309671751E+03  0.41800000000E+01 0.  1.
        -11    1    1    2    0    0  0.81579436300E+01  0.38848123601E+02 -0.27518138782E+02  0.48300897648E+02  0.00000000000E+00 0.  1.
         11    1    1    2    0    0  0.98166706024E+01  0.62348907873E+02 -0.31607444996E+03  0.32231477045E+03  0.00000000000E+00 0. -1.
</event>
<event>
 7    1  0.3219957E-009  0.1047466E+03  0.7561462E-02  0.1270620E+00
          2   -1    0    0  501    0  0.00000000000E+00  0.00000000000E+00  0.58488112181E+03  0.58488112181E+03  0.00000000000E+00 0. -1.
         -2   -1    0    0    0  501 -0.00000000000E+00 -0.00000000000E+00 -0.27758803765E+02  0.27758803765E+02  0.00000000000E+00 0.  1.
         25    2    1    2    0    0  0.34648337348E+02  0.31183137605E+02  0.19338221528E+03  0.23498434296E+03  0.12509222556E+03 0.  0.
          5    1    3    3  502    0  0.73638284268E+02  0.69225014347E+01  0.16492455137E+03  0.18079850105E+03  0.41800000000E+01 0. -1.
         -5    1    3    3    0  502 -0.38989946920E+02  0.24260636171E+02  0.28457663911E+02  0.54185841910E+02  0.41800000000E+01 0. -1.
        -11    1    1    2    0    0  0.19489617334E+02 -0.29224790484E+02  0.63510960297E+02  0.72578065836E+02  0.00000000000E+00 0.  1.
         11    1    1    2    0    0 -0.54137954682E+02 -0.19583471218E+01  0.30022914246E+03  0.30507751678E+03  0.00000000000E+00 0. -1.
</event>
<event>
 7    1  0.3056346E-009  0.1326789E+03  0.7561462E-02  0.1223534E+00
         -2   -1    0    0    0  501 -0.00000000000E+00  0.00000000000E+00  0.33777433548E+02  0.33777433548E+02  0.00000000000E+00 0.  1.
          2   -1    0    0  501    0  0.00000000000E+00 -0.00000000000E+00 -0.60044213183E+03  0.60044213183E+03  0.00000000000E+00 0. -1.
         25    2    1    2    0    0  0.50033957724E+02 -0.63687670527E+02 -0.41284212155E+03  0.43891430007E+03  0.12509048395E+03 0.  0.
          5    1    3    3  502    0  0.84746558736E+02 -0.73951989047E+02 -0.30817939620E+03  0.32808975684E+03  0.41800000000E+01 0.  1.
         -5    1    3    3    0  502 -0.34712601013E+02  0.10264318520E+02 -0.10466272535E+03  0.11082454323E+03  0.41800000000E+01 0.  1.
        -11    1    1    2    0    0 -0.34922982724E+02 -0.13701421705E+02 -0.27978690376E+02  0.46799046937E+02  0.00000000000E+00 0.  1.
         11    1    1    2    0    0 -0.15110975000E+02  0.77389092232E+02 -0.12584388635E+03  0.14850621837E+03  0.00000000000E+00 0. -1.
</event>
<event>
 7    1  0.3056346E-009  0.1178648E+03  0.7561462E-02  0.1246662E+00
         -2   -1    0    0    0  501 -0.00000000000E+00  0.00000000000E+00  0.19271380908E+02  0.19271380908E+02  0.00000000000E+00 0. -1.
          2   -1    0    0  501    0  0.00000000000E+00 -0.00000000000E+00 -0.81441530468E+03  0.81441530468E+03  0.00000000000E+00 0.  1.
         25    2    1    2    0    0 -0.54888182232E+02 -0.29111764720E+02 -0.39217523423E+03  0.41630421114E+03  0.12509026530E+03 0.  0.
          5    1    3    3  502    0 -0.45937550365E+02  0.45270928639E+02 -0.18290591934E+03  0.19398908022E+03  0.41800000000E+01 0.  1.
         -5    1    3    3    0  502 -0.89506318663E+01 -0.74382693359E+02 -0.20926931489E+03  0.22231513092E+03  0.41800000000E+01 0.  1.
        -11    1    1    2    0    0 -0.17732274139E+02  0.12126784817E+02 -0.29230175848E+02  0.36275275826E+02  0.00000000000E+00 0. -1.
         11    1    1    2    0    0  0.72620456370E+02  0.16984979903E+02 -0.37373851369E+03  0.38110719862E+03  0.00000000000E+00 0.  1.
</event>
<event>
 7    1  0.3056346E-009  0.1052566E+03  0.7561462E-02  0.1269615E+00
          1   -1    0    0  501    0  0.00000000000E+00  0.00000000000E+00  0.36643913905E+03  0.36643913905E+03  0.00000000000E+00 0. -1.
         -1   -1    0    0    0  501 -0.00000000000E+00 -0.00000000000E+00 -0.38416036535E+02  0.38416036535E+02  0.00000000000E+00 0.  1.
         25    2    1    2    0    0  0.23842203004E+02  0.25985806677E+02  0.13524663764E+03  0.18756909249E+03  0.12508716429E+03 0.  0.
          5    1    3    3  502    0 -0.16229378897E+02  0.67525138470E+02  0.55285888847E+02  0.88865285519E+02  0.41800000000E+01 0. -1.
         -5    1    3    3    0  502  0.40071581902E+02 -0.41539331793E+02  0.79960748796E+02  0.98703806968E+02  0.41800000000E+01 0. -1.
        -11    1    1    2    0    0 -0.40741937403E+02  0.11176160188E+02  0.15833476419E+03  0.16387406620E+03  0.00000000000E+00 0. -1.
         11    1    1    2    0    0  0.16899734399E+02 -0.37161966864E+02  0.34441700684E+02  0.53412016906E+02  0.00000000000E+00 0.  1.
</event>
<event>
 7    1  0.3056346E-009  0.1147446E+03  0.7561462E-02  0.1252028E+00
         -2   -1    0    0    0  501 -0.00000000000E+00  0.00000000000E+00  0.24547649583E+02  0.24547649583E+02  0.00000000000E+00 0.  1.
          2   -1    0    0  501    0  0.00000000000E+00 -0.00000000000E+00 -0.62584993565E+03  0.62584993565E+03  0.00000000000E+00 0. -1.
         25    2    1    2    0    0  0.35253757736E+02  0.13262213720E+02 -0.21446367203E+03  0.25112018961E+03  0.12509184331E+03 0.  0.
          5    1    3    3  502    0 -0.43875752929E+02 -0.14917917933E+02 -0.75119562635E+02  0.88363154431E+02  0.41800000000E+01 0. -1.
         -5    1    3    3    0  502  0.79129510666E+02  0.28180131652E+02 -0.13934410940E+03  0.16275703518E+03  0.41800000000E+01 0. -1.
        -11    1    1    2    0    0 -0.27037217607E+02 -0.52347503655E+02 -0.23521764777E+03  0.24248425536E+03  0.00000000000E+00 0.  1.
         11    1    1    2    0    0 -0.82165401299E+01  0.39085289936E+02 -0.15162096626E+03  0.15679314025E+03  0.00000000000E+00 0. -1.
</event>
<event>
 7    1  0.3056870E-009  0.1572726E+03  0.7561462E-02  0.1191811E+00
          2   -1    0    0  501    0  0.00000000000E+00  0.00000000000E+00  0.37709187258E+03  0.37709187258E+03  0.00000000000E+00 0. -1.
         -2   -1    0    0    0  501 -0.00000000000E+00 -0.00000000000E+00 -0.87669489861E+02  0.87669489861E+02  0.00000000000E+00 0.  1.
         25    2    1    2    0    0 -0.12221393941E+03  0.51835004050E+02  0.77838337948E+02  0.19831787808E+03  0.12509220312E+03 0.  0.
          5    1    3    3  502    0 -0.13427502400E+03  0.79025224102E+01  0.44605895743E+02  0.14177231840E+03  0.41800000000E+01 0.  1.
         -5    1    3    3    0  502  0.12061084590E+02  0.43932481640E+02  0.33232442205E+02  0.56545559679E+02  0.41800000000E+01 0.  1.
        -11    1    1    2    0    0  0.19055959490E+02 -0.16423788413E+02 -0.33903419269E+01  0.25384342345E+02  0.00000000000E+00 0.  1.
         11    1    1    2    0    0  0.10315797992E+03 -0.35411215638E+02  0.21497438670E+03  0.24105914201E+03  0.00000000000E+00 0. -1.
</event>
<event>
 7    1  0.3056346E-009  0.9478325E+02  0.7561462E-02  0.1291665E+00
         -1   -1    0    0    0  501 -0.00000000000E+00  0.00000000000E+00  0.36607626555E+02  0.36607626555E+02  0.00000000000E+00 0.  1.
          1   -1    0    0  501    0  0.00000000000E+00 -0.00000000000E+00 -0.38044662986E+03  0.38044662986E+03  0.00000000000E+00 0. -1.
         25    2    1    2    0    0  0.41708376968E+02  0.15866719310E+02 -0.17111478159E+03  0.21663314105E+03  0.12513316040E+03 0.  0.
          5    1    3    3  502    0  0.91481989457E+01  0.52586666270E+02 -0.19111020173E+02  0.56848487275E+02  0.41800000000E+01 0. -1.
         -5    1    3    3    0  502  0.32560178022E+02 -0.36719946960E+02 -0.15200376141E+03  0.15978465377E+03  0.41800000000E+01 0. -1.
        -11    1    1    2    0    0  0.17240109745E+02  0.12557521669E+02 -0.73349915931E+01  0.22554707627E+02  0.00000000000E+00 0.  1.
         11    1    1    2    0    0 -0.58948486712E+02 -0.28424240980E+02 -0.16538923012E+03  0.17786640774E+03  0.00000000000E+00 0. -1.
</event>
<event>
 7    1  0.3056346E-009  0.1355549E+03  0.7561462E-02  0.1219438E+00
         -2   -1    0    0    0  501 -0.00000000000E+00  0.00000000000E+00  0.22572986109E+03  0.22572986109E+03  0.00000000000E+00 0.  1.
          2   -1    0    0  501    0  0.00000000000E+00 -0.00000000000E+00 -0.11562675995E+03  0.11562675995E+03  0.00000000000E+00 0. -1.
         25    2    1    2    0    0  0.79690605380E+02  0.75478388545E+02  0.11085722748E+03  0.19996050379E+03  0.12508916206E+03 0.  0.
          5    1    3    3  502    0  0.88657101394E+02  0.10286719356E+02  0.98296732149E+02  0.13283681031E+03  0.41800000000E+01 0. -1.
         -5    1    3    3    0  502 -0.89664960136E+01  0.65191669189E+02  0.12560495333E+02  0.67123693473E+02  0.41800000000E+01 0. -1.
        -11    1    1    2    0    0  0.18943874632E+01 -0.12801939509E+02 -0.31470792754E+02  0.34027770360E+02  0.00000000000E+00 0. -1.
         11    1    1    2    0    0 -0.81584992843E+02 -0.62676449036E+02  0.30716666413E+02  0.10736834690E+03  0.00000000000E+00 0.  1.
</event>
<event>
 7    1  0.3276855E-009  0.1890538E+03  0.7561462E-02  0.1159318E+00
         -4   -1    0    0    0  501 -0.00000000000E+00  0.00000000000E+00  0.19413615036E+02  0.19413615036E+02  0.00000000000E+00 0.  1.
          4   -1    0    0  501    0  0.00000000000E+00 -0.00000000000E+00 -0.18500418447E+04  0.18500418447E+04  0.00000000000E+00 0. -1.
         25    2    1    2    0    0 -0.15410541605E+03 -0.57763646742E+01 -0.10244940487E+04  0.10435581836E+04  0.12507510132E+03 0.  0.
          5    1    3    3  502    0  0.21609658159E+02  0.45209811855E+01 -0.11101122593E+03  0.11326244426E+03  0.41800000000E+01 0. -1.
         -5    1    3    3    0  502 -0.17571507421E+03 -0.10297345860E+02 -0.91348282280E+03  0.93029573932E+03  0.41800000000E+01 0. -1.
        -11    1    1    2    0    0  0.78655541192E+02 -0.43084408478E+02 -0.40910596353E+03  0.41882054607E+03  0.00000000000E+00 0.  1.
         11    1    1    2    0    0  0.75449874859E+02  0.48860773152E+02 -0.39702821737E+03  0.40707673006E+03  0.00000000000E+00 0. -1.
</event>
<event>
 7    1  0.3056346E-009  0.1213518E+03  0.7561462E-02  0.1240884E+00
          3   -1    0    0  501    0  0.00000000000E+00  0.00000000000E+00  0.37325520935E+02  0.37325520935E+02  0.00000000000E+00 0. -1.
         -3   -1    0    0    0  501 -0.00000000000E+00 -0.00000000000E+00 -0.62792972770E+03  0.62792972770E+03  0.00000000000E+00 0.  1.
         25    2    1    2    0    0  0.68255491173E+02 -0.38089001547E+01 -0.39768555625E+03  0.42246369979E+03  0.12509378959E+03 0.  0.
          5    1    3    3  502    0  0.17643021443E+02  0.49373584884E+02 -0.75643526955E+02  0.92132744777E+02  0.41800000000E+01 0. -1.
         -5    1    3    3    0  502  0.50612469730E+02 -0.53182485039E+02 -0.32204202929E+03  0.33033095501E+03  0.41800000000E+01 0. -1.
        -11    1    1    2    0    0 -0.41094977587E+02  0.48934657451E+02 -0.28181719964E+02  0.69839868433E+02  0.00000000000E+00 0. -1.
         11    1    1    2    0    0 -0.27160513587E+02 -0.45125757296E+02 -0.16473693055E+03  0.17295168041E+03  0.00000000000E+00 0.  1.
</event>
<event>
 7    1  0.3056346E-009  0.1061192E+03  0.7561462E-02  0.1267930E+00
          2   -1    0    0  501    0  0.00000000000E+00  0.00000000000E+00  0.66670246234E+03  0.66670246234E+03  0.00000000000E+00 0. -1.
         -2   -1    0    0    0  501 -0.00000000000E+00 -0.00000000000E+00 -0.23763095319E+02  0.23763095319E+02  0.00000000000E+00 0.  1.
         25    2    1    2    0    0 -0.54869512495E+02 -0.93566503522E+01  0.43352000466E+03  0.45462111152E+03  0.12507018145E+03 0.  0.
          5    1    3    3  502    0  0.20736653298E+02  0.12983404615E+02  0.28797596388E+03  0.28904360529E+03  0.41800000000E+01 0.  1.
         -5    1    3    3    0  502 -0.75606165793E+02 -0.22340054967E+02  0.14554404078E+03  0.16557750623E+03  0.41800000000E+01 0.  1.
        -11    1    1    2    0    0  0.71627966820E+02  0.33504317355E+02  0.15332306188E+03  0.17251395948E+03  0.00000000000E+00 0.  1.
         11    1    1    2    0    0 -0.16758454325E+02 -0.24147667003E+02  0.56096300483E+02  0.63330486662E+02  0.00000000000E+00 0. -1.
</event>
<event>
 7    1  0.3056346E-009  0.1482871E+03  0.7561462E-02  0.1202594E+00
          3   -1    0    0  501    0  0.00000000000E+00  0.00000000000E+00  0.38967060645E+02  0.38967060645E+02  0.00000000000E+00 0. -1.
         -3   -1    0    0    0  501 -0.00000000000E+00 -0.00000000000E+00 -0.73309825703E+03  0.73309825703E+03  0.00000000000E+00 0.  1.
         25    2    1    2    0    0  0.77771586260E+02  0.79965509522E+02 -0.22394201491E+03  0.27971469524E+03  0.12508949735E+03 0.  0.
          5    1    3    3  502    0  0.10092595670E+03  0.43712028410E+02 -0.10094669420E+03  0.14934690366E+03  0.41800000000E+01 0.  1.
         -5    1    3    3    0  502 -0.23154370440E+02  0.36253481112E+02 -0.12299532072E+03  0.13036779158E+03  0.41800000000E+01 0.  1.
        -11    1    1    2    0    0  0.18518052325E+02 -0.28829418165E+02 -0.76095935277E+02  0.83454448529E+02  0.00000000000E+00 0. -1.
         11    1    1    2    0    0 -0.96289638586E+02 -0.51136091357E+02 -0.39409324620E+03  0.40889617391E+03  0.00000000000E+00 0.  1.
</event>
<event>
 7    1  0.3056346E-009  0.1262182E+03  0.7561462E-02  0.1233178E+00
          1   -1    0    0  501    0  0.00000000000E+00  0.00000000000E+00  0.64409011423E+02  0.64409011423E+02  0.00000000000E+00 0. -1.
         -1   -1    0    0    0  501 -0.00000000000E+00 -0.00000000000E+00 -0.34114956750E+03  0.34114956750E+03  0.00000000000E+00 0.  1.
         25    2    1    2    0    0 -0.92174092251E+02 -0.42580888975E+02 -0.15503638823E+03  0.22359014358E+03  0.12508826980E+03 0.  0.
          5    1    3    3  502    0 -0.22469590462E+02  0.25077970406E+02  0.69766541677E+01  0.34640051943E+02  0.41800000000E+01 0.  1.
         -5    1    3    3    0  502 -0.69704501789E+02 -0.67658859382E+02 -0.16201304240E+03  0.18895009163E+03  0.41800000000E+01 0.  1.
        -11    1    1    2    0    0  0.33648380576E+01 -0.15039286496E+02 -0.54353830620E+02  0.56496381977E+02  0.00000000000E+00 0.  1.
         11    1    1    2    0    0  0.88809254193E+02  0.57620175471E+02 -0.67350337228E+02  0.12547205337E+03  0.00000000000E+00 0. -1.
</event>
<event>
 7    1  0.3056346E-009  0.9479892E+02  0.7561462E-02  0.1291630E+00
         -2   -1    0    0    0  501 -0.00000000000E+00  0.00000000000E+00  0.58289450637E+02  0.58289450637E+02  0.00000000000E+00 0.  1.
          2   -1    0    0  501    0  0.00000000000E+00 -0.00000000000E+00 -0.32419943020E+03  0.32419943020E+03  0.00000000000E+00 0. -1.
         25    2    1    2    0    0 -0.56808209291E+02  0.60214517778E+02 -0.11279026702E+03  0.18767451941E+03  0.12508844914E+03 0.  0.
          5    1    3    3  502    0 -0.41742624061E+02  0.51780910581E+02 -0.14007302194E+03  0.15511812673E+03  0.41800000000E+01 0. -1.
         -5    1    3    3    0  502 -0.15065585230E+02  0.84336071970E+01  0.27282754921E+02  0.32556392687E+02  0.41800000000E+01 0. -1.
        -11    1    1    2    0    0 -0.14544346673E+02 -0.13947692806E+02 -0.56614752989E+00  0.20159282671E+02  0.00000000000E+00 0.  1.
         11    1    1    2    0    0  0.71352555965E+02 -0.46266824971E+02 -0.15255356502E+03  0.17465507875E+03  0.00000000000E+00 0. -1.
</event>
<event>
 7    1  0.3056346E-009  0.1048080E+03  0.7561462E-02  0.1270498E+00
         -1   -1    0    0    0  501 -0.00000000000E+00  0.00000000000E+00  0.50060899845E+02  0.50060899845E+02  0.00000000000E+00 0.  1.
          1   -1    0    0  501    0  0.00000000000E+00 -0.00000000000E+00 -0.27918557490E+03  0.27918557490E+03  0.00000000000E+00 0. -1.
         25    2    1    2    0    0  0.69727460966E+01 -0.35478304003E+02 -0.16412993494E+03  0.20950739977E+03  0.12508951103E+03 0.  0.
          5    1    3    3  502    0  0.64216740832E+02 -0.31937035853E+02 -0.79073259558E+02  0.10683546621E+03  0.41800000000E+01 0. -1.
         -5    1    3    3    0  502 -0.57243994735E+02 -0.35412681504E+01 -0.85056675387E+02  0.10267193356E+03  0.41800000000E+01 0. -1.
        -11    1    1    2    0    0  0.24555888072E+02 -0.86496360069E+01  0.93953359043E+01  0.27678153457E+02  0.00000000000E+00 0.  1.
         11    1    1    2    0    0 -0.31528634169E+02  0.44127940010E+02 -0.74390076017E+02  0.92060921524E+02  0.00000000000E+00 0. -1.
</event>
<event>
 7    1  0.3056346E-009  0.1140701E+03  0.7561462E-02  0.1253213E+00
          1   -1    0    0  501    0  0.00000000000E+00  0.00000000000E+00  0.11718447518E+03  0.11718447518E+03  0.00000000000E+00 0. -1.
         -1   -1    0    0    0  501 -0.00000000000E+00 -0.00000000000E+00 -0.15850891080E+03  0.15850891080E+03  0.00000000000E+00 0.  1.
         25    2    1    2    0    0 -0.76638169284E+02 -0.16068504413E+02 -0.47668820437E+02  0.15508579626E+03  0.12509069483E+03 0.  0.
          5    1    3    3  502    0  0.10104007921E+02 -0.18122819867E+02 -0.63369760596E+02  0.66811125825E+02  0.41800000000E+01 0. -1.
         -5    1    3    3    0  502 -0.86742177205E+02  0.20543154544E+01  0.15700940159E+02  0.88274670434E+02  0.41800000000E+01 0. -1.
        -11    1    1    2    0    0  0.28933404980E+02 -0.38155611359E+02 -0.18592599268E+01  0.47921283887E+02  0.00000000000E+00 0.  1.
         11    1    1    2    0    0  0.47704764305E+02  0.54224115772E+02  0.82036447445E+01  0.72686305833E+02  0.00000000000E+00 0. -1.
</event>
<event>
 7    1  0.3056346E-009  0.1236620E+03  0.7561462E-02  0.1237175E+00
         -1   -1    0    0    0  501 -0.00000000000E+00  0.00000000000E+00  0.36299982288E+02  0.36299982288E+02  0.00000000000E+00 0.  1.
          1   -1    0    0  501    0  0.00000000000E+00 -0.00000000000E+00 -0.70414683680E+03  0.70414683680E+03  0.00000000000E+00 0. -1.
         25    2    1    2    0    0  0.11108344306E+03 -0.15125598098E+02 -0.27190094527E+03  0.31960385314E+03  0.12509270106E+03 0.  0.
          5    1    3    3  502    0  0.59964695854E+02  0.65175757246E+01 -0.25404569912E+03  0.26114159604E+03  0.41800000000E+01 0.  1.
         -5    1    3    3    0  502  0.51118747210E+02 -0.21643173823E+02 -0.17855246156E+02  0.58462257095E+02  0.41800000000E+01 0.  1.
        -11    1    1    2    0    0 -0.92252019396E+02 -0.17142711397E+02 -0.34582988586E+03  0.35833310982E+03  0.00000000000E+00 0. -1.
         11    1    1    2    0    0 -0.18831423668E+02  0.32268309495E+02 -0.50116023381E+02  0.62509856139E+02  0.00000000000E+00 0.  1.
</event>
<event>
 7    1  0.3056346E-009  0.1573272E+03  0.7561462E-02  0.1191748E+00
         -2   -1    0    0    0  501 -0.00000000000E+00  0.00000000000E+00  0.60831533254E+02  0.60831533254E+02  0.00000000000E+00 0. -1.
          2   -1    0    0  501    0  0.00000000000E+00 -0.00000000000E+00 -0.57580140543E+03  0.57580140543E+03  0.00000000000E+00 0.  1.
         25    2    1    2    0    0 -0.10728995888E+03 -0.86173635903E+02 -0.38806521497E+03  0.43031446799E+03  0.12505558559E+03 0.  0.
          5    1    3    3  502    0 -0.23406054036E+02  0.17884180270E+02 -0.13645542419E+02  0.32731643670E+02  0.41800000000E+01 0.  1.
         -5    1    3    3    0  502 -0.83883904848E+02 -0.10405781617E+03 -0.37441967255E+03  0.39758282432E+03  0.41800000000E+01 0.  1.
        -11    1    1    2    0    0  0.38279633727E+02 -0.30277855904E+01 -0.26159471999E+01  0.38488193301E+02  0.00000000000E+00 0. -1.
         11    1    1    2    0    0  0.69010325157E+02  0.89201421494E+02 -0.12428871000E+03  0.16783027739E+03  0.00000000000E+00 0.  1.
</event>
<event>
 7    1  0.3056346E-009  0.1071291E+03  0.7561462E-02  0.1265981E+00
          2   -1    0    0  501    0  0.00000000000E+00  0.00000000000E+00  0.12372690301E+03  0.12372690301E+03  0.00000000000E+00 0. -1.
         -2   -1    0    0    0  501 -0.00000000000E+00 -0.00000000000E+00 -0.11435153193E+03  0.11435153193E+03  0.00000000000E+00 0.  1.
         25    2    1    2    0    0 -0.55522966675E+01  0.41601953507E+02  0.32710394235E+02  0.13593676963E+03  0.12508910788E+03 0.  0.
          5    1    3    3  502    0 -0.24463934438E+02 -0.32001332032E+02  0.43078055413E+02  0.59124957490E+02  0.41800000000E+01 0.  1.
         -5    1    3    3    0  502  0.18911637771E+02  0.73603285539E+02 -0.10367661178E+02  0.76811812136E+02  0.41800000000E+01 0.  1.
        -11    1    1    2    0    0  0.44918034989E+02 -0.74401178007E+01 -0.20529193351E+02  0.49944298972E+02  0.00000000000E+00 0. -1.
         11    1    1    2    0    0 -0.39365738322E+02 -0.34161835706E+02 -0.28058297976E+01  0.52197366344E+02  0.00000000000E+00 0.  1.
</event>
<event>
 7    1  0.3056346E-009  0.9560264E+02  0.7561462E-02  0.1289825E+00
          1   -1    0    0  501    0  0.00000000000E+00  0.00000000000E+00  0.14506316692E+03  0.14506316692E+03  0.00000000000E+00 0. -1.
         -1   -1    0    0    0  501 -0.00000000000E+00 -0.00000000000E+00 -0.12967762882E+03  0.12967762882E+03  0.00000000000E+00 0.  1.
         25    2    1    2    0    0  0.11812383297E+02 -0.62819397791E+02  0.62374197183E+02  0.15370183280E+03  0.12509158163E+03 0.  0.
          5    1    3    3  502    0  0.33334681767E+02 -0.67671826890E+02 -0.11561179302E+02  0.76431737060E+02  0.41800000000E+01 0. -1.
         -5    1    3    3    0  502 -0.21522298471E+02  0.48524290994E+01  0.73935376484E+02  0.77270095739E+02  0.41800000000E+01 0. -1.
        -11    1    1    2    0    0  0.20778422211E+02  0.56231917252E+02 -0.60479885245E+02  0.85156255593E+02  0.00000000000E+00 0.  1.
         11    1    1    2    0    0 -0.32590805508E+02  0.65874805388E+01  0.13491226161E+02  0.35882707351E+02  0.00000000000E+00 0. -1.
</event>
<event>
 7    1  0.3056346E-009  0.1900488E+03  0.7561462E-02  0.1158417E+00
          2   -1    0    0  501    0  0.00000000000E+00  0.00000000000E+00  0.25068978398E+03  0.25068978398E+03  0.00000000000E+00 0. -1.
         -2   -1    0    0    0  501 -0.00000000000E+00 -0.00000000000E+00 -0.19100725482E+03  0.19100725482E+03  0.00000000000E+00 0.  1.
         25    2    1    2    0    0  0.93806192875E+02  0.14675555269E+03  0.10062926943E+03  0.23687633345E+03  0.12508938171E+03 0.  0.
          5    1    3    3  502    0  0.92614816983E+02  0.60843779539E+02  0.90935858473E+01  0.11126381055E+03  0.41800000000E+01 0.  1.
         -5    1    3    3    0  502  0.11913758919E+01  0.85911773147E+02  0.91535683585E+02  0.12561252291E+03  0.41800000000E+01 0.  1.
        -11    1    1    2    0    0 -0.18033596036E+02 -0.80609784057E+02 -0.60458056226E+02  0.10236368709E+03  0.00000000000E+00 0.  1.
         11    1    1    2    0    0 -0.75772596839E+02 -0.66145768630E+02  0.19511315953E+02  0.10245701825E+03  0.00000000000E+00 0. -1.
</event>
<event>
 7    1  0.3056346E-009  0.1161681E+03  0.7561462E-02  0.1249556E+00
         -1   -1    0    0    0  501 -0.00000000000E+00  0.00000000000E+00  0.11919752636E+03  0.11919752636E+03  0.00000000000E+00 0. -1.
          1   -1    0    0  501    0  0.00000000000E+00 -0.00000000000E+00 -0.13887232659E+03  0.13887232659E+03  0.00000000000E+00 0.  1.
         25    2    1    2    0    0  0.26154066583E+02 -0.60819263615E+02  0.24644581508E+01  0.14155012804E+03  0.12508935674E+03 0.  0.
          5    1    3    3  502    0 -0.35824524937E+02 -0.36460738808E+02  0.39956626399E+02  0.65013740506E+02  0.41800000000E+01 0. -1.
         -5    1    3    3    0  502  0.61978591520E+02 -0.24358524807E+02 -0.37492168248E+02  0.76536387539E+02  0.41800000000E+01 0. -1.
        -11    1    1    2    0    0  0.33749920987E+02  0.85313451114E+01 -0.86406653225E+01  0.35867842327E+02  0.00000000000E+00 0.  1.
         11    1    1    2    0    0 -0.59903987570E+02  0.52287918504E+02 -0.13498593055E+02  0.80651882573E+02  0.00000000000E+00 0. -1.
</event>
<event>
 7    1  0.3056346E-009  0.1225963E+03  0.7561462E-02  0.1238874E+00
          1   -1    0    0  501    0  0.00000000000E+00  0.00000000000E+00  0.49670842695E+03  0.49670842695E+03  0.00000000000E+00 0. -1.
         -1   -1    0    0    0  501 -0.00000000000E+00 -0.00000000000E+00 -0.41489168394E+02  0.41489168394E+02  0.00000000000E+00 0.  1.
         25    2    1    2    0    0 -0.49471003204E+02 -0.72239695355E+02  0.18757332151E+03  0.24186333573E+03  0.12509263960E+03 0.  0.
          5    1    3    3  502    0 -0.83472738037E+02 -0.52884363837E+02  0.17417571441E+03  0.20029754323E+03  0.41800000000E+01 0.  1.
         -5    1    3    3    0  502  0.34001734833E+02 -0.19355331518E+02  0.13397607102E+02  0.41565792497E+02  0.41800000000E+01 0.  1.
        -11    1    1    2    0    0 -0.65025004155E+01  0.43570491412E+02  0.37823599788E+02  0.58062853310E+02  0.00000000000E+00 0.  1.
         11    1    1    2    0    0  0.55973503620E+02  0.28669203943E+02  0.22982233725E+03  0.23827140630E+03  0.00000000000E+00 0. -1.
</event>
<event>
 7    1  0.3056346E-009  0.1026998E+03  0.7561462E-02  0.1274719E+00
          1   -1    0    0  501    0  0.00000000000E+00  0.00000000000E+00  0.17859607253E+03  0.17859607253E+03  0.00000000000E+00 0. -1.
         -1   -1    0    0    0  501 -0.00000000000E+00 -0.00000000000E+00 -0.92328531462E+02  0.92328531462E+02  0.00000000000E+00 0.  1.
         25    2    1    2    0    0  0.44867211192E+01  0.62622005955E+02  0.72726271259E+02  0.15773141410E+03  0.12509373353E+03 0.  0.
          5    1    3    3  502    0  0.47143264614E+02  0.80524246258E+02  0.45576846967E+02  0.10392960605E+03  0.41800000000E+01 0. -1.
         -5    1    3    3    0  502 -0.42656543495E+02 -0.17902240303E+02  0.27149424292E+02  0.53801808057E+02  0.41800000000E+01 0. -1.
        -11    1    1    2    0    0 -0.93058071361E+01 -0.14796017751E+02 -0.38540944817E+02  0.42319317281E+02  0.00000000000E+00 0.  1.
         11    1    1    2    0    0  0.48190860169E+01 -0.47825988204E+02  0.52082214626E+02  0.70873872605E+02  0.00000000000E+00 0. -1.
</event>
<event>
 7    1  0.3056346E-009  0.1756458E+03  0.7561462E-02  0.1172085E+00
          2   -1    0    0  501    0  0.00000000000E+00  0.00000000000E+00  0.34818193057E+03  0.34818193057E+03  0.00000000000E+00 0. -1.
         -2   -1    0    0    0  501 -0.00000000000E+00 -0.00000000000E+00 -0.98280261300E+02  0.98280261300E+02  0.00000000000E+00 0.  1.
         25    2    1    2    0    0  0.14230472511E+03  0.55416220057E+02  0.15010687366E+03  0.24799377650E+03  0.12508895808E+03 0.  0.
          5    1    3    3  502    0  0.14614126170E+03  0.81540118702E+02  0.14341855487E+03  0.22043686990E+03  0.41800000000E+01 0.  1.
         -5    1    3    3    0  502 -0.38365365956E+01 -0.26123898645E+02  0.66883187897E+01  0.27556906606E+02  0.41800000000E+01 0.  1.
        -11    1    1    2    0    0 -0.37599383898E+02  0.21664569495E+01 -0.68808850384E+01  0.38285164021E+02  0.00000000000E+00 0.  1.
         11    1    1    2    0    0 -0.10470534121E+03 -0.57582677006E+02  0.10667568066E+03  0.16018325135E+03  0.00000000000E+00 0. -1.
</event>
<event>
 7    1  0.3056346E-009  0.1978391E+03  0.7561462E-02  0.1151575E+00
         -2   -1    0    0    0  501 -0.00000000000E+00  0.00000000000E+00  0.84296061334E+02  0.84296061334E+02  0.00000000000E+00 0.  1.
          2   -1    0    0  501    0  0.00000000000E+00 -0.00000000000E+00 -0.11505352140E+04  0.11505352140E+04  0.00000000000E+00 0. -1.
         25    2    1    2    0    0  0.19540637084E+02 -0.85745514611E+01 -0.54255711710E+03  0.55719659449E+03  0.12507781647E+03 0.  0.
          5    1    3    3  502    0  0.19045879280E+02  0.50528199315E+02 -0.13671778014E+03  0.14705464376E+03  0.41800000000E+01 0.  1.
         -5    1    3    3    0  502  0.49475780312E+00 -0.59102750776E+02 -0.40583933695E+03  0.41014195074E+03  0.41800000000E+01 0.  1.
        -11    1    1    2    0    0  0.89567778921E+02  0.10404389789E+03 -0.51434855240E+03  0.53235510054E+03  0.00000000000E+00 0. -1.
         11    1    1    2    0    0 -0.10910841600E+03 -0.95469346433E+02 -0.93334831913E+01  0.14527958033E+03  0.00000000000E+00 0.  1.
</event>
<event>
 7    1  0.3056346E-009  0.8298238E+02  0.7561462E-02  0.1320795E+00
          1   -1    0    0  501    0  0.00000000000E+00  0.00000000000E+00  0.23149328141E+03  0.23149328141E+03  0.00000000000E+00 0. -1.
         -1   -1    0    0    0  501 -0.00000000000E+00 -0.00000000000E+00 -0.76889153218E+02  0.76889153218E+02  0.00000000000E+00 0.  1.
         25    2    1    2    0    0 -0.27104280034E+02 -0.63157719370E+02  0.12233086190E+03  0.18797838419E+03  0.12508994219E+03 0.  0.
          5    1    3    3  502    0  0.17440815926E+01 -0.66551717726E+02  0.13903640027E+03  0.15421013570E+03  0.41800000000E+01 0. -1.
         -5    1    3    3    0  502 -0.28848361627E+02  0.33939983564E+01 -0.16705538375E+02  0.33768248486E+02  0.41800000000E+01 0. -1.
        -11    1    1    2    0    0  0.22294029687E+02  0.36089352826E+02  0.65027864114E+02  0.77640764153E+02  0.00000000000E+00 0. -1.
         11    1    1    2    0    0  0.48102503470E+01  0.27068366544E+02 -0.32754597819E+02  0.42763286287E+02  0.00000000000E+00 0.  1.
</event>
<event>
 7    1  0.3056346E-009  0.1112228E+03  0.7561462E-02  0.1258322E+00
         -3   -1    0    0    0  501 -0.00000000000E+00  0.00000000000E+00  0.26128522891E+03  0.26128522891E+03  0.00000000000E+00 0.  1.
          3   -1    0    0  501    0  0.00000000000E+00 -0.00000000000E+00 -0.53961294477E+02  0.53961294477E+02  0.00000000000E+00 0. -1.
         25    2    1    2    0    0  0.14595294256E+01 -0.46678920368E+02  0.13106820941E+03  0.18710451139E+03  0.12509264899E+03 0.  0.
          5    1    3    3  502    0  0.53882981199E+02 -0.58861897152E+01  0.20601704552E+02  0.58137126887E+02  0.41800000000E+01 0.  1.
         -5    1    3    3    0  502 -0.52423451773E+02 -0.40792730653E+02  0.11046650486E+03  0.12896738450E+03  0.41800000000E+01 0.  1.
        -11    1    1    2    0    0  0.44322927515E+02  0.21236000852E+02  0.26211812624E+02  0.55700527437E+02  0.00000000000E+00 0. -1.
         11    1    1    2    0    0 -0.45782456941E+02  0.25442919516E+02  0.50043912398E+02  0.72441484559E+02  0.00000000000E+00 0.  1.
</event>
<event>
 7    1  0.3056346E-009  0.2506176E+03  0.7561462E-02  0.1112915E+00
         -2   -1    0    0    0  501 -0.00000000000E+00  0.00000000000E+00  0.92018498103E+02  0.92018498103E+02  0.00000000000E+00 0.  1.
          2   -1    0    0  501    0  0.00000000000E+00 -0.00000000000E+00 -0.69465777923E+03  0.69465777923E+03  0.00000000000E+00 0. -1.
         25    2    1    2    0    0 -0.13719464165E+03 -0.18340895249E+03 -0.32823750445E+03  0.41934308250E+03  0.12509015933E+03 0.  0.
          5    1    3    3  502    0 -0.28308570356E+02  0.13957665437E+02 -0.67642375956E+02  0.74760651449E+02  0.41800000000E+01 0. -1.
         -5    1    3    3    0  502 -0.10888607129E+03 -0.19736661793E+03 -0.26059512850E+03  0.34458243105E+03  0.41800000000E+01 0. -1.
        -11    1    1    2    0    0  0.14776109394E+03  0.15747281553E+03 -0.23727053042E+03  0.32082445842E+03  0.00000000000E+00 0.  1.
         11    1    1    2    0    0 -0.10566452297E+02  0.25936136961E+02 -0.37131246252E+02  0.46508736414E+02  0.00000000000E+00 0. -1.
</event>
<event>
 7    1  0.3056346E-009  0.1228763E+03  0.7561462E-02  0.1238426E+00
         -1   -1    0    0    0  501 -0.00000000000E+00  0.00000000000E+00  0.39997299852E+02  0.39997299852E+02  0.00000000000E+00 0.  1.
          1   -1    0    0  501    0  0.00000000000E+00 -0.00000000000E+00 -0.44371157822E+03  0.44371157822E+03  0.00000000000E+00 0. -1.
         25    2    1    2    0    0 -0.58536514543E+02  0.26097448961E+02 -0.28552653158E+03  0.31824395838E+03  0.12508483696E+03 0.  0.
          5    1    3    3  502    0 -0.30465966539E+02  0.76635104555E+02 -0.16567385233E+03  0.18511189079E+03  0.41800000000E+01 0.  1.
         -5    1    3    3    0  502 -0.28070548003E+02 -0.50537655594E+02 -0.11985267925E+03  0.13313206759E+03  0.41800000000E+01 0.  1.
        -11    1    1    2    0    0 -0.19718698650E+02 -0.17726314235E+02 -0.40483173251E+01  0.26822344527E+02  0.00000000000E+00 0.  1.
         11    1    1    2    0    0  0.78255213192E+02 -0.83711347265E+01 -0.11413942947E+03  0.13864257517E+03  0.00000000000E+00 0. -1.
</event>
<event>
 7    1  0.3056346E-009  0.1796824E+03  0.7561462E-02  0.1168111E+00
          1   -1    0    0  501    0  0.00000000000E+00  0.00000000000E+00  0.65033299451E+03  0.65033299451E+03  0.00000000000E+00 0. -1.
         -1   -1    0    0    0  501 -0.00000000000E+00 -0.00000000000E+00 -0.69561713464E+02  0.69561713464E+02  0.00000000000E+00 0.  1.
         25    2    1    2    0    0  0.15224509635E+03  0.70626942805E+02  0.17678446239E+03  0.27398649779E+03  0.12509644447E+03 0.  0.
          5    1    3    3  502    0  0.57612724907E+02  0.44776658482E+02  0.15790555050E+03  0.17399945544E+03  0.41800000000E+01 0. -1.
         -5    1    3    3    0  502  0.94632371442E+02  0.25850284323E+02  0.18878911889E+02  0.99987042353E+02  0.41800000000E+01 0. -1.
        -11    1    1    2    0    0 -0.61219155388E+02 -0.75176648592E+02  0.18948220356E+03  0.21284458871E+03  0.00000000000E+00 0. -1.
         11    1    1    2    0    0 -0.91025940961E+02  0.45497057873E+01  0.21450461510E+03  0.23306362147E+03  0.00000000000E+00 0.  1.
</event>
<event>
 7    1  0.3056346E-009  0.1178815E+03  0.7561462E-02  0.1246633E+00
         -2   -1    0    0    0  501 -0.00000000000E+00  0.00000000000E+00  0.41460051769E+02  0.41460051769E+02  0.00000000000E+00 0.  1.
          2   -1    0    0  501    0  0.00000000000E+00 -0.00000000000E+00 -0.37392341154E+03  0.37392341154E+03  0.00000000000E+00 0. -1.
         25    2    1    2    0    0  0.54743793614E+02 -0.33512113260E+01 -0.22955686838E+03  0.26712235003E+03  0.12509948244E+03 0.  0.
          5    1    3    3  502    0  0.85649392007E+02 -0.27198904324E+02 -0.11488832614E+03  0.14591915101E+03  0.41800000000E+01 0. -1.
         -5    1    3    3    0  502 -0.30905598394E+02  0.23847692998E+02 -0.11466854224E+03  0.12120319902E+03  0.41800000000E+01 0. -1.
        -11    1    1    2    0    0 -0.33827749068E+02 -0.43575443977E+02 -0.57693413646E+02  0.79822715457E+02  0.00000000000E+00 0. -1.
         11    1    1    2    0    0 -0.20916044546E+02  0.46926655303E+02 -0.45213077741E+02  0.68438397820E+02  0.00000000000E+00 0.  1.
</event>
<event>
 7    1  0.3056346E-009  0.1464019E+03  0.7561462E-02  0.1204965E+00
          1   -1    0    0  501    0  0.00000000000E+00  0.00000000000E+00  0.40406077406E+02  0.40406077406E+02  0.00000000000E+00 0. -1.
         -1   -1    0    0    0  501 -0.00000000000E+00 -0.00000000000E+00 -0.87349420539E+03  0.87349420539E+03  0.00000000000E+00 0.  1.
         25    2    1    2    0    0 -0.83249423334E+02 -0.72597391975E+02 -0.69363293830E+03  0.71342726496E+03  0.12510380282E+03 0.  0.
          5    1    3    3  502    0 -0.54070828509E+02  0.28596755734E+02 -0.27121718677E+03  0.27806053969E+03  0.41800000000E+01 0.  1.
         -5    1    3    3    0  502 -0.29178594825E+02 -0.10119414771E+03 -0.42241575153E+03  0.43536672526E+03  0.41800000000E+01 0.  1.
        -11    1    1    2    0    0 -0.48808687398E-01  0.34495148565E+02 -0.10613808273E+01  0.34511508024E+02  0.00000000000E+00 0. -1.
         11    1    1    2    0    0  0.83298232021E+02  0.38102243409E+02 -0.13839380885E+03  0.16596150981E+03  0.00000000000E+00 0.  1.
</event>
<event>
 7    1  0.3056346E-009  0.1642443E+03  0.7561462E-02  0.1183987E+00
         -3   -1    0    0    0  501 -0.00000000000E+00  0.00000000000E+00  0.15942813532E+04  0.15942813532E+04  0.00000000000E+00 0.  1.
          3   -1    0    0  501    0  0.00000000000E+00 -0.00000000000E+00 -0.18387302655E+02  0.18387302655E+02  0.00000000000E+00 0. -1.
         25    2    1    2    0    0  0.16934413865E+02 -0.13084333847E+03  0.87923088928E+03  0.89783157098E+03  0.12509124501E+03 0.  0.
          5    1    3    3  502    0  0.23906813958E+02  0.12579675967E+02  0.29234557301E+03  0.29362082770E+03  0.41800000000E+01 0.  1.
         -5    1    3    3    0  502 -0.69724000937E+01 -0.14342301444E+03  0.58688531627E+03  0.60421074328E+03  0.41800000000E+01 0.  1.
        -11    1    1    2    0    0  0.33524486225E+02  0.75488305808E+02  0.42963916356E+03  0.43750678435E+03  0.00000000000E+00 0. -1.
         11    1    1    2    0    0 -0.50458900090E+02  0.55355032664E+02  0.26702399766E+03  0.27733030048E+03  0.00000000000E+00 0.  1.
</event>
<event>
 7    1  0.3056346E-009  0.1401210E+03  0.7561462E-02  0.1213166E+00
         -2   -1    0    0    0  501 -0.00000000000E+00  0.00000000000E+00  0.25480067526E+02  0.25480067526E+02  0.00000000000E+00 0.  1.
          2   -1    0    0  501    0  0.00000000000E+00 -0.00000000000E+00 -0.83593952840E+03  0.83593952840E+03  0.00000000000E+00 0. -1.
         25    2    1    2    0    0  0.53134708925E+02  0.77272789125E+02 -0.48569130706E+03  0.51023317238E+03  0.12508982054E+03 0.  0.
          5    1    3    3  502    0  0.92201296956E+02  0.52448652676E+02 -0.28231420576E+03  0.30161353336E+03  0.41800000000E+01 0. -1.
         -5    1    3    3    0  502 -0.39066588031E+02  0.24824136449E+02 -0.20337710130E+03  0.20861963902E+03  0.41800000000E+01 0. -1.
        -11    1    1    2    0    0 -0.45612527847E+02  0.41860918555E+01 -0.17080158863E+03  0.17683667250E+03  0.00000000000E+00 0. -1.
         11    1    1    2    0    0 -0.75221810780E+01 -0.81458880981E+02 -0.15396656518E+03  0.17434975105E+03  0.00000000000E+00 0.  1.
</event>
<event>
 7    1  0.3056346E-009  0.5917340E+02  0.7561462E-02  0.1401334E+00
          3   -1    0    0  501    0  0.00000000000E+00  0.00000000000E+00  0.61790484537E+02  0.61790484537E+02  0.00000000000E+00 0. -1.
         -3   -1    0    0    0  501 -0.00000000000E+00 -0.00000000000E+00 -0.25381242933E+03  0.25381242933E+03  0.00000000000E+00 0.  1.
         25    2    1    2    0    0  0.37438589287E+02  0.30353155429E+02 -0.62817877855E+02  0.14804520196E+03  0.12509330132E+03 0.  0.
          5    1    3    3  502    0  0.37146303226E+02  0.31541472953E+02 -0.99623855181E+02  0.11098241879E+03  0.41800000000E+01 0. -1.
         -5    1    3    3    0  502  0.29228606128E+00 -0.11883175238E+01  0.36805977326E+02  0.37062783174E+02  0.41800000000E+01 0. -1.
        -11    1    1    2    0    0 -0.41697613189E+01 -0.31517546945E+02 -0.13042721824E+03  0.13424604997E+03  0.00000000000E+00 0.  1.
         11    1    1    2    0    0 -0.33268827968E+02  0.11643915154E+01  0.12231512957E+01  0.33311661938E+02  0.00000000000E+00 0. -1.
</event>
<event>
 7    1  0.3056346E-009  0.1387282E+03  0.7561462E-02  0.1215051E+00
          1   -1    0    0  501    0  0.00000000000E+00  0.00000000000E+00  0.27181587237E+03  0.27181587237E+03  0.00000000000E+00 0. -1.
         -1   -1    0    0    0  501 -0.00000000000E+00 -0.00000000000E+00 -0.99651342913E+02  0.99651342913E+02  0.00000000000E+00 0.  1.
         25    2    1    2    0    0 -0.11039107803E+03  0.19555775374E+02  0.14636541982E+03  0.22279755175E+03  0.12508914616E+03 0.  0.
          5    1    3    3  502    0 -0.11135972293E+03 -0.30058059602E+02  0.11980342311E+03  0.16635746880E+03  0.41800000000E+01 0.  1.
         -5    1    3    3    0  502  0.96864489786E+00  0.49613834976E+02  0.26561996714E+02  0.56440082950E+02  0.41800000000E+01 0.  1.
        -11    1    1    2    0    0  0.52514750832E+02 -0.66003216518E+01  0.60158232839E+02  0.80127250540E+02  0.00000000000E+00 0. -1.
         11    1    1    2    0    0  0.57876327202E+02 -0.12955453722E+02 -0.34359123201E+02  0.68542412992E+02  0.00000000000E+00 0.  1.
</event>
<event>
 7    1  0.3056346E-009  0.1065581E+03  0.7561462E-02  0.1267080E+00
          2   -1    0    0  501    0  0.00000000000E+00  0.00000000000E+00  0.20890855307E+03  0.20890855307E+03  0.00000000000E+00 0.  1.
         -2   -1    0    0    0  501 -0.00000000000E+00 -0.00000000000E+00 -0.13418580215E+03  0.13418580215E+03  0.00000000000E+00 0. -1.
         25    2    1    2    0    0 -0.66706829318E+02 -0.56836541156E+02 -0.54889006966E+02  0.16230178989E+03  0.12509546126E+03 0.  0.
          5    1    3    3  502    0 -0.38427968065E+02 -0.12753851403E+02  0.37934414876E+02  0.55640468071E+02  0.41800000000E+01 0.  1.
         -5    1    3    3    0  502 -0.28278861254E+02 -0.44082689753E+02 -0.92823421842E+02  0.10666132182E+03  0.41800000000E+01 0.  1.
        -11    1    1    2    0    0  0.50970835543E+02 -0.93665149489E+01  0.84578595283E+02  0.99193227886E+02  0.00000000000E+00 0.  1.
         11    1    1    2    0    0  0.15735993776E+02  0.66203056105E+02  0.45033162597E+02  0.81599337443E+02  0.00000000000E+00 0. -1.
</event>
<event>
 7    1  0.3056346E-009  0.1113109E+03  0.7561462E-02  0.1258161E+00
          2   -1    0    0  501    0  0.00000000000E+00  0.00000000000E+00  0.10465075633E+04  0.10465075633E+04  0.00000000000E+00 0. -1.
         -2   -1    0    0    0  501 -0.00000000000E+00 -0.00000000000E+00 -0.14496989163E+02  0.14496989163E+02  0.00000000000E+00 0.  1.
         25    2    1    2    0    0  0.11915854840E+02 -0.49615042601E+02  0.69947548016E+03  0.71240477292E+03  0.12510384919E+03 0.  0.
          5    1    3    3  502    0 -0.29227920552E+02  0.21781503033E+02  0.87338900405E+02  0.94732576963E+02  0.41800000000E+01 0. -1.
         -5    1    3    3    0  502  0.41143775393E+02 -0.71396545633E+02  0.61213657976E+03  0.61767219596E+03  0.41800000000E+01 0. -1.
        -11    1    1    2    0    0 -0.51319943340E+02  0.26979884346E+02  0.21191730158E+03  0.21970569736E+03  0.00000000000E+00 0. -1.
         11    1    1    2    0    0  0.39404088499E+02  0.22635158254E+02  0.12061779243E+03  0.12889408222E+03  0.00000000000E+00 0.  1.
</event>
<event>
 7    1  0.3056346E-009  0.1342788E+03  0.7561462E-02  0.1221241E+00
         -1   -1    0    0    0  501 -0.00000000000E+00  0.00000000000E+00  0.31617985235E+02  0.31617985235E+02  0.00000000000E+00 0.  1.
          1   -1    0    0  501    0  0.00000000000E+00 -0.00000000000E+00 -0.10513109407E+04  0.10513109407E+04  0.00000000000E+00 0. -1.
         25    2    1    2    0    0 -0.93529168268E+02 -0.13776195279E+02 -0.86911955023E+03  0.88314980658E+03  0.12508916577E+03 0.  0.
          5    1    3    3  502    0  0.30519483274E+02  0.51028539243E+01 -0.17942513890E+03  0.18212174732E+03  0.41800000000E+01 0.  1.
         -5    1    3    3    0  502 -0.12404865154E+03 -0.18879049204E+02 -0.68969441133E+03  0.70102805926E+03  0.41800000000E+01 0.  1.
        -11    1    1    2    0    0  0.14692948559E+02  0.28053375967E+02 -0.10033094467E+03  0.10521013781E+03  0.00000000000E+00 0. -1.
         11    1    1    2    0    0  0.78836219709E+02 -0.14277180687E+02 -0.50242460566E+02  0.94568981543E+02  0.00000000000E+00 0.  1.
</event>
<event>
 7    1  0.3056346E-009  0.1199167E+03  0.7561462E-02  0.1243235E+00
         -1   -1    0    0    0  501 -0.00000000000E+00  0.00000000000E+00  0.99034342638E+02  0.99034342638E+02  0.00000000000E+00 0. -1.
          1   -1    0    0  501    0  0.00000000000E+00 -0.00000000000E+00 -0.24899508201E+03  0.24899508201E+03  0.00000000000E+00 0.  1.
         25    2    1    2    0    0 -0.63116266835E+02 -0.85103689885E+02 -0.34106225163E+02  0.16744135618E+03  0.12508825682E+03 0.  0.
          5    1    3    3  502    0 -0.50014631521E+02 -0.59616515490E+02 -0.80951781107E+02  0.11236661226E+03  0.41800000000E+01 0.  1.
         -5    1    3    3    0  502 -0.13101635313E+02 -0.25487174395E+02  0.46845555945E+02  0.55074743924E+02  0.41800000000E+01 0.  1.
        -11    1    1    2    0    0  0.77033352674E+02  0.42192848257E+02 -0.99213239203E+02  0.13250524783E+03  0.00000000000E+00 0.  1.
         11    1    1    2    0    0 -0.13917085839E+02  0.42910841628E+02 -0.16641275010E+02  0.48082820647E+02  0.00000000000E+00 0. -1.
</event>
<event>
 7    1  0.3056346E-009  0.1209684E+03  0.7561462E-02  0.1241508E+00
          1   -1    0    0  501    0  0.00000000000E+00  0.00000000000E+00  0.62139824716E+03  0.62139824716E+03  0.00000000000E+00 0. -1.
         -1   -1    0    0    0  501 -0.00000000000E+00 -0.00000000000E+00 -0.31039490715E+02  0.31039490715E+02  0.00000000000E+00 0.  1.
         25    2    1    2    0    0 -0.13280504052E+02  0.85173444185E+02  0.29644643851E+03  0.33310433734E+03  0.12508845376E+03 0.  0.
          5    1    3    3  502    0 -0.31134415830E+02  0.21842772802E+00  0.20328094310E+03  0.20569398092E+03  0.41800000000E+01 0.  1.
         -5    1    3    3    0  502  0.17853911778E+02  0.84955016457E+02  0.93165495412E+02  0.12741035642E+03  0.41800000000E+01 0.  1.
        -11    1    1    2    0    0 -0.33466381966E+02 -0.64148503995E+02  0.19371991329E+03  0.20679079789E+03  0.00000000000E+00 0. -1.
         11    1    1    2    0    0  0.46746886017E+02 -0.21024940190E+02  0.10019240465E+03  0.11254260265E+03  0.00000000000E+00 0.  1.
</event>
<event>
 7    1  0.3369598E-009  0.1418360E+03  0.7561462E-02  0.1210880E+00
          2   -1    0    0  501    0  0.00000000000E+00  0.00000000000E+00  0.13264277119E+04  0.13264277119E+04  0.00000000000E+00 0. -1.
         -2   -1    0    0    0  501 -0.00000000000E+00 -0.00000000000E+00 -0.15340737912E+02  0.15340737912E+02  0.00000000000E+00 0.  1.
         25    2    1    2    0    0 -0.47888958340E+02  0.80040604296E+02  0.70091468327E+03  0.71807266971E+03  0.12508842910E+03 0.  0.
          5    1    3    3  502    0  0.18134480412E+02  0.86150195565E+02  0.44727549873E+03  0.45587669357E+03  0.41800000000E+01 0.  1.
         -5    1    3    3    0  502 -0.66023438752E+02 -0.61095912694E+01  0.25363918454E+03  0.26219597614E+03  0.41800000000E+01 0.  1.
        -11    1    1    2    0    0  0.74445560635E+02 -0.63172962193E+02  0.45200820672E+03  0.46243311256E+03  0.00000000000E+00 0. -1.
         11    1    1    2    0    0 -0.26556602295E+02 -0.16867642103E+02  0.15816408395E+03  0.16126266750E+03  0.00000000000E+00 0.  1.
</event>
<event>
 7    1  0.3406130E-009  0.1243959E+03  0.7561462E-02  0.1236016E+00
         -2   -1    0    0    0  501 -0.00000000000E+00  0.00000000000E+00  0.55176499814E+02  0.55176499814E+02  0.00000000000E+00 0.  1.
          2   -1    0    0  501    0  0.00000000000E+00 -0.00000000000E+00 -0.34763614323E+03  0.34763614323E+03  0.00000000000E+00 0. -1.
         25    2    1    2    0    0  0.10289284339E+02 -0.85187744747E+02 -0.15651268315E+03  0.21798439720E+03  0.12513255455E+03 0.  0.
          5    1    3    3  502    0  0.59344107615E+02 -0.74215089858E+02 -0.12976315793E+03  0.16088987609E+03  0.41800000000E+01 0.  1.
         -5    1    3    3    0  502 -0.49054823276E+02 -0.10972654889E+02 -0.26749525222E+02  0.57094521116E+02  0.41800000000E+01 0.  1.
        -11    1    1    2    0    0  0.21355779141E+02  0.14574080782E+02 -0.92583821870E+02  0.96126152557E+02  0.00000000000E+00 0. -1.
         11    1    1    2    0    0 -0.31645063481E+02  0.70613663965E+02 -0.43363138390E+02  0.88702093280E+02  0.00000000000E+00 0.  1.
</event>
<event>
 7    1  0.3056346E-009  0.1074704E+03  0.7561462E-02  0.1265327E+00
         -1   -1    0    0    0  501 -0.00000000000E+00  0.00000000000E+00  0.44307987241E+03  0.44307987241E+03  0.00000000000E+00 0.  1.
          1   -1    0    0  501    0  0.00000000000E+00 -0.00000000000E+00 -0.42028352131E+02  0.42028352131E+02  0.00000000000E+00 0. -1.
         25    2    1    2    0    0  0.29423349306E+01 -0.76554492891E+02  0.27007408886E+03  0.30732646595E+03  0.12506116697E+03 0.  0.
          5    1    3    3  502    0 -0.38082210803E+02  0.42118463664E+01  0.24816084627E+02  0.45839992209E+02  0.41800000000E+01 0.  1.
         -5    1    3    3    0  502  0.41024545734E+02 -0.80766339258E+02  0.24525800423E+03  0.26148647374E+03  0.41800000000E+01 0.  1.
        -11    1    1    2    0    0 -0.19538020411E+02  0.55916386645E+02  0.13817737516E+03  0.15033749879E+03  0.00000000000E+00 0.  1.
         11    1    1    2    0    0  0.16595685480E+02  0.20638106247E+02 -0.71999437409E+01  0.27444259798E+02  0.00000000000E+00 0. -1.
</event>
<event>
 7    1  0.3056346E-009  0.2347739E+03  0.7561462E-02  0.1123324E+00
         -1   -1    0    0    0  501 -0.00000000000E+00  0.00000000000E+00  0.57854222678E+02  0.57854222678E+02  0.00000000000E+00 0.  1.
          1   -1    0    0  501    0  0.00000000000E+00 -0.00000000000E+00 -0.10607693084E+04  0.10607693084E+04  0.00000000000E+00 0. -1.
         25    2    1    2    0    0  0.21137118400E+03 -0.67760018003E+02 -0.48507058916E+03  0.54791481162E+03  0.12509183370E+03 0.  0.
          5    1    3    3  502    0  0.16777884278E+02  0.11323718138E+02 -0.15690149488E+03  0.15825699191E+03  0.41800000000E+01 0. -1.
         -5    1    3    3    0  502  0.19459329972E+03 -0.79083736141E+02 -0.32816909428E+03  0.38965781971E+03  0.41800000000E+01 0. -1.
        -11    1    1    2    0    0 -0.13871888569E+03  0.86857313627E+02 -0.37940858566E+03  0.41320454626E+03  0.00000000000E+00 0. -1.
         11    1    1    2    0    0 -0.72652298307E+02 -0.19097295624E+02 -0.13843591095E+03  0.15750417324E+03  0.00000000000E+00 0.  1.
</event>
<event>
 6    1  0.3056346E-009  0.9342690E+02  0.7561462E-02  0.1294759E+00
         -2   -1    0    0    0  501 -0.00000000000E+00  0.00000000000E+00  0.28791663181E+03  0.28791663181E+03  0.00000000000E+00 0.  1.
          2   -1    0    0  501    0  0.00000000000E+00 -0.00000000000E+00 -0.42132527141E+02  0.42132527141E+02  0.00000000000E+00 0. -1.
          5    1    1    2  502    0 -0.44171638946E+01  0.70899720423E+02  0.16153238663E+03  0.17651194301E+03  0.41800000000E+01 0. -1.
         -5    1    1    2    0  502 -0.46571472411E+00 -0.34818369556E+02  0.64099813399E+01  0.35652433431E+02  0.41800000000E+01 0. -1.
        -11    1    1    2    0    0 -0.22095934183E+02 -0.46672767372E+02  0.71530258330E+02  0.88222193230E+02  0.00000000000E+00 0.  1.
         11    1    1    2    0    0  0.26978812802E+02  0.10591416505E+02  0.63114783663E+01  0.29662589283E+02  0.00000000000E+00 0. -1.
</event>
<event>
 7    1  0.3056346E-009  0.1782899E+03  0.7561462E-02  0.1169468E+00
          2   -1    0    0  501    0  0.00000000000E+00  0.00000000000E+00  0.57506076076E+03  0.57506076076E+03  0.00000000000E+00 0. -1.
         -2   -1    0    0    0  501 -0.00000000000E+00 -0.00000000000E+00 -0.11922479965E+03  0.11922479965E+03  0.00000000000E+00 0.  1.
         25    2    1    2    0    0  0.16402739839E+02 -0.17715308193E+03  0.44334798456E+03  0.49381981271E+03  0.12509319606E+03 0.  0.
          5    1    3    3  502    0  0.17023942145E+02 -0.13055903989E+03  0.42257270173E+03  0.44262923328E+03  0.41800000000E+01 0.  1.
         -5    1    3    3    0  502 -0.62120230673E+00 -0.46594042045E+02  0.20775282834E+02  0.51190579438E+02  0.41800000000E+01 0.  1.
        -11    1    1    2    0    0 -0.16471007106E+02  0.14847242028E+03 -0.26855492978E+02  0.15177803254E+03  0.00000000000E+00 0.  1.
         11    1    1    2    0    0  0.68267267079E-01  0.28680661659E+02  0.39343469522E+02  0.48687715162E+02  0.00000000000E+00 0. -1.
</event>
<event>
 7    1  0.3056346E-009  0.9325532E+02  0.7561462E-02  0.1295155E+00
          1   -1    0    0  501    0  0.00000000000E+00  0.00000000000E+00  0.16810204314E+03  0.16810204314E+03  0.00000000000E+00 0.  1.
         -1   -1    0    0    0  501 -0.00000000000E+00 -0.00000000000E+00 -0.14704579254E+03  0.14704579254E+03  0.00000000000E+00 0. -1.
         25    2    1    2    0    0  0.68354550891E+02  0.16563973498E+02 -0.77810098254E+02  0.16320555355E+03  0.12503971959E+03 0.  0.
          5    1    3    3  502    0 -0.21739584579E+02  0.98379737471E+01 -0.68056589160E+02  0.72239649731E+02  0.41800000000E+01 0.  1.
         -5    1    3    3    0  502  0.90094135470E+02  0.67259997507E+01 -0.97535090943E+01  0.90965903823E+02  0.41800000000E+01 0.  1.
        -11    1    1    2    0    0 -0.25200233029E+02  0.10763939702E+01  0.10213865339E+03  0.10520700967E+03  0.00000000000E+00 0.  1.
         11    1    1    2    0    0 -0.43154317862E+02 -0.17640367468E+02 -0.32723045353E+01  0.46735272456E+02  0.00000000000E+00 0. -1.
</event>
<event>
 7    1  0.3056346E-009  0.1069814E+03  0.7561462E-02  0.1266264E+00
         -4   -1    0    0    0  501 -0.00000000000E+00  0.00000000000E+00  0.73117084769E+02  0.73117084769E+02  0.00000000000E+00 0.  1.
          4   -1    0    0  501    0  0.00000000000E+00 -0.00000000000E+00 -0.25182736628E+03  0.25182736628E+03  0.00000000000E+00 0. -1.
         25    2    1    2    0    0  0.34690362954E+02  0.10015724094E+02 -0.10511005496E+02  0.13061857212E+03  0.12508794560E+03 0.  0.
          5    1    3    3  502    0  0.54311331410E+02 -0.37004612454E+02  0.22702021738E+02  0.69655697925E+02  0.41800000000E+01 0.  1.
         -5    1    3    3    0  502 -0.19620968456E+02  0.47020336548E+02 -0.33213027234E+02  0.60962874197E+02  0.41800000000E+01 0.  1.
        -11    1    1    2    0    0  0.30251534350E+02 -0.10570231308E+02 -0.48214002337E+02  0.57891926396E+02  0.00000000000E+00 0.  1.
         11    1    1    2    0    0 -0.64941897304E+02  0.55450721386E+00 -0.11998527367E+03  0.13643395253E+03  0.00000000000E+00 0. -1.
</event>
<event>
 7    1  0.3056346E-009  0.8277385E+02  0.7561462E-02  0.1321359E+00
          1   -1    0    0  501    0  0.00000000000E+00  0.00000000000E+00  0.74336484887E+03  0.74336484887E+03  0.00000000000E+00 0. -1.
         -1   -1    0    0    0  501 -0.00000000000E+00 -0.00000000000E+00 -0.34538611133E+02  0.34538611133E+02  0.00000000000E+00 0.  1.
         25    2    1    2    0    0 -0.36559175873E+02 -0.53679540178E+02  0.61685493693E+03  0.63275347938E+03  0.12509550783E+03 0.  0.
          5    1    3    3  502    0 -0.46270819136E+02 -0.36338004149E+02  0.60756140001E+03  0.61041769833E+03  0.41800000000E+01 0.  1.
         -5    1    3    3    0  502  0.97116432637E+01 -0.17341536030E+02  0.92935369189E+01  0.22335781052E+02  0.41800000000E+01 0.  1.
        -11    1    1    2    0    0  0.51976722418E+02  0.43523285519E+02  0.19756934866E+02  0.70612977072E+02  0.00000000000E+00 0.  1.
         11    1    1    2    0    0 -0.15417546545E+02  0.10156254659E+02  0.72214365941E+02  0.74537003551E+02  0.00000000000E+00 0. -1.
</event>
<event>
 7    1  0.3056346E-009  0.1150031E+03  0.7561462E-02  0.1251576E+00
         -2   -1    0    0    0  501 -0.00000000000E+00  0.00000000000E+00  0.12723621599E+03  0.12723621599E+03  0.00000000000E+00 0.  1.
          2   -1    0    0  501    0  0.00000000000E+00 -0.00000000000E+00 -0.14288840220E+03  0.14288840220E+03  0.00000000000E+00 0. -1.
         25    2    1    2    0    0 -0.61072494699E+02  0.49936428996E+02  0.97770926661E+01  0.14820888733E+03  0.12508711442E+03 0.  0.
          5    1    3    3  502    0 -0.59399959548E+02 -0.97957539373E+01  0.48036436630E+02  0.77131599450E+02  0.41800000000E+01 0. -1.
         -5    1    3    3    0  502 -0.16725351511E+01  0.59732182933E+02 -0.38259343964E+02  0.71077287880E+02  0.41800000000E+01 0. -1.
        -11    1    1    2    0    0  0.37965017590E+02 -0.69688161902E+02  0.41951466432E+01  0.79469376021E+02  0.00000000000E+00 0.  1.
         11    1    1    2    0    0  0.23107477110E+02  0.19751732906E+02 -0.29624425521E+02  0.42446354833E+02  0.00000000000E+00 0. -1.
</event>
<event>
 7    1  0.3056346E-009  0.8229887E+02  0.7561462E-02  0.1322651E+00
          1   -1    0    0  501    0  0.00000000000E+00  0.00000000000E+00  0.56144499769E+02  0.56144499769E+02  0.00000000000E+00 0. -1.
         -1   -1    0    0    0  501 -0.00000000000E+00 -0.00000000000E+00 -0.35186962285E+03  0.35186962285E+03  0.00000000000E+00 0.  1.
         25    2    1    2    0    0  0.86534010559E+01  0.42202775459E+02 -0.27593441393E+03  0.30601775852E+03  0.12510440494E+03 0.  0.
          5    1    3    3  502    0  0.28051780923E+02  0.14988065828E+02 -0.43722485667E+01  0.32374889772E+02  0.41800000000E+01 0.  1.
         -5    1    3    3    0  502 -0.19398379867E+02  0.27214709630E+02 -0.27156216536E+03  0.27364286875E+03  0.41800000000E+01 0.  1.
        -11    1    1    2    0    0 -0.40397478335E+02 -0.51786238233E+02 -0.55654154800E+01  0.65914676481E+02  0.00000000000E+00 0.  1.
         11    1    1    2    0    0  0.31744077279E+02  0.95834627744E+01 -0.14225293669E+02  0.36081687613E+02  0.00000000000E+00 0. -1.
</event>
<event>
 6    1  0.3056346E-009  0.1944906E+03  0.7561462E-02  0.1154472E+00
         -2   -1    0    0    0  501 -0.00000000000E+00  0.00000000000E+00  0.33651299731E+03  0.33651299731E+03  0.00000000000E+00 0.  1.
          2   -1    0    0  501    0  0.00000000000E+00 -0.00000000000E+00 -0.12008874908E+03  0.12008874908E+03  0.00000000000E+00 0. -1.
          5    1    1    2  502    0 -0.61705276996E+02  0.15587260177E+03  0.11452186104E+03  0.20306781687E+03  0.41800000000E+01 0. -1.
         -5    1    1    2    0  502 -0.29852157457E+02 -0.19897628119E+02  0.44999085333E+02  0.57701447039E+02  0.41800000000E+01 0. -1.
        -11    1    1    2    0    0  0.43588220428E+01 -0.83052749924E+02  0.10693696016E+02  0.83851736619E+02  0.00000000000E+00 0.  1.
         11    1    1    2    0    0  0.87198612410E+02 -0.52922223729E+02  0.46209605838E+02  0.11198074586E+03  0.00000000000E+00 0. -1.
</event>
<event>
 7    1  0.3056346E-009  0.8580757E+02  0.7561462E-02  0.1313334E+00
         -1   -1    0    0    0  501 -0.00000000000E+00  0.00000000000E+00  0.82500598848E+02  0.82500598848E+02  0.00000000000E+00 0.  1.
          1   -1    0    0  501    0  0.00000000000E+00 -0.00000000000E+00 -0.14360299680E+03  0.14360299680E+03  0.00000000000E+00 0. -1.
         25    2    1    2    0    0  0.58642625583E+01 -0.56131916504E+01 -0.34682629744E+02  0.13006016575E+03  0.12508742708E+03 0.  0.
          5    1    3    3  502    0  0.56971441285E+02  0.22649326168E+02 -0.36514331503E+02  0.71480807935E+02  0.41800000000E+01 0. -1.
         -5    1    3    3    0  502 -0.51107178727E+02 -0.28262517818E+02  0.18317017591E+01  0.58579357816E+02  0.41800000000E+01 0. -1.
        -11    1    1    2    0    0 -0.17096322929E+02  0.24359312206E+02 -0.53515157936E+02  0.61233426147E+02  0.00000000000E+00 0. -1.
         11    1    1    2    0    0  0.11232060370E+02 -0.18746120555E+02  0.27095389732E+02  0.34810003745E+02  0.00000000000E+00 0.  1.
</event>
<event>
 7    1  0.3056346E-009  0.2216267E+03  0.7561462E-02  0.1132676E+00
         -3   -1    0    0    0  501 -0.00000000000E+00  0.00000000000E+00  0.78199750958E+02  0.78199750958E+02  0.00000000000E+00 0.  1.
          3   -1    0    0  501    0  0.00000000000E+00 -0.00000000000E+00 -0.75823439550E+03  0.75823439550E+03  0.00000000000E+00 0. -1.
         25    2    1    2    0    0 -0.19318413685E+03  0.85164248254E+02 -0.43502618087E+03  0.49946631709E+03  0.12508302824E+03 0.  0.
          5    1    3    3  502    0 -0.13537223258E+03  0.69254380568E+02 -0.40428289729E+03  0.43195363643E+03  0.41800000000E+01 0. -1.
         -5    1    3    3    0  502 -0.57811904271E+02  0.15909867686E+02 -0.30743283582E+02  0.67512680665E+02  0.41800000000E+01 0. -1.
        -11    1    1    2    0    0  0.20394834617E+03 -0.81948225328E+02 -0.22903086582E+03  0.31743594163E+03  0.00000000000E+00 0.  1.
         11    1    1    2    0    0 -0.10764209312E+02 -0.32160229265E+01 -0.15977597854E+02  0.19531887742E+02  0.00000000000E+00 0. -1.
</event>
<event>
 7    1  0.3056346E-009  0.1408417E+03  0.7561462E-02  0.1212201E+00
         -2   -1    0    0    0  501 -0.00000000000E+00  0.00000000000E+00  0.10466119056E+03  0.10466119056E+03  0.00000000000E+00 0.  1.
          2   -1    0    0  501    0  0.00000000000E+00 -0.00000000000E+00 -0.24781998240E+03  0.24781998240E+03  0.00000000000E+00 0. -1.
         25    2    1    2    0    0 -0.29721019808E+02  0.11338943638E+03 -0.97082548360E+02  0.19700973619E+03  0.12508921478E+03 0.  0.
          5    1    3    3  502    0  0.50226558652E+01  0.91900984817E+02 -0.58179894403E+00  0.92134841250E+02  0.41800000000E+01 0.  1.
         -5    1    3    3    0  502 -0.34743675674E+02  0.21488451568E+02 -0.96500749416E+02  0.10487489494E+03  0.41800000000E+01 0.  1.
        -11    1    1    2    0    0  0.45756784615E+02 -0.12198968675E+03 -0.40189260481E+02  0.13634641055E+03  0.00000000000E+00 0.  1.
         11    1    1    2    0    0 -0.16035764806E+02  0.86002503614E+01 -0.58869830036E+01  0.19125026224E+02  0.00000000000E+00 0. -1.
</event>
<event>
 7    1  0.3056346E-009  0.9902450E+02  0.7561462E-02  0.1282361E+00
         -2   -1    0    0    0  501 -0.00000000000E+00  0.00000000000E+00  0.61200447604E+02  0.61200447604E+02  0.00000000000E+00 0. -1.
          2   -1    0    0  501    0  0.00000000000E+00 -0.00000000000E+00 -0.20173552331E+03  0.20173552331E+03  0.00000000000E+00 0.  1.
         25    2    1    2    0    0 -0.93792171887E+01 -0.27111461662E+02 -0.72487656308E+02  0.14739352753E+03  0.12508953023E+03 0.  0.
          5    1    3    3  502    0 -0.34498971494E+02  0.27762327673E+02  0.95207920454E+01  0.45486742608E+02  0.41800000000E+01 0.  1.
         -5    1    3    3    0  502  0.25119754305E+02 -0.54873789336E+02 -0.82008448353E+02  0.10190678492E+03  0.41800000000E+01 0.  1.
        -11    1    1    2    0    0 -0.32862569515E+02  0.37208921876E+02 -0.40924823148E+02  0.64337341350E+02  0.00000000000E+00 0. -1.
         11    1    1    2    0    0  0.42241786704E+02 -0.10097460214E+02 -0.27122596251E+02  0.51205102032E+02  0.00000000000E+00 0.  1.
</event>
<event>
 7    1  0.3056346E-009  0.1254336E+03  0.7561462E-02  0.1234393E+00
          1   -1    0    0  501    0  0.00000000000E+00  0.00000000000E+00  0.63292822640E+03  0.63292822640E+03  0.00000000000E+00 0. -1.
         -1   -1    0    0    0  501 -0.00000000000E+00 -0.00000000000E+00 -0.53854856490E+02  0.53854856490E+02  0.00000000000E+00 0.  1.
         25    2    1    2    0    0 -0.81163438608E+00  0.12197129743E+03  0.46356281739E+03  0.49539391447E+03  0.12508792377E+03 0.  0.
          5    1    3    3  502    0  0.93818009110E+01  0.54910260590E+01 -0.48307834403E+01  0.12608664646E+02  0.41800000000E+01 0.  1.
         -5    1    3    3    0  502 -0.10193435297E+02  0.11648027138E+03  0.46839360083E+03  0.48278524982E+03  0.41800000000E+01 0.  1.
        -11    1    1    2    0    0 -0.34175594033E+01 -0.42741321745E+02  0.10234178790E+03  0.11096099246E+03  0.00000000000E+00 0. -1.
         11    1    1    2    0    0  0.42291937894E+01 -0.79229975690E+02  0.13168764622E+02  0.80428175969E+02  0.00000000000E+00 0.  1.
</event>
<event>
 7    1  0.3056346E-009  0.1273485E+03  0.7561462E-02  0.1231444E+00
          1   -1    0    0  501    0  0.00000000000E+00  0.00000000000E+00  0.25118577347E+02  0.25118577347E+02  0.00000000000E+00 0. -1.
         -1   -1    0    0    0  501 -0.00000000000E+00 -0.00000000000E+00 -0.71515784728E+03  0.71515784728E+03  0.00000000000E+00 0.  1.
         25    2    1    2    0    0 -0.55303321850E+02  0.49054042952E+02 -0.31380772056E+03  0.34581508626E+03  0.12509209353E+03 0.  0.
          5    1    3    3  502    0  0.35329940671E+02  0.33218696919E+01 -0.39338296804E+02  0.53143329981E+02  0.41800000000E+01 0. -1.
         -5    1    3    3    0  502 -0.90633262521E+02  0.45732173260E+02 -0.27446942376E+03  0.29267175628E+03  0.41800000000E+01 0. -1.
        -11    1    1    2    0    0  0.76030389978E+02 -0.14999339810E+02 -0.27344508228E+03  0.28421437933E+03  0.00000000000E+00 0.  1.
         11    1    1    2    0    0 -0.20727068128E+02 -0.34054703142E+02 -0.10278646708E+03  0.11024695903E+03  0.00000000000E+00 0. -1.
</event>
<event>
 7    1  0.3056346E-009  0.6980082E+02  0.7561462E-02  0.1360772E+00
         -2   -1    0    0    0  501 -0.00000000000E+00  0.00000000000E+00  0.22094621978E+02  0.22094621978E+02  0.00000000000E+00 0.  1.
          2   -1    0    0  501    0  0.00000000000E+00 -0.00000000000E+00 -0.53299415497E+03  0.53299415497E+03  0.00000000000E+00 0. -1.
         25    2    1    2    0    0 -0.18207078514E+02  0.89034362613E+01 -0.29710206430E+03  0.32300062258E+03  0.12509594994E+03 0.  0.
          5    1    3    3  502    0  0.19472348035E+02  0.24481174730E+01 -0.28032804719E+03  0.28104528471E+03  0.41800000000E+01 0.  1.
         -5    1    3    3    0  502 -0.37679426548E+02  0.64553187883E+01 -0.16774017108E+02  0.41955337868E+02  0.41800000000E+01 0.  1.
        -11    1    1    2    0    0 -0.57036779039E+01  0.32646405802E+02 -0.40759432451E+02  0.52532381320E+02  0.00000000000E+00 0.  1.
         11    1    1    2    0    0  0.23910756417E+02 -0.41549842064E+02 -0.17303803625E+03  0.17955577305E+03  0.00000000000E+00 0. -1.
</event>
<event>
 7    1  0.3056346E-009  0.9347904E+02  0.7561462E-02  0.1294639E+00
          3   -1    0    0  501    0  0.00000000000E+00  0.00000000000E+00  0.32156803020E+03  0.32156803020E+03  0.00000000000E+00 0. -1.
         -3   -1    0    0    0  501 -0.00000000000E+00 -0.00000000000E+00 -0.39880278954E+02  0.39880278954E+02  0.00000000000E+00 0.  1.
         25    2    1    2    0    0 -0.10568012772E+02 -0.22533878117E+02  0.19736602708E+03  0.23498976709E+03  0.12508950168E+03 0.  0.
          5    1    3    3  502    0  0.20628360738E+02 -0.48037776810E+02  0.25319936266E+02  0.58238551151E+02  0.41800000000E+01 0.  1.
         -5    1    3    3    0  502 -0.31196373510E+02  0.25503898694E+02  0.17204609082E+03  0.17675121594E+03  0.41800000000E+01 0.  1.
        -11    1    1    2    0    0  0.39069141624E+02 -0.19145713888E+02  0.43556173215E+02  0.61563758922E+02  0.00000000000E+00 0.  1.
         11    1    1    2    0    0 -0.28501128852E+02  0.41679592004E+02  0.40765550945E+02  0.64894783144E+02  0.00000000000E+00 0. -1.
</event>
<event>
 7    1  0.3056346E-009  0.1042123E+03  0.7561462E-02  0.1271679E+00
         -1   -1    0    0    0  501 -0.00000000000E+00  0.00000000000E+00  0.49703493797E+02  0.49703493797E+02  0.00000000000E+00 0.  1.
          1   -1    0    0  501    0  0.00000000000E+00 -0.00000000000E+00 -0.33840443605E+03  0.33840443605E+03  0.00000000000E+00 0. -1.
         25    2    1    2    0    0  0.24260009327E+02  0.34693879707E+02 -0.73553972170E+02  0.15116313934E+03  0.12509154460E+03 0.  0.
          5    1    3    3  502    0  0.33767820575E+02  0.69599040753E+02 -0.83002975809E+02  0.11353967841E+03  0.41800000000E+01 0.  1.
         -5    1    3    3    0  502 -0.95078112479E+01 -0.34905161046E+02  0.94490036388E+01  0.37623460927E+02  0.41800000000E+01 0.  1.
        -11    1    1    2    0    0  0.24817458374E+02 -0.37956846827E+02 -0.67491197460E+02  0.81312300397E+02  0.00000000000E+00 0.  1.
         11    1    1    2    0    0 -0.49077467701E+02  0.32629671202E+01 -0.14765577263E+03  0.15563249012E+03  0.00000000000E+00 0. -1.
</event>
<event>
 7    1  0.3056346E-009  0.1610646E+03  0.7561462E-02  0.1187500E+00
          3   -1    0    0  501    0  0.00000000000E+00  0.00000000000E+00  0.15797315042E+04  0.15797315042E+04  0.00000000000E+00 0. -1.
         -3   -1    0    0    0  501 -0.00000000000E+00 -0.00000000000E+00 -0.16614036729E+02  0.16614036729E+02  0.00000000000E+00 0.  1.
         25    2    1    2    0    0 -0.11920982861E+03 -0.62976708049E+01  0.85967021046E+03  0.87688628676E+03  0.12508415272E+03 0.  0.
          5    1    3    3  502    0 -0.14227698684E+03 -0.21849617075E+02  0.68595841390E+03  0.70091123886E+03  0.41800000000E+01 0. -1.
         -5    1    3    3    0  502  0.23067158231E+02  0.15551946270E+02  0.17371179655E+03  0.17597504790E+03  0.41800000000E+01 0. -1.
        -11    1    1    2    0    0  0.47247971593E+02 -0.42087866248E+02  0.33727452402E+03  0.34315865698E+03  0.00000000000E+00 0. -1.
         11    1    1    2    0    0  0.71961857017E+02  0.48385537053E+02  0.36617273299E+03  0.37630059719E+03  0.00000000000E+00 0.  1.
</event>
<event>
 7    1  0.3056346E-009  0.6417704E+02  0.7561462E-02  0.1381094E+00
          1   -1    0    0  501    0  0.00000000000E+00  0.00000000000E+00  0.14501456240E+03  0.14501456240E+03  0.00000000000E+00 0. -1.
         -1   -1    0    0    0  501 -0.00000000000E+00 -0.00000000000E+00 -0.87477274140E+02  0.87477274140E+02  0.00000000000E+00 0.  1.
         25    2    1    2    0    0  0.27449344835E+02  0.15592397692E+02  0.24737273616E+02  0.13137303812E+03  0.12510137106E+03 0.  0.
          5    1    3    3  502    0  0.27513967404E+02  0.14243506386E+02 -0.48663827422E+02  0.57840611821E+02  0.41800000000E+01 0.  1.
         -5    1    3    3    0  502 -0.64622568898E-01  0.13488913058E+01  0.73401101038E+02  0.73532426299E+02  0.41800000000E+01 0.  1.
        -11    1    1    2    0    0 -0.52553701491E+01 -0.50804485867E+02  0.55661026762E+01  0.51377973866E+02  0.00000000000E+00 0.  1.
         11    1    1    2    0    0 -0.22193974686E+02  0.35212088175E+02  0.27233911966E+02  0.49740824550E+02  0.00000000000E+00 0. -1.
</event>
<event>
 7    1  0.3056346E-009  0.8487610E+02  0.7561462E-02  0.1315757E+00
          2   -1    0    0  501    0  0.00000000000E+00  0.00000000000E+00  0.39262407668E+03  0.39262407668E+03  0.00000000000E+00 0. -1.
         -2   -1    0    0    0  501 -0.00000000000E+00 -0.00000000000E+00 -0.37821239722E+02  0.37821239722E+02  0.00000000000E+00 0.  1.
         25    2    1    2    0    0  0.45174106730E+02 -0.67917567815E+02  0.20530432756E+03  0.25387173142E+03  0.12508994030E+03 0.  0.
          5    1    3    3  502    0  0.18963306778E+02 -0.54488471476E+02  0.21495288046E+03  0.22260012072E+03  0.41800000000E+01 0. -1.
         -5    1    3    3    0  502  0.26210799951E+02 -0.13429096339E+02 -0.96485529020E+01  0.31271610698E+02  0.41800000000E+01 0. -1.
        -11    1    1    2    0    0 -0.24660258553E+02  0.28221375040E+02  0.27030009382E+02  0.46208178586E+02  0.00000000000E+00 0.  1.
         11    1    1    2    0    0 -0.20513848176E+02  0.39696192775E+02  0.12246850002E+03  0.13036540640E+03  0.00000000000E+00 0. -1.
</event>
<event>
 7    1  0.3056346E-009  0.1316144E+03  0.7561462E-02  0.1225080E+00
          1   -1    0    0  501    0  0.00000000000E+00  0.00000000000E+00  0.32128359891E+03  0.32128359891E+03  0.00000000000E+00 0. -1.
         -1   -1    0    0    0  501 -0.00000000000E+00 -0.00000000000E+00 -0.90005017173E+02  0.90005017173E+02  0.00000000000E+00 0.  1.
         25    2    1    2    0    0 -0.84513756290E+02 -0.24682849896E+02  0.23938948430E+03  0.28409077348E+03  0.12509366212E+03 0.  0.
          5    1    3    3  502    0 -0.48536371477E+02 -0.68308737622E+02  0.84192185377E+02  0.11885983119E+03  0.41800000000E+01 0.  1.
         -5    1    3    3    0  502 -0.35977384813E+02  0.43625887726E+02  0.15519729893E+03  0.16523094230E+03  0.41800000000E+01 0.  1.
        -11    1    1    2    0    0  0.61786222586E+02 -0.26036415446E+02  0.11959665635E+02  0.68106283358E+02  0.00000000000E+00 0. -1.
         11    1    1    2    0    0  0.22727533704E+02  0.50719265342E+02 -0.20070568206E+02  0.59091559238E+02  0.00000000000E+00 0.  1.
</event>
<event>
 7    1  0.3056346E-009  0.1019329E+03  0.7561462E-02  0.1276283E+00
         -1   -1    0    0    0  501 -0.00000000000E+00  0.00000000000E+00  0.30430863382E+02  0.30430863382E+02  0.00000000000E+00 0.  1.
          1   -1    0    0  501    0  0.00000000000E+00 -0.00000000000E+00 -0.47155370108E+03  0.47155370108E+03  0.00000000000E+00 0. -1.
         25    2    1    2    0    0 -0.44441015069E+02  0.19868857043E+02 -0.32676296395E+03  0.35325750587E+03  0.12508819107E+03 0.  0.
          5    1    3    3  502    0 -0.36302647952E+01  0.58273573313E+02 -0.74155336829E+02  0.94474729687E+02  0.41800000000E+01 0. -1.
         -5    1    3    3    0  502 -0.40810750274E+02 -0.38404716270E+02 -0.25260762712E+03  0.25878277618E+03  0.41800000000E+01 0. -1.
        -11    1    1    2    0    0  0.50832911252E+02  0.15538527897E+02 -0.92333305066E+02  0.10654046152E+03  0.00000000000E+00 0. -1.
         11    1    1    2    0    0 -0.63918961832E+01 -0.35407384939E+02 -0.22026568687E+02  0.42186597080E+02  0.00000000000E+00 0.  1.
</event>
<event>
 7    1  0.3056346E-009  0.1012620E+03  0.7561462E-02  0.1277664E+00
          1   -1    0    0  501    0  0.00000000000E+00  0.00000000000E+00  0.11369723892E+04  0.11369723892E+04  0.00000000000E+00 0. -1.
         -1   -1    0    0    0  501 -0.00000000000E+00 -0.00000000000E+00 -0.12318535262E+02  0.12318535262E+02  0.00000000000E+00 0.  1.
         25    2    1    2    0    0  0.38321204519E+02 -0.22866628601E+02  0.72613593501E+03  0.73817934307E+03  0.12507577302E+03 0.  0.
          5    1    3    3  502    0  0.15792716849E+02 -0.59946162164E+02  0.18225699279E+03  0.19255657892E+03  0.41800000000E+01 0.  1.
         -5    1    3    3    0  502  0.22528487671E+02  0.37079533563E+02  0.54387894222E+03  0.54562276415E+03  0.41800000000E+01 0.  1.
        -11    1    1    2    0    0 -0.42218916937E+02 -0.24809398760E+02  0.25987797531E+03  0.26445132872E+03  0.00000000000E+00 0.  1.
         11    1    1    2    0    0  0.38977124178E+01  0.47676027361E+02  0.13863994363E+03  0.14666025268E+03  0.00000000000E+00 0. -1.
</event>
<event>
 7    1  0.3056346E-009  0.1931889E+03  0.7561462E-02  0.1155616E+00
          2   -1    0    0  501    0  0.00000000000E+00  0.00000000000E+00  0.18711737145E+04  0.18711737145E+04  0.00000000000E+00 0. -1.
         -2   -1    0    0    0  501 -0.00000000000E+00 -0.00000000000E+00 -0.22561257585E+02  0.22561257585E+02  0.00000000000E+00 0.  1.
         25    2    1    2    0    0  0.14768242448E+03  0.94741320315E+02  0.93620171975E+03  0.96068016301E+03  0.12508676698E+03 0.  0.
          5    1    3    3  502    0  0.34614522325E+02  0.88593558932E+02  0.30934946640E+03  0.32366888730E+03  0.41800000000E+01 0.  1.
         -5    1    3    3    0  502  0.11306790216E+03  0.61477613831E+01  0.62685225334E+03  0.63701127572E+03  0.41800000000E+01 0.  1.
        -11    1    1    2    0    0 -0.12490023549E+03 -0.66264543208E+02  0.84170973964E+03  0.85350239854E+03  0.00000000000E+00 0. -1.
         11    1    1    2    0    0 -0.22782188990E+02 -0.28476777106E+02  0.70700997534E+02  0.79552410535E+02  0.00000000000E+00 0.  1.
</event>
<event>
 6    1  0.3056346E-009  0.6616586E+02  0.7561462E-02  0.1373639E+00
          2   -1    0    0  501    0  0.00000000000E+00  0.00000000000E+00  0.38833265285E+03  0.38833265285E+03  0.00000000000E+00 0.  1.
         -2   -1    0    0    0  501 -0.00000000000E+00 -0.00000000000E+00 -0.32819592853E+02  0.32819592853E+02  0.00000000000E+00 0. -1.
          5    1    1    2  502    0 -0.14014948097E+00  0.48177248967E+02  0.20915903123E+03  0.21467659329E+03  0.41800000000E+01 0.  1.
         -5    1    1    2    0  502 -0.17792179445E+02 -0.23183263961E+02 -0.15960945948E+01  0.29564257056E+02  0.41800000000E+01 0.  1.
        -11    1    1    2    0    0  0.28750808971E+02 -0.17383915283E+01  0.21621143054E+01  0.28884351470E+02  0.00000000000E+00 0. -1.
         11    1    1    2    0    0 -0.10818480044E+02 -0.23255593478E+02  0.14578800905E+03  0.14802704389E+03  0.00000000000E+00 0.  1.
</event>
<event>
 7    1  0.3056346E-009  0.9973810E+02  0.7561462E-02  0.1280848E+00
         -3   -1    0    0    0  501 -0.00000000000E+00  0.00000000000E+00  0.95936733037E+02  0.95936733037E+02  0.00000000000E+00 0.  1.
          3   -1    0    0  501    0  0.00000000000E+00 -0.00000000000E+00 -0.16772908511E+03  0.16772908511E+03  0.00000000000E+00 0. -1.
         25    2    1    2    0    0 -0.29633001889E+02 -0.34043442914E+02  0.11315385272E+02  0.13346346777E+03  0.12508952186E+03 0.  0.
          5    1    3    3  502    0 -0.19125677911E+02  0.45616909285E+02  0.17819956541E+02  0.52741987253E+02  0.41800000000E+01 0. -1.
         -5    1    3    3    0  502 -0.10507323977E+02 -0.79660352199E+02 -0.65045712687E+01  0.80721480518E+02  0.41800000000E+01 0. -1.
        -11    1    1    2    0    0 -0.12990418505E+02 -0.25044949110E+01  0.13221787322E+02  0.18703986946E+02  0.00000000000E+00 0.  1.
         11    1    1    2    0    0  0.42623420393E+02  0.36547937825E+02 -0.96329524662E+02  0.11149836343E+03  0.00000000000E+00 0. -1.
</event>
<event>
 7    1  0.3056346E-009  0.7001696E+02  0.7561462E-02  0.1360035E+00
          1   -1    0    0  501    0  0.00000000000E+00  0.00000000000E+00  0.31124695708E+03  0.31124695708E+03  0.00000000000E+00 0.  1.
         -1   -1    0    0    0  501 -0.00000000000E+00 -0.00000000000E+00 -0.34231698080E+02  0.34231698080E+02  0.00000000000E+00 0. -1.
         25    2    1    2    0    0  0.28983072835E+02 -0.71461306460E+00  0.20631939435E+03  0.24301247797E+03  0.12508734060E+03 0.  0.
          5    1    3    3  502    0  0.67789939241E+01 -0.28993096521E+02  0.20457662785E+03  0.20677432981E+03  0.41800000000E+01 0.  1.
         -5    1    3    3    0  502  0.22204078911E+02  0.28278483456E+02  0.17427664990E+01  0.36238148158E+02  0.41800000000E+01 0.  1.
        -11    1    1    2    0    0  0.13634275069E+02 -0.21692739312E+02  0.29738047946E+02  0.39253278732E+02  0.00000000000E+00 0.  1.
         11    1    1    2    0    0 -0.42617347904E+02  0.22407352377E+02  0.40957816700E+02  0.63212898460E+02  0.00000000000E+00 0. -1.
</event>
<event>
 7    1  0.3056346E-009  0.9899938E+02  0.7561462E-02  0.1282414E+00
          2   -1    0    0  501    0  0.00000000000E+00  0.00000000000E+00  0.20604876922E+03  0.20604876922E+03  0.00000000000E+00 0.  1.
         -2   -1    0    0    0  501 -0.00000000000E+00 -0.00000000000E+00 -0.68348895195E+02  0.68348895195E+02  0.00000000000E+00 0. -1.
         25    2    1    2    0    0  0.24363270323E+02 -0.21965622244E+01  0.12546922522E+03  0.17884650074E+03  0.12508057612E+03 0.  0.
          5    1    3    3  502    0  0.35501239908E+01  0.52897915182E+02  0.17854010667E+02  0.56098403790E+02  0.41800000000E+01 0. -1.
         -5    1    3    3    0  502  0.20813146332E+02 -0.55094477406E+02  0.10761521456E+03  0.12274809695E+03  0.41800000000E+01 0. -1.
        -11    1    1    2    0    0 -0.53590744045E+02  0.12053604120E+02  0.27166591568E+02  0.61280346906E+02  0.00000000000E+00 0.  1.
         11    1    1    2    0    0  0.29227473722E+02 -0.98570418954E+01 -0.14935942771E+02  0.34270816762E+02  0.00000000000E+00 0. -1.
</event>
<event>
 7    1  0.3056346E-009  0.8403708E+02  0.7561462E-02  0.1317970E+00
         -2   -1    0    0    0  501 -0.00000000000E+00  0.00000000000E+00  0.43859944578E+02  0.43859944578E+02  0.00000000000E+00 0.  1.
          2   -1    0    0  501    0  0.00000000000E+00 -0.00000000000E+00 -0.46981756556E+03  0.46981756556E+03  0.00000000000E+00 0. -1.
         25    2    1    2    0    0 -0.49900063339E+02  0.17470445641E+02 -0.37180906402E+03  0.39583381237E+03  0.12508874505E+03 0.  0.
          5    1    3    3  502    0 -0.17691670688E+02 -0.10120353071E+02  0.77507305295E+00  0.20820420174E+02  0.41800000000E+01 0.  1.
         -5    1    3    3    0  502 -0.32208392651E+02  0.27590798712E+02 -0.37258413707E+03  0.37501339220E+03  0.41800000000E+01 0.  1.
        -11    1    1    2    0    0  0.32337565884E+02 -0.54668590440E+02 -0.33807307839E+02  0.71953505900E+02  0.00000000000E+00 0. -1.
         11    1    1    2    0    0  0.17562497455E+02  0.37198144799E+02 -0.20341249121E+02  0.45890191862E+02  0.00000000000E+00 0.  1.
</event>
<event>
 7    1  0.3056346E-009  0.1356132E+03  0.7561462E-02  0.1219357E+00
         -2   -1    0    0    0  501 -0.00000000000E+00  0.00000000000E+00  0.15436605390E+02  0.15436605390E+02  0.00000000000E+00 0.  1.
          2   -1    0    0  501    0  0.00000000000E+00 -0.00000000000E+00 -0.15709455776E+04  0.15709455776E+04  0.00000000000E+00 0. -1.
         25    2    1    2    0    0  0.49735607438E+02  0.94626027471E+02 -0.97657494655E+03  0.99033926384E+03  0.12508203528E+03 0.  0.
          5    1    3    3  502    0  0.29167650602E+01 -0.12486742118E+02 -0.47938469946E+03  0.47957438289E+03  0.41800000000E+01 0.  1.
         -5    1    3    3    0  502  0.46818842378E+02  0.10711276959E+03 -0.49719024709E+03  0.51076488095E+03  0.41800000000E+01 0.  1.
        -11    1    1    2    0    0 -0.45680090524E+02  0.37254579244E+00 -0.22272193562E+03  0.22735846162E+03  0.00000000000E+00 0.  1.
         11    1    1    2    0    0 -0.40555169136E+01 -0.94998573263E+02 -0.35621209002E+03  0.36868445752E+03  0.00000000000E+00 0. -1.
</event>
<event>
 7    1  0.3056346E-009  0.2402948E+03  0.7561462E-02  0.1119597E+00
          1   -1    0    0  501    0  0.00000000000E+00  0.00000000000E+00  0.32110814098E+03  0.32110814098E+03  0.00000000000E+00 0. -1.
         -1   -1    0    0    0  501 -0.00000000000E+00 -0.00000000000E+00 -0.21545700553E+03  0.21545700553E+03  0.00000000000E+00 0.  1.
         25    2    1    2    0    0  0.20977843597E+03  0.72998205221E+02 -0.36695811145E+02  0.25754900367E+03  0.12509666892E+03 0.  0.
          5    1    3    3  502    0  0.16561814510E+03  0.11230512381E+02 -0.62233895159E+02  0.17733026955E+03  0.41800000000E+01 0.  1.
         -5    1    3    3    0  502  0.44160290872E+02  0.61767692841E+02  0.25538084015E+02  0.80218734121E+02  0.41800000000E+01 0.  1.
        -11    1    1    2    0    0 -0.52351491480E+02  0.19544338585E+02  0.20680006633E+02  0.59584582782E+02  0.00000000000E+00 0. -1.
         11    1    1    2    0    0 -0.15742694449E+03 -0.92542543806E+02  0.12166693996E+03  0.21943156005E+03  0.00000000000E+00 0.  1.
</event>
<event>
 7    1  0.3056346E-009  0.1306171E+03  0.7561462E-02  0.1226543E+00
          1   -1    0    0  501    0  0.00000000000E+00  0.00000000000E+00  0.68513131209E+03  0.68513131209E+03  0.00000000000E+00 0. -1.
         -1   -1    0    0    0  501 -0.00000000000E+00 -0.00000000000E+00 -0.30693038907E+02  0.30693038907E+02  0.00000000000E+00 0.  1.
         25    2    1    2    0    0 -0.78956845681E+02  0.28167104216E+02  0.47765232520E+03  0.50082520730E+03  0.12508627129E+03 0.  0.
          5    1    3    3  502    0 -0.52026201297E+02  0.76740022371E+02  0.33703252703E+03  0.34957710642E+03  0.41800000000E+01 0.  1.
         -5    1    3    3    0  502 -0.26930644384E+02 -0.48572918155E+02  0.14061979816E+03  0.15124810088E+03  0.41800000000E+01 0.  1.
        -11    1    1    2    0    0 -0.71879770815E+01 -0.25554397043E+02  0.12203778487E+02  0.29216886078E+02  0.00000000000E+00 0.  1.
         11    1    1    2    0    0  0.86144822762E+02 -0.26127071734E+01  0.16458216950E+03  0.18578225761E+03  0.00000000000E+00 0. -1.
</event>
<event>
 7    1  0.3056346E-009  0.1188990E+03  0.7561462E-02  0.1244925E+00
          1   -1    0    0  501    0  0.00000000000E+00  0.00000000000E+00  0.40762083466E+03  0.40762083466E+03  0.00000000000E+00 0. -1.
         -1   -1    0    0    0  501 -0.00000000000E+00 -0.00000000000E+00 -0.37746733948E+02  0.37746733948E+02  0.00000000000E+00 0.  1.
         25    2    1    2    0    0  0.25234447301E+02 -0.52669441840E+02  0.22365574594E+03  0.26283433100E+03  0.12509654443E+03 0.  0.
          5    1    3    3  502    0  0.56019387835E+02 -0.78969196711E+02  0.14761063027E+03  0.17658050971E+03  0.41800000000E+01 0.  1.
         -5    1    3    3    0  502 -0.30784940533E+02  0.26299754871E+02  0.76045115669E+02  0.86253821290E+02  0.41800000000E+01 0.  1.
        -11    1    1    2    0    0  0.25128516922E+02  0.41625927678E+02  0.34891071674E+02  0.59846028275E+02  0.00000000000E+00 0.  1.
         11    1    1    2    0    0 -0.50362964223E+02  0.11043514162E+02  0.11132728310E+03  0.12268720933E+03  0.00000000000E+00 0. -1.
</event>
<event>
 7    1  0.5971483E-009  0.1270068E+03  0.7561462E-02  0.1231966E+00
          2   -1    0    0  501    0  0.00000000000E+00  0.00000000000E+00  0.19640329358E+03  0.19640329358E+03  0.00000000000E+00 0. -1.
         -2   -1    0    0    0  501 -0.00000000000E+00 -0.00000000000E+00 -0.11715940612E+03  0.11715940612E+03  0.00000000000E+00 0.  1.
         25    2    1    2    0    0  0.69306947238E+02  0.60168033143E+02  0.97971478229E+02  0.18349589428E+03  0.12509471421E+03 0.  0.
          5    1    3    3  502    0 -0.77348103703E+01  0.75763649677E+02  0.43984923846E+02  0.88046032446E+02  0.41800000000E+01 0. -1.
         -5    1    3    3    0  502  0.77041757608E+02 -0.15595616534E+02  0.53986554383E+02  0.95449861836E+02  0.41800000000E+01 0. -1.
        -11    1    1    2    0    0 -0.33844226449E+02 -0.52940734830E+02 -0.51499277882E+02  0.81242406972E+02  0.00000000000E+00 0.  1.
         11    1    1    2    0    0 -0.35462720789E+02 -0.72272983126E+01  0.32771687113E+02  0.48824398439E+02  0.00000000000E+00 0. -1.
</event>
<event>
 7    1  0.3056346E-009  0.2397617E+03  0.7561462E-02  0.1119952E+00
          2   -1    0    0  501    0  0.00000000000E+00  0.00000000000E+00  0.11649004224E+04  0.11649004224E+04  0.00000000000E+00 0. -1.
         -2   -1    0    0    0  501 -0.00000000000E+00 -0.00000000000E+00 -0.62166651190E+02  0.62166651190E+02  0.00000000000E+00 0.  1.
         25    2    1    2    0    0 -0.17613576052E+03  0.14653323940E+03  0.78089054612E+03  0.82336589134E+03  0.12508217144E+03 0.  0.
          5    1    3    3  502    0 -0.15454951509E+03  0.15841731762E+03  0.57792043652E+03  0.61886274931E+03  0.41800000000E+01 0.  1.
         -5    1    3    3    0  502 -0.21586245431E+02 -0.11884078225E+02  0.20297010960E+03  0.20450314203E+03  0.41800000000E+01 0.  1.
        -11    1    1    2    0    0  0.53411462771E+02 -0.20364798188E+02  0.34592212363E+02  0.66814149076E+02  0.00000000000E+00 0. -1.
         11    1    1    2    0    0  0.12272429775E+03 -0.12616844121E+03  0.28725101276E+03  0.33688703321E+03  0.00000000000E+00 0.  1.
</event>
<event>
 7    1  0.3056346E-009  0.6159293E+02  0.7561462E-02  0.1391266E+00
         -2   -1    0    0    0  501 -0.00000000000E+00  0.00000000000E+00  0.69624527994E+02  0.69624527994E+02  0.00000000000E+00 0.  1.
          2   -1    0    0  501    0  0.00000000000E+00 -0.00000000000E+00 -0.18351002785E+03  0.18351002785E+03  0.00000000000E+00 0. -1.
         25    2    1    2    0    0  0.30003632355E+02  0.75785065001E+01 -0.56224519697E+02  0.14058418249E+03  0.12508023039E+03 0.  0.
          5    1    3    3  502    0  0.45766272735E+02  0.17693643769E+01  0.28502454334E+02  0.54106789531E+02  0.41800000000E+01 0. -1.
         -5    1    3    3    0  502 -0.15762640380E+02  0.58091421232E+01 -0.84726974031E+02  0.86477392956E+02  0.41800000000E+01 0. -1.
        -11    1    1    2    0    0 -0.40718820349E+02  0.74819417907E+01  0.98489796264E+01  0.42555894812E+02  0.00000000000E+00 0.  1.
         11    1    1    2    0    0  0.10715187994E+02 -0.15060448291E+02 -0.67509959785E+02  0.69994478544E+02  0.00000000000E+00 0. -1.
</event>
<event>
 7    1  0.3056346E-009  0.8565637E+02  0.7561462E-02  0.1313725E+00
         -2   -1    0    0    0  501 -0.00000000000E+00  0.00000000000E+00  0.21476409595E+02  0.21476409595E+02  0.00000000000E+00 0.  1.
          2   -1    0    0  501    0  0.00000000000E+00 -0.00000000000E+00 -0.92310823003E+03  0.92310823003E+03  0.00000000000E+00 0. -1.
         25    2    1    2    0    0 -0.29622990512E+01  0.46637092757E+02 -0.74671977157E+03  0.75856553207E+03  0.12508978993E+03 0.  0.
          5    1    3    3  502    0 -0.31488905790E+02  0.71639427372E+02 -0.29482745303E+03  0.30506467872E+03  0.41800000000E+01 0. -1.
         -5    1    3    3    0  502  0.28526606739E+02 -0.25002334614E+02 -0.45189231854E+03  0.45350085335E+03  0.41800000000E+01 0. -1.
        -11    1    1    2    0    0 -0.12273721340E+02 -0.28922714371E+02 -0.15919385182E+03  0.16226475310E+03  0.00000000000E+00 0. -1.
         11    1    1    2    0    0  0.15236020391E+02 -0.17714378387E+02  0.42818029594E+01  0.23754354455E+02  0.00000000000E+00 0.  1.
</event>
<event>
 7    1  0.3056346E-009  0.2614604E+03  0.7561462E-02  0.1106269E+00
         -2   -1    0    0    0  501 -0.00000000000E+00  0.00000000000E+00  0.41741188791E+03  0.41741188791E+03  0.00000000000E+00 0.  1.
          2   -1    0    0  501    0  0.00000000000E+00 -0.00000000000E+00 -0.20025354697E+03  0.20025354697E+03  0.00000000000E+00 0. -1.
         25    2    1    2    0    0  0.57392564873E+02  0.23551276042E+03 -0.10384563100E+02  0.27297551054E+03  0.12509046079E+03 0.  0.
          5    1    3    3  502    0  0.52399207835E+02  0.24793679092E+03  0.31724572187E+01  0.25346768267E+03  0.41800000000E+01 0. -1.
         -5    1    3    3    0  502  0.49933570382E+01 -0.12424030499E+02 -0.13557020318E+02  0.19507827872E+02  0.41800000000E+01 0. -1.
        -11    1    1    2    0    0 -0.23172809202E+02 -0.21350746167E+03  0.21004593834E+03  0.30040258236E+03  0.00000000000E+00 0.  1.
         11    1    1    2    0    0 -0.34219755672E+02 -0.22005298745E+02  0.17496965692E+02  0.44287341978E+02  0.00000000000E+00 0. -1.
</event>
<event>
 6    1  0.3056346E-009  0.1112963E+03  0.7561462E-02  0.1258188E+00
          2   -1    0    0  501    0  0.00000000000E+00  0.00000000000E+00  0.26495163737E+03  0.26495163737E+03  0.00000000000E+00 0. -1.
         -2   -1    0    0    0  501 -0.00000000000E+00 -0.00000000000E+00 -0.97855562114E+02  0.97855562114E+02  0.00000000000E+00 0.  1.
          5    1    1    2  502    0  0.29969665893E+02 -0.17645558027E+01  0.57899695051E+02  0.65353971707E+02  0.41800000000E+01 0. -1.
         -5    1    1    2    0  502  0.30329578478E+02  0.83275376578E+02 -0.38222888536E+02  0.96608142943E+02  0.41800000000E+01 0. -1.
        -11    1    1    2    0    0 -0.31338142564E+02 -0.25119628007E+02 -0.22821242391E+00  0.40163751959E+02  0.00000000000E+00 0.  1.
         11    1    1    2    0    0 -0.28961101808E+02 -0.56391192768E+02  0.14764748116E+03  0.16068133287E+03  0.00000000000E+00 0. -1.
</event>
<event>
 7    1  0.3056346E-009  0.1073162E+03  0.7561462E-02  0.1265622E+00
         -2   -1    0    0    0  501 -0.00000000000E+00  0.00000000000E+00  0.51912627735E+02  0.51912627735E+02  0.00000000000E+00 0.  1.
          2   -1    0    0  501    0  0.00000000000E+00 -0.00000000000E+00 -0.30442661050E+03  0.30442661050E+03  0.00000000000E+00 0. -1.
         25    2    1    2    0    0 -0.12860372257E+02 -0.10751946136E+02 -0.51768976907E+02  0.13641097120E+03  0.12508769953E+03 0.  0.
          5    1    3    3  502    0  0.18543406188E+02 -0.62611526361E+02 -0.27194058365E+02  0.70859370281E+02  0.41800000000E+01 0. -1.
         -5    1    3    3    0  502 -0.31403778445E+02  0.51859580224E+02 -0.24574918542E+02  0.65551600919E+02  0.41800000000E+01 0. -1.
        -11    1    1    2    0    0 -0.16883763108E+02  0.42012475957E+02 -0.83351094328E+02  0.94855229263E+02  0.00000000000E+00 0. -1.
         11    1    1    2    0    0  0.29744135365E+02 -0.31260529821E+02 -0.11739391153E+03  0.12507303777E+03  0.00000000000E+00 0.  1.
</event>
<event>
 7    1  0.3056346E-009  0.8663454E+02  0.7561462E-02  0.1311213E+00
          2   -1    0    0  501    0  0.00000000000E+00  0.00000000000E+00  0.79642654362E+03  0.79642654362E+03  0.00000000000E+00 0. -1.
         -2   -1    0    0    0  501 -0.00000000000E+00 -0.00000000000E+00 -0.32011862245E+02  0.32011862245E+02  0.00000000000E+00 0.  1.
         25    2    1    2    0    0  0.81126712428E+01 -0.40144718374E+02  0.69619934084E+03  0.70853211112E+03  0.12508723536E+03 0.  0.
          5    1    3    3  502    0  0.61982739646E+02 -0.14412264034E+02  0.47943623126E+03  0.48365912129E+03  0.41800000000E+01 0.  1.
         -5    1    3    3    0  502 -0.53870068403E+02 -0.25732454340E+02  0.21676310958E+03  0.22487298982E+03  0.41800000000E+01 0.  1.
        -11    1    1    2    0    0  0.78289605993E+01  0.29399923290E+02  0.87522716824E+02  0.92659991765E+02  0.00000000000E+00 0. -1.
         11    1    1    2    0    0 -0.15941631842E+02  0.10744795084E+02 -0.19307376288E+02  0.27246302984E+02  0.00000000000E+00 0.  1.
</event>
<event>
 7    1  0.3056346E-009  0.9284261E+02  0.7561462E-02  0.1296110E+00
          2   -1    0    0  501    0  0.00000000000E+00  0.00000000000E+00  0.28134893372E+03  0.28134893372E+03  0.00000000000E+00 0. -1.
         -2   -1    0    0    0  501 -0.00000000000E+00 -0.00000000000E+00 -0.49968544615E+02  0.49968544615E+02  0.00000000000E+00 0.  1.
         25    2    1    2    0    0 -0.20375721498E+02  0.42520747380E+02  0.16460067761E+03  0.21204669441E+03  0.12508890261E+03 0.  0.
          5    1    3    3  502    0  0.26492671802E+02  0.43805535886E+02  0.12547975559E+02  0.52874480840E+02  0.41800000000E+01 0. -1.
         -5    1    3    3    0  502 -0.46868393300E+02 -0.12847885059E+01  0.15205270205E+03  0.15917221357E+03  0.41800000000E+01 0. -1.
        -11    1    1    2    0    0  0.15406193042E+02  0.19599972638E+02 -0.36860334521E+01  0.25201122080E+02  0.00000000000E+00 0.  1.
         11    1    1    2    0    0  0.49695284556E+01 -0.62120720018E+02  0.70465744944E+02  0.94069661843E+02  0.00000000000E+00 0. -1.
</event>
<event>
 7    1  0.3056346E-009  0.8975306E+02  0.7561462E-02  0.1303451E+00
          3   -1    0    0  501    0  0.00000000000E+00  0.00000000000E+00  0.19593749952E+03  0.19593749952E+03  0.00000000000E+00 0. -1.
         -3   -1    0    0    0  501 -0.00000000000E+00 -0.00000000000E+00 -0.58052981463E+02  0.58052981463E+02  0.00000000000E+00 0.  1.
         25    2    1    2    0    0  0.10091847075E+02  0.31840962479E+02  0.79865024106E+02  0.15211244695E+03  0.12507630540E+03 0.  0.
          5    1    3    3  502    0 -0.54983359104E+02  0.19650198780E+02  0.17592855886E+02  0.61125126328E+02  0.41800000000E+01 0. -1.
         -5    1    3    3    0  502  0.65075206178E+02  0.12190763699E+02  0.62272168220E+02  0.90987320619E+02  0.41800000000E+01 0. -1.
        -11    1    1    2    0    0  0.14101292348E+02  0.65384669219E+00 -0.13595306394E+02  0.19598630496E+02  0.00000000000E+00 0.  1.
         11    1    1    2    0    0 -0.24193139423E+02 -0.32494809171E+02  0.71614800348E+02  0.82279403541E+02  0.00000000000E+00 0. -1.
</event>
<event>
 7    1  0.3056346E-009  0.3870970E+03  0.7561462E-02  0.1048341E+00
          1   -1    0    0  501    0  0.00000000000E+00  0.00000000000E+00  0.17997638387E+04  0.17997638387E+04  0.00000000000E+00 0. -1.
         -1   -1    0    0    0  501 -0.00000000000E+00 -0.00000000000E+00 -0.10865119628E+03  0.10865119628E+03  0.00000000000E+00 0.  1.
         25    2    1    2    0    0  0.17797639710E+03 -0.33739814832E+03  0.12751507964E+04  0.13368511224E+04  0.12509301198E+03 0.  0.
          5    1    3    3  502    0  0.18319490071E+03 -0.31036916881E+03  0.10533020458E+04  0.11132619030E+04  0.41800000000E+01 0.  1.
         -5    1    3    3    0  502 -0.52185036054E+01 -0.27028979505E+02  0.22184875062E+03  0.22358921948E+03  0.41800000000E+01 0.  1.
        -11    1    1    2    0    0 -0.89471476986E+02  0.22979684577E+03  0.31220934495E+03  0.39785224719E+03  0.00000000000E+00 0. -1.
         11    1    1    2    0    0 -0.88504920114E+02  0.10760130255E+03  0.10375250108E+03  0.17371166534E+03  0.00000000000E+00 0.  1.
</event>
<event>
 7    1  0.3555142E-009  0.1941333E+03  0.7561462E-02  0.1154785E+00
          1   -1    0    0  501    0  0.00000000000E+00  0.00000000000E+00  0.64651468592E+03  0.64651468592E+03  0.00000000000E+00 0. -1.
         -1   -1    0    0    0  501 -0.00000000000E+00 -0.00000000000E+00 -0.82578799396E+02  0.82578799396E+02  0.00000000000E+00 0.  1.
         25    2    1    2    0    0 -0.37880733799E+01  0.19210924054E+03  0.39788919922E+03  0.45921901526E+03  0.12508388912E+03 0.  0.
          5    1    3    3  502    0 -0.18229529108E+02  0.10407380864E+03  0.90702615245E+02  0.13931299361E+03  0.41800000000E+01 0. -1.
         -5    1    3    3    0  502  0.14441455728E+02  0.88035431905E+02  0.30718658397E+03  0.31990602165E+03  0.41800000000E+01 0. -1.
        -11    1    1    2    0    0 -0.65860990410E+01 -0.13575159158E+03  0.58403864721E+02  0.14792864068E+03  0.00000000000E+00 0.  1.
         11    1    1    2    0    0  0.10374172421E+02 -0.56357648960E+02  0.10764282259E+03  0.12194582938E+03  0.00000000000E+00 0. -1.
</event>
<event>
 7    1  0.3056346E-009  0.1396101E+03  0.7561462E-02  0.1213855E+00
          2   -1    0    0  501    0  0.00000000000E+00  0.00000000000E+00  0.53444022246E+02  0.53444022246E+02  0.00000000000E+00 0. -1.
         -2   -1    0    0    0  501 -0.00000000000E+00 -0.00000000000E+00 -0.54662884759E+03  0.54662884759E+03  0.00000000000E+00 0.  1.
         25    2    1    2    0    0 -0.11460408854E+03 -0.54068132185E+02 -0.20041075368E+03  0.26808750670E+03  0.12509588734E+03 0.  0.
          5    1    3    3  502    0 -0.41286749626E+02 -0.72016989393E+01  0.73926248155E+01  0.42761939431E+02  0.41800000000E+01 0.  1.
         -5    1    3    3    0  502 -0.73317338918E+02 -0.46866433246E+02 -0.20780337850E+03  0.22532556727E+03  0.41800000000E+01 0.  1.
        -11    1    1    2    0    0  0.55716176404E+02  0.69531750016E+02 -0.12500018338E+03  0.15350570810E+03  0.00000000000E+00 0. -1.
         11    1    1    2    0    0  0.58887912140E+02 -0.15463617831E+02 -0.16777388828E+03  0.17847965504E+03  0.00000000000E+00 0.  1.
</event>
<event>
 7    1  0.3056346E-009  0.1199363E+03  0.7561462E-02  0.1243202E+00
          2   -1    0    0  501    0  0.00000000000E+00  0.00000000000E+00  0.10267893343E+03  0.10267893343E+03  0.00000000000E+00 0. -1.
         -2   -1    0    0    0  501 -0.00000000000E+00 -0.00000000000E+00 -0.23585357043E+03  0.23585357043E+03  0.00000000000E+00 0.  1.
         25    2    1    2    0    0 -0.68736344688E+02  0.82409417224E+02 -0.41472448719E+02  0.16995264503E+03  0.12509172803E+03 0.  0.
          5    1    3    3  502    0 -0.12042941248E+02  0.17254029708E+01  0.39970682022E+02  0.41989728157E+02  0.41800000000E+01 0. -1.
         -5    1    3    3    0  502 -0.56693403439E+02  0.80684014253E+02 -0.81443130741E+02  0.12796291687E+03  0.41800000000E+01 0. -1.
        -11    1    1    2    0    0  0.55420878572E+02 -0.12068876440E+02 -0.76768464368E+02  0.95449089475E+02  0.00000000000E+00 0.  1.
         11    1    1    2    0    0  0.13315466116E+02 -0.70340540784E+02 -0.14933723917E+02  0.73130769350E+02  0.00000000000E+00 0. -1.
</event>
<event>
 7    1  0.4026306E-009  0.9688397E+02  0.7561462E-02  0.1286988E+00
         -1   -1    0    0    0  501 -0.00000000000E+00  0.00000000000E+00  0.11429338493E+03  0.11429338493E+03  0.00000000000E+00 0.  1.
          1   -1    0    0  501    0  0.00000000000E+00 -0.00000000000E+00 -0.20856182584E+03  0.20856182584E+03  0.00000000000E+00 0. -1.
         25    2    1    2    0    0  0.82977972876E+02 -0.47602184409E+02  0.45422608134E+01  0.15754135776E+03  0.12508930941E+03 0.  0.
          5    1    3    3  502    0  0.30448641248E+02 -0.27230489191E+02 -0.59403059626E+02  0.72213677294E+02  0.41800000000E+01 0. -1.
         -5    1    3    3    0  502  0.52529331628E+02 -0.20371695217E+02  0.63945320439E+02  0.85327680464E+02  0.41800000000E+01 0. -1.
        -11    1    1    2    0    0 -0.24565768470E+02  0.19629907392E+02 -0.95412050986E+02  0.10046028926E+03  0.00000000000E+00 0. -1.
         11    1    1    2    0    0 -0.58412204406E+02  0.27972277016E+02 -0.33986507374E+01  0.64853563756E+02  0.00000000000E+00 0.  1.
</event>
<event>
 7    1  0.3056346E-009  0.1334040E+03  0.7561462E-02  0.1222490E+00
          2   -1    0    0  501    0  0.00000000000E+00  0.00000000000E+00  0.54423202004E+03  0.54423202004E+03  0.00000000000E+00 0. -1.
         -2   -1    0    0    0  501 -0.00000000000E+00 -0.00000000000E+00 -0.33027102055E+02  0.33027102055E+02  0.00000000000E+00 0.  1.
         25    2    1    2    0    0  0.63079391648E+02 -0.47487978230E+02  0.27399064394E+03  0.31137264977E+03  0.12509171169E+03 0.  0.
          5    1    3    3  502    0  0.98792220367E+02 -0.51296974287E+02  0.21601561841E+03  0.24304629636E+03  0.41800000000E+01 0.  1.
         -5    1    3    3    0  502 -0.35712828720E+02  0.38089960570E+01  0.57975025528E+02  0.68326353416E+02  0.41800000000E+01 0.  1.
        -11    1    1    2    0    0 -0.77906436140E+01  0.61683519400E+02  0.10783874487E+03  0.12447789197E+03  0.00000000000E+00 0.  1.
         11    1    1    2    0    0 -0.55288748034E+02 -0.14195541171E+02  0.12937552918E+03  0.14140858035E+03  0.00000000000E+00 0. -1.
</event>
<event>
 7    1  0.3056346E-009  0.1025382E+03  0.7561462E-02  0.1275047E+00
         -2   -1    0    0    0  501 -0.00000000000E+00  0.00000000000E+00  0.55945466185E+02  0.55945466185E+02  0.00000000000E+00 0.  1.
          2   -1    0    0  501    0  0.00000000000E+00 -0.00000000000E+00 -0.23173566411E+03  0.23173566411E+03  0.00000000000E+00 0. -1.
         25    2    1    2    0    0 -0.33818751709E+02 -0.72100403794E+01 -0.78446575554E+02  0.15164864236E+03  0.12509097835E+03 0.  0.
          5    1    3    3  502    0  0.14645520544E+02  0.39889085977E+02 -0.71901159507E+02  0.83623439241E+02  0.41800000000E+01 0.  1.
         -5    1    3    3    0  502 -0.48464272252E+02 -0.47099126356E+02 -0.65454160476E+01  0.68025203121E+02  0.41800000000E+01 0.  1.
        -11    1    1    2    0    0 -0.23554114579E+02 -0.20251005932E+02 -0.26566808430E+02  0.40874134425E+02  0.00000000000E+00 0. -1.
         11    1    1    2    0    0  0.57372866288E+02  0.27461046311E+02 -0.70776813939E+02  0.95158353506E+02  0.00000000000E+00 0.  1.
</event>
<event>
 7    1  0.3056346E-009  0.1112955E+03  0.7561462E-02  0.1258189E+00
         -1   -1    0    0    0  501 -0.00000000000E+00  0.00000000000E+00  0.16558690359E+02  0.16558690359E+02  0.00000000000E+00 0.  1.
          1   -1    0    0  501    0  0.00000000000E+00 -0.00000000000E+00 -0.13469210851E+04  0.13469210851E+04  0.00000000000E+00 0. -1.
         25    2    1    2    0    0 -0.32851221527E+02  0.48710869271E+02 -0.11298150646E+04  0.11382361083E+04  0.12508959340E+03 0.  0.
          5    1    3    3  502    0  0.21544201384E+02 -0.26110134217E+02 -0.13982895521E+03  0.14392880475E+03  0.41800000000E+01 0. -1.
         -5    1    3    3    0  502 -0.54395422911E+02  0.74821003488E+02 -0.98998610941E+03  0.99430730352E+03  0.41800000000E+01 0. -1.
        -11    1    1    2    0    0  0.39833870392E+02 -0.66083601980E+02 -0.12089493002E+03  0.14342023493E+03  0.00000000000E+00 0.  1.
         11    1    1    2    0    0 -0.69826488656E+01  0.17372732709E+02 -0.79652400145E+02  0.81823432315E+02  0.00000000000E+00 0. -1.
</event>
<event>
 7    1  0.3056346E-009  0.1462844E+03  0.7561462E-02  0.1205114E+00
         -1   -1    0    0    0  501 -0.00000000000E+00  0.00000000000E+00  0.65279768187E+02  0.65279768187E+02  0.00000000000E+00 0.  1.
          1   -1    0    0  501    0  0.00000000000E+00 -0.00000000000E+00 -0.45118671110E+03  0.45118671110E+03  0.00000000000E+00 0. -1.
         25    2    1    2    0    0  0.12857611779E+03 -0.25710757268E+02 -0.17209508890E+03  0.24991448915E+03  0.12509065178E+03 0.  0.
          5    1    3    3  502    0  0.81773656936E+02 -0.30024682020E+02 -0.18390045435E+02  0.89129561147E+02  0.41800000000E+01 0.  1.
         -5    1    3    3    0  502  0.46802460851E+02  0.43139247526E+01 -0.15370504346E+03  0.16078492801E+03  0.41800000000E+01 0.  1.
        -11    1    1    2    0    0 -0.58291665916E+02  0.56735061710E+02 -0.12480991808E+03  0.14897751908E+03  0.00000000000E+00 0.  1.
         11    1    1    2    0    0 -0.70284451872E+02 -0.31024304442E+02 -0.89001935939E+02  0.11757447105E+03  0.00000000000E+00 0. -1.
</event>
<event>
 7    1  0.3056346E-009  0.1442985E+03  0.7561462E-02  0.1207659E+00
         -2   -1    0    0    0  501 -0.00000000000E+00  0.00000000000E+00  0.51393365130E+02  0.51393365130E+02  0.00000000000E+00 0.  1.
          2   -1    0    0  501    0  0.00000000000E+00 -0.00000000000E+00 -0.63748915293E+03  0.63748915293E+03  0.00000000000E+00 0. -1.
         25    2    1    2    0    0  0.12693306195E+03  0.53397391661E+02 -0.22816731314E+03  0.29439979937E+03  0.12509050896E+03 0.  0.
          5    1    3    3  502    0  0.10701497890E+03  0.51784297801E+02 -0.76654069560E+02  0.14151727099E+03  0.41800000000E+01 0. -1.
         -5    1    3    3    0  502  0.19918083047E+02  0.16130938604E+01 -0.15151324358E+03  0.15288252838E+03  0.41800000000E+01 0. -1.
        -11    1    1    2    0    0 -0.51118632673E+02  0.79024253014E+01 -0.21724514265E+03  0.22331819213E+03  0.00000000000E+00 0. -1.
         11    1    1    2    0    0 -0.75814429276E+02 -0.61299816962E+02 -0.14068333201E+03  0.17116452656E+03  0.00000000000E+00 0.  1.
</event>
<event>
 7    1  0.3056346E-009  0.1061921E+03  0.7561462E-02  0.1267789E+00
         -1   -1    0    0    0  501 -0.00000000000E+00  0.00000000000E+00  0.24355480049E+02  0.24355480049E+02  0.00000000000E+00 0.  1.
          1   -1    0    0  501    0  0.00000000000E+00 -0.00000000000E+00 -0.47680731227E+03  0.47680731227E+03  0.00000000000E+00 0. -1.
         25    2    1    2    0    0  0.24599619819E+02  0.24573486777E+02 -0.28599792269E+03  0.31408884275E+03  0.12509193342E+03 0.  0.
          5    1    3    3  502    0  0.38777211757E+02  0.70187979585E+02 -0.15447010864E+03  0.17409339877E+03  0.41800000000E+01 0.  1.
         -5    1    3    3    0  502 -0.14177591937E+02 -0.45614492809E+02 -0.13152781405E+03  0.13999544398E+03  0.41800000000E+01 0.  1.
        -11    1    1    2    0    0  0.26653923065E+02  0.13771596226E+01 -0.68507317540E+02  0.73522654603E+02  0.00000000000E+00 0. -1.
         11    1    1    2    0    0 -0.51253542884E+02 -0.25950646399E+02 -0.97946591995E+02  0.11355129497E+03  0.00000000000E+00 0.  1.
</event>
<event>
 6    1  0.3056346E-009  0.2811304E+03  0.7561462E-02  0.1095073E+00
         -2   -1    0    0    0  501 -0.00000000000E+00  0.00000000000E+00  0.10516220914E+03  0.10516220914E+03  0.00000000000E+00 0. -1.
          2   -1    0    0  501    0  0.00000000000E+00 -0.00000000000E+00 -0.78125796246E+03  0.78125796246E+03  0.00000000000E+00 0.  1.
          5    1    1    2  502    0 -0.15650080767E+02 -0.92313597009E+01 -0.53816353142E+01  0.19405603021E+02  0.41800000000E+01 0.  1.
         -5    1    1    2    0  502 -0.51548227612E+02  0.26087024183E+03 -0.30259829933E+03  0.40285692994E+03  0.41800000000E+01 0.  1.
        -11    1    1    2    0    0 -0.72877706000E+01 -0.15730226301E+03 -0.16457962129E+03  0.22777964196E+03  0.00000000000E+00 0.  1.
         11    1    1    2    0    0  0.74486078979E+02 -0.94336619119E+02 -0.20353619738E+03  0.23637799668E+03  0.00000000000E+00 0. -1.
</event>
<event>
 7    1  0.3056346E-009  0.7678594E+02  0.7561462E-02  0.1338428E+00
          2   -1    0    0  501    0  0.00000000000E+00  0.00000000000E+00  0.21695746725E+03  0.21695746725E+03  0.00000000000E+00 0. -1.
         -2   -1    0    0    0  501 -0.00000000000E+00 -0.00000000000E+00 -0.70856584550E+02  0.70856584550E+02  0.00000000000E+00 0.  1.
         25    2    1    2    0    0 -0.51792539044E+02  0.25520774064E+02  0.61188713851E+02  0.15074752748E+03  0.12508789442E+03 0.  0.
          5    1    3    3  502    0  0.10677650884E+02  0.73260062534E+01  0.81366623019E+02  0.82496559550E+02  0.41800000000E+01 0.  1.
         -5    1    3    3    0  502 -0.62470189928E+02  0.18194767811E+02 -0.20177909168E+02  0.68250967933E+02  0.41800000000E+01 0.  1.
        -11    1    1    2    0    0  0.50051988882E+01  0.13146422262E+02  0.74087573169E+02  0.75411198985E+02  0.00000000000E+00 0. -1.
         11    1    1    2    0    0  0.46787340156E+02 -0.38667196327E+02  0.10824595684E+02  0.61655325337E+02  0.00000000000E+00 0.  1.
</event>
<event>
 7    1  0.3056346E-009  0.2422478E+03  0.7561462E-02  0.1118304E+00
         -2   -1    0    0    0  501 -0.00000000000E+00  0.00000000000E+00  0.33922225624E+02  0.33922225624E+02  0.00000000000E+00 0.  1.
          2   -1    0    0  501    0  0.00000000000E+00 -0.00000000000E+00 -0.19224013903E+04  0.19224013903E+04  0.00000000000E+00 0. -1.
         25    2    1    2    0    0 -0.17730455189E+03 -0.14559555508E+03 -0.10407592165E+04  0.10730618105E+04  0.12508769987E+03 0.  0.
          5    1    3    3  502    0  0.12329543409E+02 -0.80597801920E+01 -0.17194104951E+02  0.23023625746E+02  0.41800000000E+01 0. -1.
         -5    1    3    3    0  502 -0.18963409530E+03 -0.13753577489E+03 -0.10235651116E+04  0.10500381848E+04  0.41800000000E+01 0. -1.
        -11    1    1    2    0    0  0.55213263620E+02  0.77297643344E+02 -0.49073202083E+03  0.49984132123E+03  0.00000000000E+00 0. -1.
         11    1    1    2    0    0  0.12209128827E+03  0.68297911740E+02 -0.35698792736E+03  0.38342048419E+03  0.00000000000E+00 0.  1.
</event>
<event>
 7    1  0.3056346E-009  0.1461294E+03  0.7561462E-02  0.1205312E+00
          1   -1    0    0  501    0  0.00000000000E+00  0.00000000000E+00  0.76506742261E+03  0.76506742261E+03  0.00000000000E+00 0. -1.
         -1   -1    0    0    0  501 -0.00000000000E+00 -0.00000000000E+00 -0.31838048048E+02  0.31838048048E+02  0.00000000000E+00 0.  1.
         25    2    1    2    0    0  0.86399616599E+02 -0.42431386793E+02  0.28446115363E+03  0.32531707379E+03  0.12509090390E+03 0.  0.
          5    1    3    3  502    0 -0.26862063579E+02 -0.30018726885E+02  0.47996985679E+02  0.62800298230E+02  0.41800000000E+01 0. -1.
         -5    1    3    3    0  502  0.11326168018E+03 -0.12412659909E+02  0.23646416796E+03  0.26251677556E+03  0.41800000000E+01 0. -1.
        -11    1    1    2    0    0 -0.60350981031E+02 -0.25099796561E+02  0.28726727436E+03  0.29460944930E+03  0.00000000000E+00 0.  1.
         11    1    1    2    0    0 -0.26048635568E+02  0.67531183355E+02  0.16150094656E+03  0.17697894756E+03  0.00000000000E+00 0. -1.
</event>
<event>
 7    1  0.3056346E-009  0.1131081E+03  0.7561462E-02  0.1254920E+00
         -2   -1    0    0    0  501 -0.00000000000E+00  0.00000000000E+00  0.12521834695E+03  0.12521834695E+03  0.00000000000E+00 0.  1.
          2   -1    0    0  501    0  0.00000000000E+00 -0.00000000000E+00 -0.17493577644E+03  0.17493577644E+03  0.00000000000E+00 0. -1.
         25    2    1    2    0    0 -0.66194362727E+02  0.13909694771E+02  0.48628249329E+02  0.15029106596E+03  0.12509006598E+03 0.  0.
          5    1    3    3  502    0 -0.84322498223E+02  0.43353375656E+02  0.61577680152E+02  0.11313302780E+03  0.41800000000E+01 0.  1.
         -5    1    3    3    0  502  0.18128135496E+02 -0.29443680885E+02 -0.12949430823E+02  0.37158038152E+02  0.41800000000E+01 0.  1.
        -11    1    1    2    0    0  0.73187667698E+02 -0.29875600151E+02 -0.39265531541E+02  0.88265328157E+02  0.00000000000E+00 0.  1.
         11    1    1    2    0    0 -0.69933049706E+01  0.15965905380E+02 -0.59080147281E+02  0.61597729275E+02  0.00000000000E+00 0. -1.
</event>
<event>
 7    1  0.3056346E-009  0.1813565E+03  0.7561462E-02  0.1166497E+00
         -2   -1    0    0    0  501 -0.00000000000E+00  0.00000000000E+00  0.58391953851E+02  0.58391953851E+02  0.00000000000E+00 0. -1.
          2   -1    0    0  501    0  0.00000000000E+00 -0.00000000000E+00 -0.77252740452E+03  0.77252740452E+03  0.00000000000E+00 0.  1.
         25    2    1    2    0    0 -0.22992243031E+02  0.14844379290E+03 -0.57334564110E+03  0.60575322259E+03  0.12509012600E+03 0.  0.
          5    1    3    3  502    0  0.40155707826E+02  0.94591320924E+01 -0.15325035239E+03  0.15876113806E+03  0.41800000000E+01 0. -1.
         -5    1    3    3    0  502 -0.63147950857E+02  0.13898466081E+03 -0.42009528871E+03  0.44699208453E+03  0.41800000000E+01 0. -1.
        -11    1    1    2    0    0 -0.60222524918E+01 -0.13732968022E+03 -0.13663983065E+03  0.19381989556E+03  0.00000000000E+00 0.  1.
         11    1    1    2    0    0  0.29014495523E+02 -0.11114112678E+02 -0.41499789231E+01  0.31346240223E+02  0.00000000000E+00 0. -1.
</event>
<event>
 7    1  0.3056346E-009  0.9439239E+02  0.7561462E-02  0.1292550E+00
         -1   -1    0    0    0  501 -0.00000000000E+00  0.00000000000E+00  0.94076065051E+02  0.94076065051E+02  0.00000000000E+00 0.  1.
          1   -1    0    0  501    0  0.00000000000E+00 -0.00000000000E+00 -0.32873541237E+03  0.32873541237E+03  0.00000000000E+00 0. -1.
         25    2    1    2    0    0  0.14437622269E+01 -0.36589374440E+02 -0.28497298516E+03  0.31336536688E+03  0.12508950441E+03 0.  0.
          5    1    3    3  502    0  0.45238792739E+02  0.25620497533E+02 -0.14339818649E+03  0.15258922160E+03  0.41800000000E+01 0. -1.
         -5    1    3    3    0  502 -0.43795030512E+02 -0.62209871973E+02 -0.14157479868E+03  0.16077614527E+03  0.41800000000E+01 0. -1.
        -11    1    1    2    0    0 -0.13182539179E+02  0.44411522684E+02  0.70777837864E+02  0.84591163954E+02  0.00000000000E+00 0.  1.
         11    1    1    2    0    0  0.11738776952E+02 -0.78221482438E+01 -0.20464200021E+02  0.24854946590E+02  0.00000000000E+00 0. -1.
</event>
<event>
 7    1  0.3056346E-009  0.1234150E+03  0.7561462E-02  0.1237567E+00
          1   -1    0    0  501    0  0.00000000000E+00  0.00000000000E+00  0.96269569425E+03  0.96269569425E+03  0.00000000000E+00 0. -1.
         -1   -1    0    0    0  501 -0.00000000000E+00 -0.00000000000E+00 -0.19441821440E+02  0.19441821440E+02  0.00000000000E+00 0.  1.
         25    2    1    2    0    0  0.36041575674E+02  0.46591570272E+02  0.31290026563E+03  0.34208771801E+03  0.12509061110E+03 0.  0.
          5    1    3    3  502    0  0.25569532127E+02 -0.40565820704E+02  0.14162689954E+03  0.14958287956E+03  0.41800000000E+01 0. -1.
         -5    1    3    3    0  502  0.10472043547E+02  0.87157390975E+02  0.17127336609E+03  0.19250483846E+03  0.41800000000E+01 0. -1.
        -11    1    1    2    0    0 -0.67142318078E+02 -0.20458935098E+02  0.41629418784E+03  0.42217000099E+03  0.00000000000E+00 0. -1.
         11    1    1    2    0    0  0.31100742404E+02 -0.26132635174E+02  0.21405941934E+03  0.21787979670E+03  0.00000000000E+00 0.  1.
</event>
<event>
 7    1  0.3056346E-009  0.1612932E+03  0.7561462E-02  0.1187244E+00
          2   -1    0    0  501    0  0.00000000000E+00  0.00000000000E+00  0.11594912413E+04  0.11594912413E+04  0.00000000000E+00 0. -1.
         -2   -1    0    0    0  501 -0.00000000000E+00 -0.00000000000E+00 -0.23591720372E+02  0.23591720372E+02  0.00000000000E+00 0.  1.
         25    2    1    2    0    0  0.21132257089E+02  0.11889105283E+03  0.55511040570E+03  0.58170099213E+03  0.12508727752E+03 0.  0.
          5    1    3    3  502    0  0.55522878289E+02  0.12212072492E+03  0.37585175156E+03  0.39909682161E+03  0.41800000000E+01 0.  1.
         -5    1    3    3    0  502 -0.34390621200E+02 -0.32296720827E+01  0.17925865414E+03  0.18260417052E+03  0.41800000000E+01 0.  1.
        -11    1    1    2    0    0 -0.46955220500E+02 -0.11881216043E+03  0.51730848190E+03  0.53285006113E+03  0.00000000000E+00 0. -1.
         11    1    1    2    0    0  0.25822963410E+02 -0.78892404607E-01  0.63480633351E+02  0.68531908437E+02  0.00000000000E+00 0.  1.
</event>
<event>
 7    1  0.3056346E-009  0.1411001E+03  0.7561462E-02  0.1211856E+00
         -1   -1    0    0    0  501 -0.00000000000E+00  0.00000000000E+00  0.14890927739E+03  0.14890927739E+03  0.00000000000E+00 0.  1.
          1   -1    0    0  501    0  0.00000000000E+00 -0.00000000000E+00 -0.17782883152E+03  0.17782883152E+03  0.00000000000E+00 0. -1.
         25    2    1    2    0    0  0.99633379312E+02 -0.63297802612E+02  0.12491157607E+02  0.17244494088E+03  0.12509119285E+03 0.  0.
          5    1    3    3  502    0  0.27207450206E+02 -0.66039899126E+02  0.53249349833E+02  0.89187887524E+02  0.41800000000E+01 0.  1.
         -5    1    3    3    0  502  0.72425929106E+02  0.27420965147E+01 -0.40758192226E+02  0.83257053357E+02  0.41800000000E+01 0.  1.
        -11    1    1    2    0    0 -0.71833980485E+02  0.78470057285E+02 -0.56641353205E+01  0.10653521986E+03  0.00000000000E+00 0.  1.
         11    1    1    2    0    0 -0.27799398827E+02 -0.15172254673E+02 -0.35746576424E+02  0.47757948166E+02  0.00000000000E+00 0. -1.
</event>
<event>
 7    1  0.3056346E-009  0.9246052E+02  0.7561462E-02  0.1297000E+00
          1   -1    0    0  501    0  0.00000000000E+00  0.00000000000E+00  0.13875087589E+03  0.13875087589E+03  0.00000000000E+00 0. -1.
         -1   -1    0    0    0  501 -0.00000000000E+00 -0.00000000000E+00 -0.11199872088E+03  0.11199872088E+03  0.00000000000E+00 0.  1.
         25    2    1    2    0    0  0.32147552355E+02  0.11292791421E+02  0.60894047908E+02  0.14323557000E+03  0.12508937278E+03 0.  0.
          5    1    3    3  502    0 -0.30142767756E+02 -0.33905895176E+02  0.45984804761E+02  0.64732301401E+02  0.41800000000E+01 0. -1.
         -5    1    3    3    0  502  0.62290320111E+02  0.45198686597E+02  0.14909243147E+02  0.78503268600E+02  0.41800000000E+01 0. -1.
        -11    1    1    2    0    0 -0.91542147265E+01 -0.30801296036E+02  0.25275858694E+02  0.40882618770E+02  0.00000000000E+00 0. -1.
         11    1    1    2    0    0 -0.22993337628E+02  0.19508504615E+02 -0.59417751594E+02  0.66631408001E+02  0.00000000000E+00 0.  1.
</event>
<event>
 7    1  0.3056346E-009  0.2191318E+03  0.7561462E-02  0.1134532E+00
          2   -1    0    0  501    0  0.00000000000E+00  0.00000000000E+00  0.31600693075E+03  0.31600693075E+03  0.00000000000E+00 0. -1.
         -2   -1    0    0    0  501 -0.00000000000E+00 -0.00000000000E+00 -0.19517753403E+03  0.19517753403E+03  0.00000000000E+00 0.  1.
         25    2    1    2    0    0 -0.19089711846E+03 -0.71494704634E+02  0.15500161291E+03  0.28500187719E+03  0.12508943747E+03 0.  0.
          5    1    3    3  502    0 -0.14768282747E+02  0.24500362760E+02  0.51943743550E+02  0.59447412430E+02  0.41800000000E+01 0. -1.
         -5    1    3    3    0  502 -0.17612883572E+03 -0.95995067393E+02  0.10305786936E+03  0.22555446476E+03  0.41800000000E+01 0. -1.
        -11    1    1    2    0    0  0.70046591062E+02  0.36835006524E+01 -0.50808707802E+02  0.86611880738E+02  0.00000000000E+00 0.  1.
         11    1    1    2    0    0  0.12085052740E+03  0.67811203981E+02  0.16636491608E+02  0.13957070685E+03  0.00000000000E+00 0. -1.
</event>
<event>
 7    1  0.3056346E-009  0.1361472E+03  0.7561462E-02  0.1218609E+00
          2   -1    0    0  501    0  0.00000000000E+00  0.00000000000E+00  0.25865319462E+03  0.25865319462E+03  0.00000000000E+00 0.  1.
         -2   -1    0    0    0  501 -0.00000000000E+00 -0.00000000000E+00 -0.13803581706E+03  0.13803581706E+03  0.00000000000E+00 0. -1.
         25    2    1    2    0    0 -0.11368141103E+03  0.23756890775E+02 -0.48605327679E+02  0.17747667872E+03  0.12509052937E+03 0.  0.
          5    1    3    3  502    0  0.87474753668E+00 -0.21815956321E+02 -0.49338643087E+02  0.54115388155E+02  0.41800000000E+01 0.  1.
         -5    1    3    3    0  502 -0.11455615857E+03  0.45572847096E+02  0.73331540845E+00  0.12336129057E+03  0.41800000000E+01 0.  1.
        -11    1    1    2    0    0  0.88222152618E+02 -0.39617881635E+02  0.16149440103E+03  0.18823699510E+03  0.00000000000E+00 0.  1.
         11    1    1    2    0    0  0.25459258415E+02  0.15860990860E+02  0.77283041986E+01  0.30975337865E+02  0.00000000000E+00 0. -1.
</event>
<event>
 7    1  0.3056346E-009  0.1479028E+03  0.7561462E-02  0.1203074E+00
          1   -1    0    0  501    0  0.00000000000E+00  0.00000000000E+00  0.55987252568E+03  0.55987252568E+03  0.00000000000E+00 0. -1.
         -1   -1    0    0    0  501 -0.00000000000E+00 -0.00000000000E+00 -0.60798637857E+02  0.60798637857E+02  0.00000000000E+00 0.  1.
         25    2    1    2    0    0 -0.35305525670E+02 -0.11607116160E+03  0.11856470717E+03  0.21077002126E+03  0.12508963737E+03 0.  0.
          5    1    3    3  502    0  0.31864772696E+02  0.78168072921E+01  0.18677853149E+02  0.37984217952E+02  0.41800000000E+01 0. -1.
         -5    1    3    3    0  502 -0.67170298365E+02 -0.12388796889E+03  0.99886854024E+02  0.17278580331E+03  0.41800000000E+01 0. -1.
        -11    1    1    2    0    0  0.11038564395E+02  0.53584598728E+02  0.55056837548E+02  0.77617101760E+02  0.00000000000E+00 0.  1.
         11    1    1    2    0    0  0.24266961275E+02  0.62486562874E+02  0.32545234311E+03  0.33228404052E+03  0.00000000000E+00 0. -1.
</event>
<event>
 7    1  0.3056346E-009  0.1992516E+03  0.7561462E-02  0.1150372E+00
          2   -1    0    0  501    0  0.00000000000E+00  0.00000000000E+00  0.43968357193E+02  0.43968357193E+02  0.00000000000E+00 0. -1.
         -2   -1    0    0    0  501 -0.00000000000E+00 -0.00000000000E+00 -0.18232803287E+04  0.18232803287E+04  0.00000000000E+00 0.  1.
         25    2    1    2    0    0 -0.13776595822E+03 -0.12955898197E+03 -0.15040783676E+04  0.15210738323E+04  0.12509547713E+03 0.  0.
          5    1    3    3  502    0 -0.13344655016E+03 -0.72454338854E+02 -0.77557871634E+03  0.79031476679E+03  0.41800000000E+01 0. -1.
         -5    1    3    3    0  502 -0.43194080592E+01 -0.57104643117E+02 -0.72849965123E+03  0.73075906549E+03  0.41800000000E+01 0. -1.
        -11    1    1    2    0    0  0.35898115017E+02  0.36711678993E+02 -0.15495819655E+03  0.16324357480E+03  0.00000000000E+00 0.  1.
         11    1    1    2    0    0  0.10186784320E+03  0.92847302978E+02 -0.12027540741E+03  0.18293127883E+03  0.00000000000E+00 0. -1.
</event>
<event>
 7    1  0.3056346E-009  0.1532904E+03  0.7561462E-02  0.1196487E+00
          2   -1    0    0  501    0  0.00000000000E+00  0.00000000000E+00  0.85664168637E+03  0.85664168637E+03  0.00000000000E+00 0. -1.
         -2   -1    0    0    0  501 -0.00000000000E+00 -0.00000000000E+00 -0.50823366298E+02  0.50823366298E+02  0.00000000000E+00 0.  1.
         25    2    1    2    0    0 -0.71357726420E+01  0.15293712841E+03  0.61669658022E+03  0.64761092007E+03  0.12507816455E+03 0.  0.
          5    1    3    3  502    0 -0.39248039563E+01  0.58833202140E+02  0.64747659107E+02  0.87672581347E+02  0.41800000000E+01 0. -1.
         -5    1    3    3    0  502 -0.32109686857E+01  0.94103926265E+02  0.55194892111E+03  0.55993833873E+03  0.41800000000E+01 0. -1.
        -11    1    1    2    0    0  0.32849019740E+01 -0.12164088954E+03  0.78458486062E+02  0.14478615481E+03  0.00000000000E+00 0.  1.
         11    1    1    2    0    0  0.38508706680E+01 -0.31296238863E+02  0.11066325379E+03  0.11506797778E+03  0.00000000000E+00 0. -1.
</event>
<event>
 7    1  0.3056346E-009  0.1249830E+03  0.7561462E-02  0.1235096E+00
         -2   -1    0    0    0  501 -0.00000000000E+00  0.00000000000E+00  0.40977080114E+02  0.40977080114E+02  0.00000000000E+00 0.  1.
          2   -1    0    0  501    0  0.00000000000E+00 -0.00000000000E+00 -0.42715296817E+03  0.42715296817E+03  0.00000000000E+00 0. -1.
         25    2    1    2    0    0 -0.61651921152E+02  0.42807715661E+02 -0.21366694581E+03  0.25871710308E+03  0.12509003074E+03 0.  0.
          5    1    3    3  502    0  0.34665493877E+02  0.34538721786E+02 -0.72942164764E+02  0.87935496637E+02  0.41800000000E+01 0.  1.
         -5    1    3    3    0  502 -0.96317415029E+02  0.82689938748E+01 -0.14072478105E+03  0.17078160644E+03  0.41800000000E+01 0.  1.
        -11    1    1    2    0    0  0.28689510905E+02 -0.60298250177E+02 -0.15379911456E+03  0.16766971894E+03  0.00000000000E+00 0. -1.
         11    1    1    2    0    0  0.32962410247E+02  0.17490534516E+02 -0.18709827682E+02  0.41743226263E+02  0.00000000000E+00 0.  1.
</event>
<event>
 7    1  0.3056346E-009  0.1193278E+03  0.7561462E-02  0.1244210E+00
         -3   -1    0    0    0  501 -0.00000000000E+00  0.00000000000E+00  0.20219643058E+03  0.20219643058E+03  0.00000000000E+00 0.  1.
          3   -1    0    0  501    0  0.00000000000E+00 -0.00000000000E+00 -0.83200654390E+02  0.83200654390E+02  0.00000000000E+00 0. -1.
         25    2    1    2    0    0  0.41176574249E+02 -0.44902412518E+02  0.25667480253E+02  0.14148466050E+03  0.12508937884E+03 0.  0.
          5    1    3    3  502    0 -0.24734060599E+02  0.29745005970E+02  0.12943729376E+02  0.41006727058E+02  0.41800000000E+01 0. -1.
         -5    1    3    3    0  502  0.65910634848E+02 -0.74647418488E+02  0.12723750877E+02  0.10047793344E+03  0.41800000000E+01 0. -1.
        -11    1    1    2    0    0 -0.13496898626E+02 -0.23045371615E+02  0.20260521746E+01  0.26783582898E+02  0.00000000000E+00 0. -1.
         11    1    1    2    0    0 -0.27679675622E+02  0.67947784133E+02  0.91302243759E+02  0.11712884157E+03  0.00000000000E+00 0.  1.
</event>
<event>
 7    1  0.3056346E-009  0.1075905E+03  0.7561462E-02  0.1265098E+00
          2   -1    0    0  501    0  0.00000000000E+00  0.00000000000E+00  0.42536777083E+03  0.42536777083E+03  0.00000000000E+00 0. -1.
         -2   -1    0    0    0  501 -0.00000000000E+00 -0.00000000000E+00 -0.36250780534E+02  0.36250780534E+02  0.00000000000E+00 0.  1.
         25    2    1    2    0    0  0.32244082010E+02  0.39654851784E+02  0.27051225422E+03  0.30238154361E+03  0.12508209360E+03 0.  0.
          5    1    3    3  502    0 -0.37609756092E+02  0.36136357317E+02  0.18267774636E+03  0.19002358140E+03  0.41800000000E+01 0. -1.
         -5    1    3    3    0  502  0.69853838102E+02  0.35184944669E+01  0.87834507861E+02  0.11235796221E+03  0.41800000000E+01 0. -1.
        -11    1    1    2    0    0  0.23988304030E+02 -0.11848122624E-01  0.72628768806E+02  0.76487756726E+02  0.00000000000E+00 0. -1.
         11    1    1    2    0    0 -0.56232386040E+02 -0.39643003661E+02  0.45975967265E+02  0.82749251023E+02  0.00000000000E+00 0.  1.
</event>
<event>
 7    1  0.3056346E-009  0.1158749E+03  0.7561462E-02  0.1250062E+00
         -1   -1    0    0    0  501 -0.00000000000E+00  0.00000000000E+00  0.25834875510E+02  0.25834875510E+02  0.00000000000E+00 0.  1.
          1   -1    0    0  501    0  0.00000000000E+00 -0.00000000000E+00 -0.64384158765E+03  0.64384158765E+03  0.00000000000E+00 0. -1.
         25    2    1    2    0    0  0.43298574406E+02 -0.56265593820E+02 -0.38308206925E+03  0.40919562456E+03  0.12509437953E+03 0.  0.
          5    1    3    3  502    0  0.39343544682E+02 -0.92855899229E+02 -0.22135242995E+03  0.24327865335E+03  0.41800000000E+01 0. -1.
         -5    1    3    3    0  502  0.39550297238E+01  0.36590305409E+02 -0.16172963930E+03  0.16591697121E+03  0.41800000000E+01 0. -1.
        -11    1    1    2    0    0 -0.31170074378E+01  0.53401710841E+02 -0.20043312249E+03  0.20744853590E+03  0.00000000000E+00 0. -1.
         11    1    1    2    0    0 -0.40181566968E+02  0.28638829792E+01 -0.34491520408E+02  0.53032302702E+02  0.00000000000E+00 0.  1.
</event>
<event>
 7    1  0.3056346E-009  0.1001738E+03  0.7561462E-02  0.1279931E+00
         -1   -1    0    0    0  501 -0.00000000000E+00  0.00000000000E+00  0.38087699126E+02  0.38087699126E+02  0.00000000000E+00 0.  1.
          1   -1    0    0  501    0  0.00000000000E+00 -0.00000000000E+00 -0.52625704283E+03  0.52625704283E+03  0.00000000000E+00 0. -1.
         25    2    1    2    0    0  0.16858078758E+02  0.17946926814E+02 -0.44121213286E+03  0.45926242831E+03  0.12509014699E+03 0.  0.
          5    1    3    3  502    0 -0.43499920139E+02  0.27202241670E+02 -0.98618130916E+02  0.11124393534E+03  0.41800000000E+01 0. -1.
         -5    1    3    3    0  502  0.60357998897E+02 -0.92553148559E+01 -0.34259400195E+03  0.34801849298E+03  0.41800000000E+01 0. -1.
        -11    1    1    2    0    0  0.18470337118E+02  0.25614665545E+02 -0.36084402388E+02  0.47951522812E+02  0.00000000000E+00 0. -1.
         11    1    1    2    0    0 -0.35328415876E+02 -0.43561592359E+02 -0.10872808453E+02  0.57130790830E+02  0.00000000000E+00 0.  1.
</event>
<event>
 7    1  0.3056346E-009  0.1005609E+03  0.7561462E-02  0.1279121E+00
         -1   -1    0    0    0  501 -0.00000000000E+00  0.00000000000E+00  0.18653845804E+02  0.18653845804E+02  0.00000000000E+00 0.  1.
          1   -1    0    0  501    0  0.00000000000E+00 -0.00000000000E+00 -0.18129800079E+04  0.18129800079E+04  0.00000000000E+00 0. -1.
         25    2    1    2    0    0  0.11279326791E+02 -0.30224254910E+02 -0.16695578796E+04  0.16745480504E+04  0.12508769273E+03 0.  0.
          5    1    3    3  502    0  0.57469677269E+02 -0.38131803086E+02 -0.13240343010E+04  0.13258360008E+04  0.41800000000E+01 0.  1.
         -5    1    3    3    0  502 -0.46190350478E+02  0.79075481764E+01 -0.34552357859E+03  0.34871204963E+03  0.41800000000E+01 0.  1.
        -11    1    1    2    0    0 -0.38525215937E+02  0.40464121153E+02 -0.43639969832E+02  0.70894176987E+02  0.00000000000E+00 0.  1.
         11    1    1    2    0    0  0.27245889146E+02 -0.10239866243E+02 -0.81128312608E+02  0.86191626291E+02  0.00000000000E+00 0. -1.
</event>
<event>
 7    1  0.3056346E-009  0.1621624E+03  0.7561462E-02  0.1186277E+00
         -1   -1    0    0    0  501 -0.00000000000E+00  0.00000000000E+00  0.17745469991E+03  0.17745469991E+03  0.00000000000E+00 0.  1.
          1   -1    0    0  501    0  0.00000000000E+00 -0.00000000000E+00 -0.17463811995E+03  0.17463811995E+03  0.00000000000E+00 0. -1.
         25    2    1    2    0    0  0.17749129145E+02 -0.12782106804E+03 -0.48095876528E+02  0.18605038536E+03  0.12509306749E+03 0.  0.
          5    1    3    3  502    0 -0.14367580496E+02  0.14881679294E+02  0.15813689025E+02  0.26371137793E+02  0.41800000000E+01 0.  1.
         -5    1    3    3    0  502  0.32116709641E+02 -0.14270274733E+03 -0.63909565552E+02  0.15967924757E+03  0.41800000000E+01 0.  1.
        -11    1    1    2    0    0 -0.48734869858E+02  0.11190111685E+03  0.47756894132E+02  0.13106360452E+03  0.00000000000E+00 0.  1.
         11    1    1    2    0    0  0.30985740713E+02  0.15919951189E+02  0.31555623581E+01  0.34978829986E+02  0.00000000000E+00 0. -1.
</event>
<event>
 7    1  0.3056346E-009  0.1514154E+03  0.7561462E-02  0.1198745E+00
          1   -1    0    0  501    0  0.00000000000E+00  0.00000000000E+00  0.19484311823E+03  0.19484311823E+03  0.00000000000E+00 0. -1.
         -1   -1    0    0    0  501 -0.00000000000E+00 -0.00000000000E+00 -0.16558205553E+03  0.16558205553E+03  0.00000000000E+00 0.  1.
         25    2    1    2    0    0 -0.12424921133E+03  0.71728357131E+02  0.11438842531E+02  0.19068502130E+03  0.12508839474E+03 0.  0.
          5    1    3    3  502    0 -0.40423566626E+02  0.29451877141E+01 -0.51165061397E+02  0.65406993335E+02  0.41800000000E+01 0. -1.
         -5    1    3    3    0  502 -0.83825644699E+02  0.68783169417E+02  0.62603903927E+02  0.12527802797E+03  0.41800000000E+01 0. -1.
        -11    1    1    2    0    0  0.28348602732E+02  0.73337640072E+01 -0.24772534814E+02  0.38354997751E+02  0.00000000000E+00 0.  1.
         11    1    1    2    0    0  0.95900608594E+02 -0.79062121138E+02  0.42594754981E+02  0.13138515471E+03  0.00000000000E+00 0. -1.
</event>
<event>
 7    1  0.3056346E-009  0.7225112E+02  0.7561462E-02  0.1352601E+00
          2   -1    0    0  501    0  0.00000000000E+00  0.00000000000E+00  0.23725705130E+03  0.23725705130E+03  0.00000000000E+00 0. -1.
         -2   -1    0    0    0  501 -0.00000000000E+00 -0.00000000000E+00 -0.67333228055E+02  0.67333228055E+02  0.00000000000E+00 0.  1.
         25    2    1    2    0    0 -0.62415303946E+02 -0.51295991741E+01  0.11423884412E+03  0.18060650426E+03  0.12508482290E+03 0.  0.
          5    1    3    3  502    0 -0.85588851073E+01  0.78378914961E+01  0.12364841890E+03  0.12426218634E+03  0.41800000000E+01 0.  1.
         -5    1    3    3    0  502 -0.53856418838E+02 -0.12967490670E+02 -0.94095747742E+01  0.56344317919E+02  0.41800000000E+01 0.  1.
        -11    1    1    2    0    0  0.75693049652E+01  0.18648683250E+02 -0.20772067416E+02  0.28923114447E+02  0.00000000000E+00 0.  1.
         11    1    1    2    0    0  0.54845998980E+02 -0.13519084075E+02  0.76457046540E+02  0.95060660654E+02  0.00000000000E+00 0. -1.
</event>
<event>
 7    1  0.3056346E-009  0.1117119E+03  0.7561462E-02  0.1257432E+00
         -1   -1    0    0    0  501 -0.00000000000E+00  0.00000000000E+00  0.18444867174E+03  0.18444867174E+03  0.00000000000E+00 0.  1.
          1   -1    0    0  501    0  0.00000000000E+00 -0.00000000000E+00 -0.69918845994E+02  0.69918845994E+02  0.00000000000E+00 0. -1.
         25    2    1    2    0    0  0.32814690463E+02  0.44252138682E+01  0.66915238326E+02  0.14568014612E+03  0.12509464188E+03 0.  0.
          5    1    3    3  502    0  0.23295629245E+02 -0.57930578910E+02  0.16218711462E+02  0.64646402191E+02  0.41800000000E+01 0. -1.
         -5    1    3    3    0  502  0.95190612183E+01  0.62355792779E+02  0.50696526863E+02  0.81033743931E+02  0.41800000000E+01 0. -1.
        -11    1    1    2    0    0  0.31177598187E+02  0.85613935309E+01  0.17773101316E+02  0.36894758683E+02  0.00000000000E+00 0.  1.
         11    1    1    2    0    0 -0.63992288650E+02 -0.12986607399E+02  0.29841486107E+02  0.71792612931E+02  0.00000000000E+00 0. -1.
</event>
<event>
 7    1  0.3056346E-009  0.9511693E+02  0.7561462E-02  0.1290913E+00
          1   -1    0    0  501    0  0.00000000000E+00  0.00000000000E+00  0.11677518510E+04  0.11677518510E+04  0.00000000000E+00 0. -1.
         -1   -1    0    0    0  501 -0.00000000000E+00 -0.00000000000E+00 -0.11203565328E+02  0.11203565328E+02  0.00000000000E+00 0.  1.
         25    2    1    2    0    0  0.39869047688E+01  0.37609233406E+02  0.68414580598E+03  0.69651545658E+03  0.12509175661E+03 0.  0.
          5    1    3    3  502    0 -0.21162824789E+02 -0.22994404258E+02  0.49984230113E+03  0.50083570778E+03  0.41800000000E+01 0. -1.
         -5    1    3    3    0  502  0.25149729557E+02  0.60603637664E+02  0.18430350484E+03  0.19567974880E+03  0.41800000000E+01 0. -1.
        -11    1    1    2    0    0  0.95378411335E+01 -0.63251477743E+02  0.38700708365E+03  0.39225782675E+03  0.00000000000E+00 0. -1.
         11    1    1    2    0    0 -0.13524745902E+02  0.25642244338E+02  0.85395396036E+02  0.90182132990E+02  0.00000000000E+00 0.  1.
</event>
<event>
 6    1  0.3056346E-009  0.1218718E+03  0.7561462E-02  0.1240041E+00
          2   -1    0    0  501    0  0.00000000000E+00  0.00000000000E+00  0.16723475528E+03  0.16723475528E+03  0.00000000000E+00 0. -1.
         -2   -1    0    0    0  501 -0.00000000000E+00 -0.00000000000E+00 -0.16691593462E+03  0.16691593462E+03  0.00000000000E+00 0.  1.
          5    1    1    2  502    0 -0.66032471322E+01 -0.20974519200E+02 -0.36053569936E+02  0.42436607234E+02  0.41800000000E+01 0.  1.
         -5    1    1    2    0  502 -0.89075103867E+01 -0.82282577761E+02  0.10708024515E+03  0.13540095142E+03  0.41800000000E+01 0.  1.
        -11    1    1    2    0    0 -0.36746423470E+02  0.25200774622E+02 -0.14553873771E+02  0.46874235152E+02  0.00000000000E+00 0.  1.
         11    1    1    2    0    0  0.52257180989E+02  0.78056322339E+02 -0.56153980776E+02  0.10943889610E+03  0.00000000000E+00 0. -1.
</event>
<event>
 7    1  0.3056346E-009  0.1214515E+03  0.7561462E-02  0.1240722E+00
         -4   -1    0    0    0  501 -0.00000000000E+00  0.00000000000E+00  0.69414279973E+02  0.69414279973E+02  0.00000000000E+00 0.  1.
          4   -1    0    0  501    0  0.00000000000E+00 -0.00000000000E+00 -0.21460890594E+03  0.21460890594E+03  0.00000000000E+00 0. -1.
         25    2    1    2    0    0  0.33088619749E+02 -0.42549910423E+02 -0.84309367810E+02  0.16019928683E+03  0.12510152024E+03 0.  0.
          5    1    3    3  502    0 -0.47650176929E+02 -0.21160790585E+02 -0.27430973121E+02  0.59061401151E+02  0.41800000000E+01 0.  1.
         -5    1    3    3    0  502  0.80738796679E+02 -0.21389119839E+02 -0.56878394689E+02  0.10113788568E+03  0.41800000000E+01 0.  1.
        -11    1    1    2    0    0 -0.19671167367E+02 -0.28519126611E+02 -0.27162241949E+02  0.44023661773E+02  0.00000000000E+00 0. -1.
         11    1    1    2    0    0 -0.13417452383E+02  0.71069037034E+02 -0.33723016210E+02  0.79800237316E+02  0.00000000000E+00 0.  1.
</event>
<event>
 7    1  0.3056346E-009  0.8841386E+02  0.7561462E-02  0.1306739E+00
          2   -1    0    0  501    0  0.00000000000E+00  0.00000000000E+00  0.36846542735E+03  0.36846542735E+03  0.00000000000E+00 0. -1.
         -2   -1    0    0    0  501 -0.00000000000E+00 -0.00000000000E+00 -0.52742086451E+02  0.52742086451E+02  0.00000000000E+00 0.  1.
         25    2    1    2    0    0  0.13231548185E+02 -0.31451749416E+02  0.29600925198E+03  0.32316262214E+03  0.12509323195E+03 0.  0.
          5    1    3    3  502    0  0.10663843981E+02  0.30242011774E+02  0.23157042127E+03  0.23381751271E+03  0.41800000000E+01 0.  1.
         -5    1    3    3    0  502  0.25677042036E+01 -0.61693761189E+02  0.64438830709E+02  0.89345109423E+02  0.41800000000E+01 0.  1.
        -11    1    1    2    0    0  0.18764279061E+02  0.44308943702E+02 -0.13698079122E+02  0.50030171220E+02  0.00000000000E+00 0.  1.
         11    1    1    2    0    0 -0.31995827246E+02 -0.12857194286E+02  0.33412168039E+02  0.48014720442E+02  0.00000000000E+00 0. -1.
</event>
<event>
 7    1  0.3056346E-009  0.7195098E+02  0.7561462E-02  0.1353582E+00
         -2   -1    0    0    0  501 -0.00000000000E+00  0.00000000000E+00  0.58437381163E+02  0.58437381163E+02  0.00000000000E+00 0.  1.
          2   -1    0    0  501    0  0.00000000000E+00 -0.00000000000E+00 -0.30633045752E+03  0.30633045752E+03  0.00000000000E+00 0. -1.
         25    2    1    2    0    0 -0.64560398057E+02 -0.27889946212E+02 -0.18468163129E+03  0.23388182731E+03  0.12509000804E+03 0.  0.
          5    1    3    3  502    0 -0.47717769155E+01 -0.12434660523E+01  0.18910452149E+02  0.19984835832E+02  0.41800000000E+01 0.  1.
         -5    1    3    3    0  502 -0.59788621141E+02 -0.26646480160E+02 -0.20359208344E+03  0.21389699148E+03  0.41800000000E+01 0.  1.
        -11    1    1    2    0    0  0.32299763135E+02  0.59787488549E+01 -0.81456958494E+02  0.87830838682E+02  0.00000000000E+00 0. -1.
         11    1    1    2    0    0  0.32260634921E+02  0.21911197357E+02  0.18245513430E+02  0.43055172692E+02  0.00000000000E+00 0.  1.
</event>
<event>
 7    1  0.3056346E-009  0.2107122E+03  0.7561462E-02  0.1141003E+00
         -1   -1    0    0    0  501 -0.00000000000E+00  0.00000000000E+00  0.13088204668E+03  0.13088204668E+03  0.00000000000E+00 0.  1.
          1   -1    0    0  501    0  0.00000000000E+00 -0.00000000000E+00 -0.41295989012E+03  0.41295989012E+03  0.00000000000E+00 0. -1.
         25    2    1    2    0    0  0.20164008706E+03 -0.17492718764E+02 -0.10440781221E+03  0.25983288957E+03  0.12508964517E+03 0.  0.
          5    1    3    3  502    0  0.83965256171E+01  0.34921514648E+01  0.24561211435E+02  0.26522109106E+02  0.41800000000E+01 0.  1.
         -5    1    3    3    0  502  0.19324356145E+03 -0.20984870228E+02 -0.12896902365E+03  0.23331078046E+03  0.41800000000E+01 0.  1.
        -11    1    1    2    0    0 -0.75065134783E+02 -0.31311178903E+02 -0.95355913672E+02  0.12533121980E+03  0.00000000000E+00 0. -1.
         11    1    1    2    0    0 -0.12657495228E+03  0.48803897666E+02 -0.82314117557E+02  0.15867782744E+03  0.00000000000E+00 0.  1.
</event>
<event>
 7    1  0.3056346E-009  0.1510316E+03  0.7561462E-02  0.1199211E+00
         -1   -1    0    0    0  501 -0.00000000000E+00  0.00000000000E+00  0.35915196495E+03  0.35915196495E+03  0.00000000000E+00 0.  1.
          1   -1    0    0  501    0  0.00000000000E+00 -0.00000000000E+00 -0.12942330031E+03  0.12942330031E+03  0.00000000000E+00 0. -1.
         25    2    1    2    0    0 -0.12050450628E+03  0.20063137679E+02  0.27789458705E+03  0.32832501560E+03  0.12509216134E+03 0.  0.
          5    1    3    3  502    0 -0.16692463140E+02 -0.46404279985E+02  0.10348264959E+03  0.11470887801E+03  0.41800000000E+01 0.  1.
         -5    1    3    3    0  502 -0.10381204314E+03  0.66467417663E+02  0.17441193746E+03  0.21361613759E+03  0.41800000000E+01 0.  1.
        -11    1    1    2    0    0  0.49740565307E+02 -0.29518612641E+02  0.20333740640E+02  0.61310140578E+02  0.00000000000E+00 0.  1.
         11    1    1    2    0    0  0.70763940971E+02  0.94554749627E+01 -0.68499663049E+02  0.98940109088E+02  0.00000000000E+00 0. -1.
</event>
<event>
 7    1  0.3056346E-009  0.1316895E+03  0.7561462E-02  0.1224970E+00
         -1   -1    0    0    0  501 -0.00000000000E+00  0.00000000000E+00  0.36678724051E+02  0.36678724051E+02  0.00000000000E+00 0.  1.
          1   -1    0    0  501    0  0.00000000000E+00 -0.00000000000E+00 -0.90196683138E+03  0.90196683138E+03  0.00000000000E+00 0. -1.
         25    2    1    2    0    0  0.90169201348E+02  0.17019339603E+02 -0.74713072937E+03  0.76306693809E+03  0.12508669967E+03 0.  0.
          5    1    3    3  502    0  0.91275906070E+02 -0.27777547568E+02 -0.33076068141E+03  0.34427167171E+03  0.41800000000E+01 0.  1.
         -5    1    3    3    0  502 -0.11067047224E+01  0.44796887171E+02 -0.41637004796E+03  0.41879526637E+03  0.41800000000E+01 0.  1.
        -11    1    1    2    0    0  0.12177349899E+02  0.11372313466E+02  0.52642193771E-01  0.16661936722E+02  0.00000000000E+00 0.  1.
         11    1    1    2    0    0 -0.10234655125E+03 -0.28391653069E+02 -0.11821002015E+03  0.15891668062E+03  0.00000000000E+00 0. -1.
</event>
<event>
 7    1  0.3056346E-009  0.8732468E+02  0.7561462E-02  0.1309463E+00
         -1   -1    0    0    0  501 -0.00000000000E+00  0.00000000000E+00  0.57356249498E+02  0.57356249498E+02  0.00000000000E+00 0.  1.
          1   -1    0    0  501    0  0.00000000000E+00 -0.00000000000E+00 -0.24789487824E+03  0.24789487824E+03  0.00000000000E+00 0. -1.
         25    2    1    2    0    0  0.47794410023E+01 -0.17997748533E+02 -0.44946395870E+02  0.13421898128E+03  0.12509114447E+03 0.  0.
          5    1    3    3  502    0 -0.98102136758E+01  0.32688440788E+02  0.27834834578E+02  0.44238273808E+02  0.41800000000E+01 0.  1.
         -5    1    3    3    0  502  0.14589654678E+02 -0.50686189321E+02 -0.72781230448E+02  0.89980707472E+02  0.41800000000E+01 0.  1.
        -11    1    1    2    0    0 -0.93963800943E+00  0.52566369639E+02 -0.67617057870E+02  0.85651460301E+02  0.00000000000E+00 0. -1.
         11    1    1    2    0    0 -0.38398029929E+01 -0.34568621106E+02 -0.77975175002E+02  0.85380686158E+02  0.00000000000E+00 0.  1.
</event>
<event>
 7    1  0.3056346E-009  0.1428602E+03  0.7561462E-02  0.1209531E+00
         -1   -1    0    0    0  501 -0.00000000000E+00  0.00000000000E+00  0.11918852577E+03  0.11918852577E+03  0.00000000000E+00 0.  1.
          1   -1    0    0  501    0  0.00000000000E+00 -0.00000000000E+00 -0.25791261895E+03  0.25791261895E+03  0.00000000000E+00 0. -1.
         25    2    1    2    0    0  0.49205203930E+02 -0.94743670168E+02  0.21352865121E+02  0.16583310070E+03  0.12508859783E+03 0.  0.
          5    1    3    3  502    0 -0.65265616792E+01  0.20592397507E+02 -0.21433070505E+02  0.30716310874E+02  0.41800000000E+01 0.  1.
         -5    1    3    3    0  502  0.55731765609E+02 -0.11533606768E+03  0.42785935626E+02  0.13511678982E+03  0.41800000000E+01 0.  1.
        -11    1    1    2    0    0 -0.59000763713E+01  0.91971261892E+02 -0.89818136682E+02  0.12868885574E+03  0.00000000000E+00 0.  1.
         11    1    1    2    0    0 -0.43305127558E+02  0.27724082761E+01 -0.70258821626E+02  0.82579188279E+02  0.00000000000E+00 0. -1.
</event>
<event>
 7    1  0.3639582E-009  0.1005091E+03  0.7561462E-02  0.1279229E+00
          2   -1    0    0  501    0  0.00000000000E+00  0.00000000000E+00  0.16197509553E+03  0.16197509553E+03  0.00000000000E+00 0. -1.
         -2   -1    0    0    0  501 -0.00000000000E+00 -0.00000000000E+00 -0.92275956286E+02  0.92275956286E+02  0.00000000000E+00 0.  1.
         25    2    1    2    0    0  0.11259363263E+02  0.28782272740E+02 -0.10155012917E+02  0.12924941448E+03  0.12508834627E+03 0.  0.
          5    1    3    3  502    0 -0.43130450247E+02  0.51352323277E+02 -0.18339220868E+02  0.69649811676E+02  0.41800000000E+01 0.  1.
         -5    1    3    3    0  502  0.54389813510E+02 -0.22570050537E+02  0.81842079512E+01  0.59599602806E+02  0.41800000000E+01 0.  1.
        -11    1    1    2    0    0 -0.66439656067E+01 -0.51339000870E+02  0.86702210954E+02  0.10098073417E+03  0.00000000000E+00 0. -1.
         11    1    1    2    0    0 -0.46153976558E+01  0.22556728130E+02 -0.68480587950E+01  0.24020903162E+02  0.00000000000E+00 0.  1.
</event>
<event>
 7    1  0.3056346E-009  0.1713096E+03  0.7561462E-02  0.1176489E+00
         -2   -1    0    0    0  501 -0.00000000000E+00  0.00000000000E+00  0.20603194303E+02  0.20603194303E+02  0.00000000000E+00 0.  1.
          2   -1    0    0  501    0  0.00000000000E+00 -0.00000000000E+00 -0.15159207604E+04  0.15159207604E+04  0.00000000000E+00 0. -1.
         25    2    1    2    0    0 -0.13290184866E+03  0.33939690815E+02 -0.67756860968E+03  0.70253897502E+03  0.12508791551E+03 0.  0.
          5    1    3    3  502    0  0.53276008519E+01 -0.30589789356E+02 -0.83562533332E+02  0.89242859214E+02  0.41800000000E+01 0.  1.
         -5    1    3    3    0  502 -0.13822944952E+03  0.64529480171E+02 -0.59400607635E+03  0.61329611581E+03  0.41800000000E+01 0.  1.
        -11    1    1    2    0    0  0.11922847447E+03  0.30275449653E+01 -0.69202893943E+03  0.70223119282E+03  0.00000000000E+00 0.  1.
         11    1    1    2    0    0  0.13673374191E+02 -0.36967235781E+02 -0.12572001699E+03  0.13175378687E+03  0.00000000000E+00 0. -1.
</event>
<event>
 7    1  0.3056346E-009  0.2062548E+03  0.7561462E-02  0.1144567E+00
         -2   -1    0    0    0  501 -0.00000000000E+00  0.00000000000E+00  0.61092531870E+02  0.61092531870E+02  0.00000000000E+00 0. -1.
          2   -1    0    0  501    0  0.00000000000E+00 -0.00000000000E+00 -0.90568927749E+03  0.90568927749E+03  0.00000000000E+00 0.  1.
         25    2    1    2    0    0  0.39446053873E+02 -0.20097287815E+03 -0.49995569039E+03  0.55457135262E+03  0.12509038282E+03 0.  0.
          5    1    3    3  502    0  0.99270487532E+01 -0.27308730892E+02 -0.57780039318E+01  0.29919405230E+02  0.41800000000E+01 0.  1.
         -5    1    3    3    0  502  0.29519005120E+02 -0.17366414726E+03 -0.49417768646E+03  0.52465194739E+03  0.41800000000E+01 0.  1.
        -11    1    1    2    0    0  0.18332005288E+01  0.60710231552E+02 -0.35787766608E+02  0.70497213265E+02  0.00000000000E+00 0. -1.
         11    1    1    2    0    0 -0.41279254402E+02  0.14026264660E+03 -0.30885328862E+03  0.34171324348E+03  0.00000000000E+00 0.  1.
</event>
<event>
 7    1  0.3056346E-009  0.1034913E+03  0.7561462E-02  0.1273121E+00
         -1   -1    0    0    0  501 -0.00000000000E+00  0.00000000000E+00  0.34191228509E+02  0.34191228509E+02  0.00000000000E+00 0.  1.
          1   -1    0    0  501    0  0.00000000000E+00 -0.00000000000E+00 -0.49507600030E+03  0.49507600030E+03  0.00000000000E+00 0. -1.
         25    2    1    2    0    0 -0.32172787873E+02  0.11733671208E+02 -0.38375836571E+03  0.40507900314E+03  0.12508296530E+03 0.  0.
          5    1    3    3  502    0  0.11069571929E+02 -0.51477371965E+02 -0.14653141881E+03  0.15576066367E+03  0.41800000000E+01 0. -1.
         -5    1    3    3    0  502 -0.43242359802E+02  0.63211043173E+02 -0.23722694690E+03  0.24931833947E+03  0.41800000000E+01 0. -1.
        -11    1    1    2    0    0  0.22930432125E+02  0.28272371522E+02  0.46186284504E+00  0.36405288438E+02  0.00000000000E+00 0.  1.
         11    1    1    2    0    0  0.92423557479E+01 -0.40006042730E+02 -0.77588268923E+02  0.87782937233E+02  0.00000000000E+00 0. -1.
</event>
<event>
 7    1  0.3056346E-009  0.1086903E+03  0.7561462E-02  0.1263015E+00
          2   -1    0    0  501    0  0.00000000000E+00  0.00000000000E+00  0.16906276285E+04  0.16906276285E+04  0.00000000000E+00 0. -1.
         -2   -1    0    0    0  501 -0.00000000000E+00 -0.00000000000E+00 -0.12059795023E+02  0.12059795023E+02  0.00000000000E+00 0.  1.
         25    2    1    2    0    0  0.60794760029E+02  0.25110256124E+01  0.13364108467E+04  0.13436276053E+04  0.12505551731E+03 0.  0.
          5    1    3    3  502    0  0.22701706279E+02  0.58793907844E+02  0.86781239413E+03  0.87010799035E+03  0.41800000000E+01 0.  1.
         -5    1    3    3    0  502  0.38093053751E+02 -0.56282882232E+02  0.46859845261E+03  0.47351961498E+03  0.41800000000E+01 0.  1.
        -11    1    1    2    0    0 -0.68785995275E+02  0.11747508765E+02  0.33318502781E+03  0.34041412994E+03  0.00000000000E+00 0. -1.
         11    1    1    2    0    0  0.79912352458E+01 -0.14258534377E+02  0.89719589194E+01  0.18645688246E+02  0.00000000000E+00 0.  1.
</event>
<event>
 7    1  0.3467596E-009  0.1247430E+03  0.7561462E-02  0.1235471E+00
          2   -1    0    0  501    0  0.00000000000E+00  0.00000000000E+00  0.93580002384E+02  0.93580002384E+02  0.00000000000E+00 0. -1.
         -2   -1    0    0    0  501 -0.00000000000E+00 -0.00000000000E+00 -0.23783609890E+03  0.23783609890E+03  0.00000000000E+00 0.  1.
         25    2    1    2    0    0  0.52294689645E+02 -0.80796063895E+02 -0.11620643331E+03  0.19599562147E+03  0.12509040726E+03 0.  0.
          5    1    3    3  502    0  0.23458191515E+02  0.30098236776E+02 -0.99140843922E+01  0.39647850831E+02  0.41800000000E+01 0.  1.
         -5    1    3    3    0  502  0.28836498130E+02 -0.11089430067E+03 -0.10629234891E+03  0.15634777064E+03  0.41800000000E+01 0.  1.
        -11    1    1    2    0    0 -0.30119698009E+02  0.52017814421E+02  0.29814349077E+02  0.67096532222E+02  0.00000000000E+00 0. -1.
         11    1    1    2    0    0 -0.22174991636E+02  0.28778249474E+02 -0.57864012286E+02  0.68323947593E+02  0.00000000000E+00 0.  1.
</event>
<event>
 7    1  0.3056346E-009  0.1444199E+03  0.7561462E-02  0.1207502E+00
          1   -1    0    0  501    0  0.00000000000E+00  0.00000000000E+00  0.11795181018E+03  0.11795181018E+03  0.00000000000E+00 0. -1.
         -1   -1    0    0    0  501 -0.00000000000E+00 -0.00000000000E+00 -0.20919358346E+03  0.20919358346E+03  0.00000000000E+00 0.  1.
         25    2    1    2    0    0 -0.86408016764E+02 -0.72855928939E+02 -0.49327457335E+02  0.17565692284E+03  0.12509126569E+03 0.  0.
          5    1    3    3  502    0 -0.87697453617E+02  0.50245430958E+01 -0.41563948374E+02  0.97268307318E+02  0.41800000000E+01 0.  1.
         -5    1    3    3    0  502  0.12894368524E+01 -0.77880472034E+02 -0.77635089611E+01  0.78388615520E+02  0.41800000000E+01 0.  1.
        -11    1    1    2    0    0  0.24420076105E+02 -0.33647403717E+01  0.23016400213E+02  0.33725602641E+02  0.00000000000E+00 0. -1.
         11    1    1    2    0    0  0.61987940659E+02  0.76220669310E+02 -0.64930716154E+02  0.11776286816E+03  0.00000000000E+00 0.  1.
</event>
<event>
 7    1  0.3056346E-009  0.1719327E+03  0.7561462E-02  0.1175847E+00
          2   -1    0    0  501    0  0.00000000000E+00  0.00000000000E+00  0.80053657141E+03  0.80053657141E+03  0.00000000000E+00 0.  1.
         -2   -1    0    0    0  501 -0.00000000000E+00 -0.00000000000E+00 -0.48090810901E+02  0.48090810901E+02  0.00000000000E+00 0. -1.
         25    2    1    2    0    0  0.14042734703E+03  0.67439923289E+02  0.49329243213E+03  0.53221581851E+03  0.12509304870E+03 0.  0.
          5    1    3    3  502    0 -0.15657427916E+01  0.98261038704E+01  0.20857455969E+03  0.20885359278E+03  0.41800000000E+01 0. -1.
         -5    1    3    3    0  502  0.14199308982E+03  0.57613819419E+02  0.28471787244E+03  0.32336222573E+03  0.41800000000E+01 0. -1.
        -11    1    1    2    0    0 -0.11534299722E+03 -0.84196032801E+01  0.18705389003E+03  0.21991829052E+03  0.00000000000E+00 0.  1.
         11    1    1    2    0    0 -0.25084349808E+02 -0.59020320009E+02  0.72099438349E+02  0.96493273286E+02  0.00000000000E+00 0. -1.
</event>
<event>
 7    1  0.3056346E-009  0.1111795E+03  0.7561462E-02  0.1258401E+00
         -2   -1    0    0    0  501 -0.00000000000E+00  0.00000000000E+00  0.20951543415E+02  0.20951543415E+02  0.00000000000E+00 0.  1.
          2   -1    0    0  501    0  0.00000000000E+00 -0.00000000000E+00 -0.63263611941E+03  0.63263611941E+03  0.00000000000E+00 0. -1.
         25    2    1    2    0    0  0.23312886585E+02  0.72498716444E+02 -0.45974274218E+03  0.48250222762E+03  0.12508179764E+03 0.  0.
          5    1    3    3  502    0 -0.49010930125E+02  0.13266993162E+02 -0.12659975579E+03  0.13646631433E+03  0.41800000000E+01 0.  1.
         -5    1    3    3    0  502  0.72323816709E+02  0.59231723282E+02 -0.33314298639E+03  0.34603591329E+03  0.41800000000E+01 0.  1.
        -11    1    1    2    0    0 -0.14623187732E+02 -0.64113071749E+02 -0.11839901346E+03  0.13543503969E+03  0.00000000000E+00 0.  1.
         11    1    1    2    0    0 -0.86896988524E+01 -0.83856446950E+01 -0.33542820357E+02  0.35650395518E+02  0.00000000000E+00 0. -1.
</event>
<event>
 7    1  0.3056346E-009  0.1023315E+03  0.7561462E-02  0.1275468E+00
         -2   -1    0    0    0  501 -0.00000000000E+00  0.00000000000E+00  0.26680582357E+02  0.26680582357E+02  0.00000000000E+00 0. -1.
          2   -1    0    0  501    0  0.00000000000E+00 -0.00000000000E+00 -0.56566419910E+03  0.56566419910E+03  0.00000000000E+00 0.  1.
         25    2    1    2    0    0  0.23341513798E+02  0.51660229022E+02 -0.25984897333E+03  0.29390930450E+03  0.12509030658E+03 0.  0.
          5    1    3    3  502    0 -0.76203182468E-01 -0.21630155582E+02 -0.18560177668E+03  0.18690468519E+03  0.41800000000E+01 0. -1.
         -5    1    3    3    0  502  0.23417716980E+02  0.73290384603E+02 -0.74247196648E+02  0.10700461931E+03  0.41800000000E+01 0. -1.
        -11    1    1    2    0    0  0.19037036755E+02  0.16583288559E+02 -0.65681975497E+02  0.70367152373E+02  0.00000000000E+00 0. -1.
         11    1    1    2    0    0 -0.42378550553E+02 -0.68243517581E+02 -0.21345266791E+03  0.22806832458E+03  0.00000000000E+00 0.  1.
</event>
<event>
 7    1  0.3056346E-009  0.8825812E+02  0.7561462E-02  0.1307126E+00
         -1   -1    0    0    0  501 -0.00000000000E+00  0.00000000000E+00  0.29004094352E+02  0.29004094352E+02  0.00000000000E+00 0.  1.
          1   -1    0    0  501    0  0.00000000000E+00 -0.00000000000E+00 -0.51274984212E+03  0.51274984212E+03  0.00000000000E+00 0. -1.
         25    2    1    2    0    0  0.48585531203E+02 -0.77971928087E+01 -0.32760102555E+03  0.35410647931E+03  0.12509043406E+03 0.  0.
          5    1    3    3  502    0  0.61984408622E+02 -0.70302002335E+01 -0.33317093095E+03  0.33898647799E+03  0.41800000000E+01 0.  1.
         -5    1    3    3    0  502 -0.13398877418E+02 -0.76699257525E+00  0.55699054089E+01  0.15120001321E+02  0.41800000000E+01 0.  1.
        -11    1    1    2    0    0  0.21481466889E+02 -0.15062490109E+02 -0.20584955578E+02  0.33347749911E+02  0.00000000000E+00 0.  1.
         11    1    1    2    0    0 -0.70066998092E+02  0.22859682918E+02 -0.13555976664E+03  0.15429970725E+03  0.00000000000E+00 0. -1.
</event>
<event>
 7    1  0.3056346E-009  0.1516810E+03  0.7561462E-02  0.1198423E+00
          1   -1    0    0  501    0  0.00000000000E+00  0.00000000000E+00  0.13202411471E+04  0.13202411471E+04  0.00000000000E+00 0. -1.
         -1   -1    0    0    0  501 -0.00000000000E+00 -0.00000000000E+00 -0.22384935295E+02  0.22384935295E+02  0.00000000000E+00 0.  1.
         25    2    1    2    0    0  0.81719000797E+01 -0.12717808655E+03  0.53977189030E+03  0.56854197820E+03  0.12508094089E+03 0.  0.
          5    1    3    3  502    0  0.49340946638E+01  0.91895582613E+01  0.22719220717E+03  0.22746992037E+03  0.41800000000E+01 0.  1.
         -5    1    3    3    0  502  0.32378054159E+01 -0.13636764481E+03  0.31257968312E+03  0.34107205783E+03  0.41800000000E+01 0.  1.
        -11    1    1    2    0    0 -0.23729475834E+02 -0.35595696093E+01  0.89573953549E+02  0.92732150377E+02  0.00000000000E+00 0. -1.
         11    1    1    2    0    0  0.15557575754E+02  0.13073765616E+03  0.66851036796E+03  0.68135195381E+03  0.00000000000E+00 0.  1.
</event>
<event>
 7    1  0.3056346E-009  0.1107811E+03  0.7561462E-02  0.1259130E+00
          2   -1    0    0  501    0  0.00000000000E+00  0.00000000000E+00  0.30708971440E+03  0.30708971440E+03  0.00000000000E+00 0. -1.
         -2   -1    0    0    0  501 -0.00000000000E+00 -0.00000000000E+00 -0.49206802264E+02  0.49206802264E+02  0.00000000000E+00 0.  1.
         25    2    1    2    0    0 -0.48566825384E+02 -0.56371456155E+01  0.18813723296E+03  0.23116229035E+03  0.12509944889E+03 0.  0.
          5    1    3    3  502    0 -0.44848647612E+02 -0.62573214136E+02  0.10700248475E+03  0.13188560369E+03  0.41800000000E+01 0. -1.
         -5    1    3    3    0  502 -0.37181777715E+01  0.56936068520E+02  0.81134748216E+02  0.99276686652E+02  0.41800000000E+01 0. -1.
        -11    1    1    2    0    0  0.11153864557E+02  0.36867761357E+02  0.65793719094E+02  0.76239451692E+02  0.00000000000E+00 0.  1.
         11    1    1    2    0    0  0.37412960827E+02 -0.31230615741E+02  0.39519600819E+01  0.48894774628E+02  0.00000000000E+00 0. -1.
</event>
<event>
 7    1  0.3056346E-009  0.1275013E+03  0.7561462E-02  0.1231211E+00
          1   -1    0    0  501    0  0.00000000000E+00  0.00000000000E+00  0.12408595820E+03  0.12408595820E+03  0.00000000000E+00 0. -1.
         -1   -1    0    0    0  501 -0.00000000000E+00 -0.00000000000E+00 -0.18073225639E+03  0.18073225639E+03  0.00000000000E+00 0.  1.
         25    2    1    2    0    0  0.60456932847E+02 -0.79867525870E+02 -0.10080903970E+02  0.16057015869E+03  0.12508912350E+03 0.  0.
          5    1    3    3  502    0 -0.24542374357E+02  0.99513150112E+01 -0.24093981049E+02  0.36046485714E+02  0.41800000000E+01 0. -1.
         -5    1    3    3    0  502  0.84999307204E+02 -0.89818840882E+02  0.14013077079E+02  0.12452367298E+03  0.41800000000E+01 0. -1.
        -11    1    1    2    0    0 -0.32678245551E+02  0.19620037287E+02 -0.65035424110E+02  0.75381827947E+02  0.00000000000E+00 0.  1.
         11    1    1    2    0    0 -0.27778687296E+02  0.60247488583E+02  0.18470029891E+02  0.68866227955E+02  0.00000000000E+00 0. -1.
</event>
<event>
 7    1  0.3056346E-009  0.5961154E+02  0.7561462E-02  0.1399469E+00
         -2   -1    0    0    0  501 -0.00000000000E+00  0.00000000000E+00  0.43576235529E+02  0.43576235529E+02  0.00000000000E+00 0.  1.
          2   -1    0    0  501    0  0.00000000000E+00 -0.00000000000E+00 -0.27902571382E+03  0.27902571382E+03  0.00000000000E+00 0. -1.
         25    2    1    2    0    0 -0.74100505367E+01  0.12165205429E+02 -0.15110518601E+03  0.19667968862E+03  0.12508885484E+03 0.  0.
          5    1    3    3  502    0 -0.32042925330E+02 -0.19683125125E+02  0.24134630368E+01  0.37914003775E+02  0.41800000000E+01 0. -1.
         -5    1    3    3    0  502  0.24632874793E+02  0.31848330555E+02 -0.15351864904E+03  0.15876568484E+03  0.41800000000E+01 0. -1.
        -11    1    1    2    0    0  0.48227546699E+01  0.13900295191E+02  0.16280668723E+02  0.21943959147E+02  0.00000000000E+00 0.  1.
         11    1    1    2    0    0  0.25872958668E+01 -0.26065500620E+02 -0.10062496101E+03  0.10397830158E+03  0.00000000000E+00 0. -1.
</event>
<event>
 7    1  0.3056346E-009  0.1313295E+03  0.7561462E-02  0.1225496E+00
         -3   -1    0    0    0  501 -0.00000000000E+00  0.00000000000E+00  0.62782316665E+02  0.62782316665E+02  0.00000000000E+00 0.  1.
          3   -1    0    0  501    0  0.00000000000E+00 -0.00000000000E+00 -0.32481399650E+03  0.32481399650E+03  0.00000000000E+00 0. -1.
         25    2    1    2    0    0 -0.92607948635E+02  0.11308763796E+02 -0.99727996651E+02  0.18519412842E+03  0.12508825523E+03 0.  0.
          5    1    3    3  502    0 -0.93338643921E+02 -0.41317077376E+02 -0.55153511011E+02  0.11609731051E+03  0.41800000000E+01 0. -1.
         -5    1    3    3    0  502  0.73069528560E+00  0.52625841172E+02 -0.44574485641E+02  0.69096817906E+02  0.41800000000E+01 0. -1.
        -11    1    1    2    0    0  0.42440214559E+02 -0.32286327848E+02 -0.12654380663E+03  0.13732047835E+03  0.00000000000E+00 0. -1.
         11    1    1    2    0    0  0.50167734077E+02  0.20977564052E+02 -0.35759876550E+02  0.65081706391E+02  0.00000000000E+00 0.  1.
</event>
<event>
 7    1  0.3056346E-009  0.1097016E+03  0.7561462E-02  0.1261123E+00
         -1   -1    0    0    0  501 -0.00000000000E+00  0.00000000000E+00  0.94632404953E+02  0.94632404953E+02  0.00000000000E+00 0.  1.
          1   -1    0    0  501    0  0.00000000000E+00 -0.00000000000E+00 -0.17366738704E+03  0.17366738704E+03  0.00000000000E+00 0. -1.
         25    2    1    2    0    0 -0.37565011578E+00  0.57860085760E+02 -0.52866894116E+01  0.13793739710E+03  0.12510334047E+03 0.  0.
          5    1    3    3  502    0 -0.30208354778E+02 -0.15221809457E+02  0.35308645013E+02  0.49075666009E+02  0.41800000000E+01 0.  1.
         -5    1    3    3    0  502  0.29832704662E+02  0.73081895217E+02 -0.40595334425E+02  0.88861731094E+02  0.41800000000E+01 0.  1.
        -11    1    1    2    0    0 -0.32416902109E+02 -0.65068780186E+02 -0.59278456500E+02  0.93801583688E+02  0.00000000000E+00 0.  1.
         11    1    1    2    0    0  0.32792552225E+02  0.72086944261E+01 -0.14469836172E+02  0.36560811200E+02  0.00000000000E+00 0. -1.
</event>
<event>
 7    1  0.3056346E-009  0.1193636E+03  0.7561462E-02  0.1244151E+00
          1   -1    0    0  501    0  0.00000000000E+00  0.00000000000E+00  0.24305761784E+03  0.24305761784E+03  0.00000000000E+00 0. -1.
         -1   -1    0    0    0  501 -0.00000000000E+00 -0.00000000000E+00 -0.10894613878E+03  0.10894613878E+03  0.00000000000E+00 0.  1.
         25    2    1    2    0    0 -0.70961422373E+02 -0.29014365295E+02  0.17273656714E+03  0.22663398473E+03  0.12509070528E+03 0.  0.
          5    1    3    3  502    0 -0.31298308361E+02 -0.61447843270E+02  0.30735551920E+02  0.75614602430E+02  0.41800000000E+01 0.  1.
         -5    1    3    3    0  502 -0.39663114012E+02  0.32433477975E+02  0.14200101521E+03  0.15101938229E+03  0.41800000000E+01 0.  1.
        -11    1    1    2    0    0  0.36408550493E+02  0.61072220828E+02 -0.31236424506E+02  0.77660240290E+02  0.00000000000E+00 0.  1.
         11    1    1    2    0    0  0.34552871880E+02 -0.32057855533E+02 -0.73886635633E+01  0.47709531604E+02  0.00000000000E+00 0. -1.
</event>
<event>
 7    1  0.3056346E-009  0.2205794E+03  0.7561462E-02  0.1133452E+00
          2   -1    0    0  501    0  0.00000000000E+00  0.00000000000E+00  0.19934754676E+04  0.19934754676E+04  0.00000000000E+00 0. -1.
         -2   -1    0    0    0  501 -0.00000000000E+00 -0.00000000000E+00 -0.34527682837E+02  0.34527682837E+02  0.00000000000E+00 0.  1.
         25    2    1    2    0    0 -0.13409895572E+02 -0.19684566882E+03  0.15258148299E+04  0.15435951266E+04  0.12508787744E+03 0.  0.
          5    1    3    3  502    0  0.24559084024E+02 -0.92987288403E+00  0.35612095411E+03  0.35699246439E+03  0.41800000000E+01 0.  1.
         -5    1    3    3    0  502 -0.37968979596E+02 -0.19591579594E+03  0.11696938758E+04  0.11866026622E+04  0.41800000000E+01 0.  1.
        -11    1    1    2    0    0 -0.28605885940E+02  0.20120713396E+02  0.79350012300E+02  0.86715421178E+02  0.00000000000E+00 0. -1.
         11    1    1    2    0    0  0.42015781512E+02  0.17672495543E+03  0.35378294260E+03  0.39769260270E+03  0.00000000000E+00 0.  1.
</event>
<event>
 7    1  0.3056346E-009  0.1161336E+03  0.7561462E-02  0.1249615E+00
          2   -1    0    0  501    0  0.00000000000E+00  0.00000000000E+00  0.42667472352E+03  0.42667472352E+03  0.00000000000E+00 0. -1.
         -2   -1    0    0    0  501 -0.00000000000E+00 -0.00000000000E+00 -0.34726414978E+02  0.34726414978E+02  0.00000000000E+00 0.  1.
         25    2    1    2    0    0 -0.48134392723E+02  0.72438950583E+01  0.22480512474E+03  0.26184686748E+03  0.12512811083E+03 0.  0.
          5    1    3    3  502    0 -0.82954995988E+02  0.30474275295E+02  0.17890306176E+03  0.19958454529E+03  0.41800000000E+01 0. -1.
         -5    1    3    3    0  502  0.34820603265E+02 -0.23230380236E+02  0.45902062988E+02  0.62262322188E+02  0.41800000000E+01 0. -1.
        -11    1    1    2    0    0  0.20622080577E+02  0.41167276927E+02  0.40938213782E+02  0.61611299650E+02  0.00000000000E+00 0.  1.
         11    1    1    2    0    0  0.27512312146E+02 -0.48411171986E+02  0.12620497002E+03  0.13794297137E+03  0.00000000000E+00 0. -1.
</event>
<event>
 7    1  0.3056346E-009  0.1853822E+03  0.7561462E-02  0.1162693E+00
          2   -1    0    0  501    0  0.00000000000E+00  0.00000000000E+00  0.14494768282E+04  0.14494768282E+04  0.00000000000E+00 0. -1.
         -2   -1    0    0    0  501 -0.00000000000E+00 -0.00000000000E+00 -0.29245091976E+02  0.29245091976E+02  0.00000000000E+00 0.  1.
         25    2    1    2    0    0  0.13189345746E+03  0.93324370563E+02  0.50207279031E+03  0.54206051618E+03  0.12508874517E+03 0.  0.
          5    1    3    3  502    0  0.12998412976E+02  0.61594924719E+02  0.77168666977E+02  0.99676321431E+02  0.41800000000E+01 0.  1.
         -5    1    3    3    0  502  0.11889504448E+03  0.31729445844E+02  0.42490412333E+03  0.44238419475E+03  0.41800000000E+01 0.  1.
        -11    1    1    2    0    0 -0.93762729028E+02 -0.11743712003E+02  0.42921539792E+03  0.43949427976E+03  0.00000000000E+00 0.  1.
         11    1    1    2    0    0 -0.38130728433E+02 -0.81580658560E+02  0.48894354798E+03  0.49716712423E+03  0.00000000000E+00 0. -1.
</event>
<event>
 7    1  0.3056346E-009  0.1418610E+03  0.7561462E-02  0.1210847E+00
         -2   -1    0    0    0  501 -0.00000000000E+00  0.00000000000E+00  0.13475645162E+02  0.13475645162E+02  0.00000000000E+00 0.  1.
          2   -1    0    0  501    0  0.00000000000E+00 -0.00000000000E+00 -0.24120986154E+04  0.24120986154E+04  0.00000000000E+00 0. -1.
         25    2    1    2    0    0  0.81252691752E+02  0.63223869699E+02 -0.19481524734E+04  0.19548774716E+04  0.12509441166E+03 0.  0.
          5    1    3    3  502    0  0.65131015526E+02 -0.16367440446E+02 -0.50878852805E+03  0.51321845345E+03  0.41800000000E+01 0.  1.
         -5    1    3    3    0  502  0.16121676226E+02  0.79591310145E+02 -0.14393639453E+04  0.14416590182E+04  0.41800000000E+01 0.  1.
        -11    1    1    2    0    0  0.17856897278E+00 -0.53056990357E+02 -0.14526512825E+03  0.15465132912E+03  0.00000000000E+00 0.  1.
         11    1    1    2    0    0 -0.81431260725E+02 -0.10166879341E+02 -0.30520536863E+03  0.31604545987E+03  0.00000000000E+00 0. -1.
</event>
<event>
 7    1  0.3056346E-009  0.9006072E+02  0.7561462E-02  0.1302705E+00
          2   -1    0    0  501    0  0.00000000000E+00  0.00000000000E+00  0.14333109878E+03  0.14333109878E+03  0.00000000000E+00 0.  1.
         -2   -1    0    0    0  501 -0.00000000000E+00 -0.00000000000E+00 -0.11245831214E+03  0.11245831214E+03  0.00000000000E+00 0. -1.
         25    2    1    2    0    0 -0.70219018740E+01 -0.25835525287E+02  0.73926317849E+02  0.14774816490E+03  0.12509052038E+03 0.  0.
          5    1    3    3  502    0  0.44338328734E+02 -0.17082665551E+02 -0.10133408188E+02  0.48763338880E+02  0.41800000000E+01 0. -1.
         -5    1    3    3    0  502 -0.51360230608E+02 -0.87528597360E+01  0.84059726037E+02  0.98984826024E+02  0.41800000000E+01 0. -1.
        -11    1    1    2    0    0  0.12920639007E+02 -0.25444090296E+02  0.13417690120E+02  0.31533776359E+02  0.00000000000E+00 0.  1.
         11    1    1    2    0    0 -0.58987371329E+01  0.51279615583E+02 -0.56471221328E+02  0.76507469651E+02  0.00000000000E+00 0. -1.
</event>
<event>
 7    1  0.3132825E-009  0.1074883E+03  0.7561462E-02  0.1265293E+00
         -1   -1    0    0    0  501 -0.00000000000E+00  0.00000000000E+00  0.15423866516E+03  0.15423866516E+03  0.00000000000E+00 0.  1.
          1   -1    0    0  501    0  0.00000000000E+00 -0.00000000000E+00 -0.13165866419E+03  0.13165866419E+03  0.00000000000E+00 0. -1.
         25    2    1    2    0    0 -0.78513856855E+02 -0.37476264524E+02  0.42408620329E+02  0.15815880975E+03  0.12508725716E+03 0.  0.
          5    1    3    3  502    0 -0.23454816108E+02 -0.54357432487E+02 -0.29222567391E+02  0.66153531350E+02  0.41800000000E+01 0. -1.
         -5    1    3    3    0  502 -0.55059040747E+02  0.16881167963E+02  0.71631187720E+02  0.92005278403E+02  0.41800000000E+01 0. -1.
        -11    1    1    2    0    0  0.17463490269E+01  0.18799336204E+02  0.29187631408E+02  0.34761798053E+02  0.00000000000E+00 0.  1.
         11    1    1    2    0    0  0.76767507828E+02  0.18676928320E+02 -0.49016250766E+02  0.92976721543E+02  0.00000000000E+00 0. -1.
</event>
<event>
 7    1  0.3056346E-009  0.8698785E+02  0.7561462E-02  0.1310314E+00
         -2   -1    0    0    0  501 -0.00000000000E+00  0.00000000000E+00  0.12457539014E+02  0.12457539014E+02  0.00000000000E+00 0. -1.
          2   -1    0    0  501    0  0.00000000000E+00 -0.00000000000E+00 -0.10154539286E+04  0.10154539286E+04  0.00000000000E+00 0.  1.
         25    2    1    2    0    0  0.14670248573E+02  0.16804688519E+02 -0.67132642959E+03  0.68324485080E+03  0.12508691909E+03 0.  0.
          5    1    3    3  502    0 -0.11250876939E+02  0.42453181600E+02 -0.84967147681E+02  0.95737889285E+02  0.41800000000E+01 0.  1.
         -5    1    3    3    0  502  0.25921125512E+02 -0.25648493081E+02 -0.58635928191E+03  0.58750696151E+03  0.41800000000E+01 0.  1.
        -11    1    1    2    0    0  0.24679315336E+02  0.25424834612E+02 -0.14559791593E+03  0.14984740219E+03  0.00000000000E+00 0.  1.
         11    1    1    2    0    0 -0.39349563909E+02 -0.42229523131E+02 -0.18607204407E+03  0.19481921463E+03  0.00000000000E+00 0. -1.
</event>
<event>
 7    1  0.3056346E-009  0.1035983E+03  0.7561462E-02  0.1272906E+00
          2   -1    0    0  501    0  0.00000000000E+00  0.00000000000E+00  0.44807155207E+03  0.44807155207E+03  0.00000000000E+00 0.  1.
         -2   -1    0    0    0  501 -0.00000000000E+00 -0.00000000000E+00 -0.30309779321E+02  0.30309779321E+02  0.00000000000E+00 0. -1.
         25    2    1    2    0    0 -0.32479354586E+02  0.28834880404E+02  0.21985110711E+03  0.25664886638E+03  0.12509105689E+03 0.  0.
          5    1    3    3  502    0 -0.76820003285E+02 -0.19897411766E+01  0.11104039913E+03  0.13510260773E+03  0.41800000000E+01 0. -1.
         -5    1    3    3    0  502  0.44340648698E+02  0.30824621581E+02  0.10881070797E+03  0.12154625865E+03  0.41800000000E+01 0. -1.
        -11    1    1    2    0    0 -0.10182919364E+02 -0.31719335969E+02  0.16346306340E+03  0.16682320348E+03  0.00000000000E+00 0.  1.
         11    1    1    2    0    0  0.42662273950E+02  0.28844555650E+01  0.34447602240E+02  0.54909261538E+02  0.00000000000E+00 0. -1.
</event>
<event>
 7    1  0.3248602E-009  0.9220611E+02  0.7561462E-02  0.1297596E+00
          1   -1    0    0  501    0  0.00000000000E+00  0.00000000000E+00  0.67716701458E+03  0.67716701458E+03  0.00000000000E+00 0. -1.
         -1   -1    0    0    0  501 -0.00000000000E+00 -0.00000000000E+00 -0.25866644199E+02  0.25866644199E+02  0.00000000000E+00 0.  1.
         25    2    1    2    0    0  0.16416056600E+02  0.62581084226E+02  0.45838702971E+03  0.47953500962E+03  0.12509707201E+03 0.  0.
          5    1    3    3  502    0  0.49762550913E+02  0.27112186547E+02  0.39714287647E+03  0.40118738622E+03  0.41800000000E+01 0. -1.
         -5    1    3    3    0  502 -0.33346494313E+02  0.35468897679E+02  0.61244153242E+02  0.78347623397E+02  0.41800000000E+01 0. -1.
        -11    1    1    2    0    0  0.15368211869E+02 -0.26579193727E+02  0.70101904119E+01  0.31492510933E+02  0.00000000000E+00 0.  1.
         11    1    1    2    0    0 -0.31784268470E+02 -0.36001890498E+02  0.18590315026E+03  0.19200613823E+03  0.00000000000E+00 0. -1.
</event>
<event>
 7    1  0.3056346E-009  0.8899792E+02  0.7561462E-02  0.1305297E+00
          2   -1    0    0  501    0  0.00000000000E+00  0.00000000000E+00  0.74766384033E+03  0.74766384033E+03  0.00000000000E+00 0. -1.
         -2   -1    0    0    0  501 -0.00000000000E+00 -0.00000000000E+00 -0.23271893470E+02  0.23271893470E+02  0.00000000000E+00 0.  1.
         25    2    1    2    0    0 -0.38700128012E+02  0.19409955166E+02  0.22909453295E+03  0.26459441478E+03  0.12510576741E+03 0.  0.
          5    1    3    3  502    0 -0.54082095879E+02  0.11343764024E+02  0.26879264759E+02  0.61591568830E+02  0.41800000000E+01 0.  1.
         -5    1    3    3    0  502  0.15381967867E+02  0.80661911423E+01  0.20221526819E+03  0.20300284595E+03  0.41800000000E+01 0.  1.
        -11    1    1    2    0    0 -0.31362258968E+02 -0.14292545308E+02  0.14148303088E+03  0.14562045243E+03  0.00000000000E+00 0.  1.
         11    1    1    2    0    0  0.70062386981E+02 -0.51174098586E+01  0.35381438302E+03  0.36072086658E+03  0.00000000000E+00 0. -1.
</event>
<event>
 7    1  0.3056346E-009  0.1304101E+03  0.7561462E-02  0.1226849E+00
         -1   -1    0    0    0  501 -0.00000000000E+00  0.00000000000E+00  0.79445090877E+02  0.79445090877E+02  0.00000000000E+00 0.  1.
          1   -1    0    0  501    0  0.00000000000E+00 -0.00000000000E+00 -0.25305843237E+03  0.25305843237E+03  0.00000000000E+00 0. -1.
         25    2    1    2    0    0 -0.86676927447E+02  0.22782647738E+02 -0.82707927145E+02  0.17469900544E+03  0.12508877847E+03 0.  0.
          5    1    3    3  502    0 -0.11181588084E+03 -0.73017128573E+00 -0.38110974287E+02  0.11820847313E+03  0.41800000000E+01 0.  1.
         -5    1    3    3    0  502  0.25138953395E+02  0.23512819023E+02 -0.44596952858E+02  0.56490532308E+02  0.41800000000E+01 0.  1.
        -11    1    1    2    0    0  0.97357591452E+02 -0.10422086322E+02 -0.42541570803E+02  0.10675629135E+03  0.00000000000E+00 0.  1.
         11    1    1    2    0    0 -0.10680664005E+02 -0.12360561416E+02 -0.48363843545E+02  0.51048226459E+02  0.00000000000E+00 0. -1.
</event>
<event>
 7    1  0.3056346E-009  0.1335163E+03  0.7561462E-02  0.1222329E+00
         -3   -1    0    0    0  501 -0.00000000000E+00  0.00000000000E+00  0.40941138466E+02  0.40941138466E+02  0.00000000000E+00 0.  1.
          3   -1    0    0  501    0  0.00000000000E+00 -0.00000000000E+00 -0.44887928731E+03  0.44887928731E+03  0.00000000000E+00 0. -1.
         25    2    1    2    0    0  0.75346507682E+02 -0.31517067282E+02 -0.23665673705E+03  0.27986805194E+03  0.12509713648E+03 0.  0.
          5    1    3    3  502    0  0.10817606664E+03 -0.34829657171E+02 -0.20214523869E+03  0.23193821664E+03  0.41800000000E+01 0. -1.
         -5    1    3    3    0  502 -0.32829558955E+02  0.33125898898E+01 -0.34511498353E+02  0.47929835296E+02  0.41800000000E+01 0. -1.
        -11    1    1    2    0    0 -0.56029119980E+02  0.62249727384E+02 -0.10426597288E+03  0.13373736929E+03  0.00000000000E+00 0.  1.
         11    1    1    2    0    0 -0.19317387701E+02 -0.30732660102E+02 -0.67015438922E+02  0.76215004550E+02  0.00000000000E+00 0. -1.
</event>
<event>
 7    1  0.3056346E-009  0.7776844E+02  0.7561462E-02  0.1335506E+00
         -2   -1    0    0    0  501 -0.00000000000E+00  0.00000000000E+00  0.22243725008E+02  0.22243725008E+02  0.00000000000E+00 0. -1.
          2   -1    0    0  501    0  0.00000000000E+00 -0.00000000000E+00 -0.57001292566E+03  0.57001292566E+03  0.00000000000E+00 0.  1.
         25    2    1    2    0    0 -0.91277181495E+01  0.46021653526E+01 -0.38478048455E+03  0.40473156774E+03  0.12508847060E+03 0.  0.
          5    1    3    3  502    0 -0.37294383139E+02 -0.82084205316E+01 -0.30427717354E+02  0.49005791134E+02  0.41800000000E+01 0. -1.
         -5    1    3    3    0  502  0.28166664989E+02  0.12810585884E+02 -0.35435276719E+03  0.35572577661E+03  0.41800000000E+01 0. -1.
        -11    1    1    2    0    0  0.45783304451E+02  0.92565773193E+01 -0.52390776463E+02  0.70189661977E+02  0.00000000000E+00 0. -1.
         11    1    1    2    0    0 -0.36655586302E+02 -0.13858742672E+02 -0.11059793965E+03  0.11733542095E+03  0.00000000000E+00 0.  1.
</event>
<event>
 7    1  0.3056346E-009  0.1150904E+03  0.7561462E-02  0.1251423E+00
         -1   -1    0    0    0  501 -0.00000000000E+00  0.00000000000E+00  0.17104313594E+03  0.17104313594E+03  0.00000000000E+00 0.  1.
          1   -1    0    0  501    0  0.00000000000E+00 -0.00000000000E+00 -0.13029634294E+03  0.13029634294E+03  0.00000000000E+00 0. -1.
         25    2    1    2    0    0 -0.26568767673E+02  0.96243335784E+02  0.20457597375E+00  0.16005877034E+03  0.12510031580E+03 0.  0.
          5    1    3    3  502    0 -0.41235033558E+02  0.14908295543E+02  0.47471972293E+02  0.64758364880E+02  0.41800000000E+01 0.  1.
         -5    1    3    3    0  502  0.14666265885E+02  0.81335040241E+02 -0.47267396319E+02  0.95300405460E+02  0.41800000000E+01 0.  1.
        -11    1    1    2    0    0  0.15415861258E+02 -0.88432915382E+02 -0.87033904032E+01  0.90187462021E+02  0.00000000000E+00 0. -1.
         11    1    1    2    0    0  0.11152906415E+02 -0.78104204023E+01  0.49245607428E+02  0.51093246514E+02  0.00000000000E+00 0.  1.
</event>
<event>
 7    1  0.3056346E-009  0.1129230E+03  0.7561462E-02  0.1255251E+00
          1   -1    0    0  501    0  0.00000000000E+00  0.00000000000E+00  0.12442371249E+04  0.12442371249E+04  0.00000000000E+00 0. -1.
         -1   -1    0    0    0  501 -0.00000000000E+00 -0.00000000000E+00 -0.16376989734E+02  0.16376989734E+02  0.00000000000E+00 0.  1.
         25    2    1    2    0    0 -0.28841272878E+02  0.30014762307E+02  0.10371971700E+04  0.10455420760E+04  0.12509020106E+03 0.  0.
          5    1    3    3  502    0 -0.76322666885E+02  0.15580273200E+02  0.50097999106E+03  0.50701707884E+03  0.41800000000E+01 0.  1.
         -5    1    3    3    0  502  0.47481394007E+02  0.14434489107E+02  0.53621717890E+03  0.53852499719E+03  0.41800000000E+01 0.  1.
        -11    1    1    2    0    0  0.36014151532E+02 -0.58479749958E+02  0.11545450516E+03  0.13433779448E+03  0.00000000000E+00 0. -1.
         11    1    1    2    0    0 -0.71728786542E+01  0.28464987651E+02  0.75208460042E+02  0.80734244110E+02  0.00000000000E+00 0.  1.
</event>
<event>
 7    1  0.3056346E-009  0.6153917E+02  0.7561462E-02  0.1391484E+00
         -3   -1    0    0    0  501 -0.00000000000E+00  0.00000000000E+00  0.15947739608E+03  0.15947739608E+03  0.00000000000E+00 0.  1.
          3   -1    0    0  501    0  0.00000000000E+00 -0.00000000000E+00 -0.83821952388E+02  0.83821952388E+02  0.00000000000E+00 0. -1.
         25    2    1    2    0    0  0.36424443937E+01  0.37078987594E+02  0.47290732845E+02  0.13882830115E+03  0.12509502414E+03 0.  0.
          5    1    3    3  502    0  0.14077658570E+02  0.46756978681E+01 -0.41165344285E+02  0.43955666204E+02  0.41800000000E+01 0. -1.
         -5    1    3    3    0  502 -0.10435214176E+02  0.32403289726E+02  0.88456077130E+02  0.94872634943E+02  0.41800000000E+01 0. -1.
        -11    1    1    2    0    0 -0.32087108099E+02 -0.30289582485E+02  0.51037598176E+02  0.67467605121E+02  0.00000000000E+00 0.  1.
         11    1    1    2    0    0  0.28444663705E+02 -0.67894051085E+01 -0.22672887327E+02  0.37003442201E+02  0.00000000000E+00 0. -1.
</event>
<event>
 7    1  0.3056346E-009  0.8850612E+02  0.7561462E-02  0.1306510E+00
          1   -1    0    0  501    0  0.00000000000E+00  0.00000000000E+00  0.46156332326E+03  0.46156332326E+03  0.00000000000E+00 0. -1.
         -1   -1    0    0    0  501 -0.00000000000E+00 -0.00000000000E+00 -0.29438554839E+02  0.29438554839E+02  0.00000000000E+00 0.  1.
         25    2    1    2    0    0  0.31556004815E+02  0.79438874851E+01  0.18779267936E+03  0.22797335116E+03  0.12508745591E+03 0.  0.
          5    1    3    3  502    0  0.21658686495E+02  0.48261566166E+02  0.17713048268E+03  0.18490797107E+03  0.41800000000E+01 0. -1.
         -5    1    3    3    0  502  0.98973183195E+01 -0.40317678681E+02  0.10662196683E+02  0.43065380089E+02  0.41800000000E+01 0. -1.
        -11    1    1    2    0    0 -0.45808446975E+02  0.20670796705E+02  0.72297372742E+02  0.88048882765E+02  0.00000000000E+00 0.  1.
         11    1    1    2    0    0  0.14252442160E+02 -0.28614684190E+02  0.17203471632E+03  0.17497964418E+03  0.00000000000E+00 0. -1.
</event>
<event>
 7    1  0.3056346E-009  0.1284808E+03  0.7561462E-02  0.1229727E+00
          1   -1    0    0  501    0  0.00000000000E+00  0.00000000000E+00  0.10058668365E+04  0.10058668365E+04  0.00000000000E+00 0. -1.
         -1   -1    0    0    0  501 -0.00000000000E+00 -0.00000000000E+00 -0.19807536909E+02  0.19807536909E+02  0.00000000000E+00 0.  1.
         25    2    1    2    0    0  0.66697820559E+02 -0.55617758644E+02  0.45940067111E+03  0.48398165295E+03  0.12508928585E+03 0.  0.
          5    1    3    3  502    0  0.42511471296E+02 -0.88327370656E+02  0.40005232075E+03  0.41190809817E+03  0.41800000000E+01 0. -1.
         -5    1    3    3    0  502  0.24186349263E+02  0.32709612012E+02  0.59348350358E+02  0.72073554781E+02  0.41800000000E+01 0. -1.
        -11    1    1    2    0    0 -0.64672201942E+02  0.24210918745E+01  0.38419380486E+03  0.38960651314E+03  0.00000000000E+00 0. -1.
         11    1    1    2    0    0 -0.20256186171E+01  0.53196666770E+02  0.14246482362E+03  0.15208620731E+03  0.00000000000E+00 0.  1.
</event>
<event>
 7    1  0.3056346E-009  0.1127947E+03  0.7561462E-02  0.1255480E+00
          1   -1    0    0  501    0  0.00000000000E+00  0.00000000000E+00  0.29829198822E+03  0.29829198822E+03  0.00000000000E+00 0. -1.
         -1   -1    0    0    0  501 -0.00000000000E+00 -0.00000000000E+00 -0.59516216153E+02  0.59516216153E+02  0.00000000000E+00 0.  1.
         25    2    1    2    0    0  0.30504709713E+02 -0.63927696030E+02  0.90586234416E+02  0.16991440781E+03  0.12509097682E+03 0.  0.
          5    1    3    3  502    0  0.28377194061E+02  0.20612647274E+02 -0.11627662820E+02  0.37186305450E+02  0.41800000000E+01 0.  1.
         -5    1    3    3    0  502  0.21275156526E+01 -0.84540343304E+02  0.10221389724E+03  0.13272810236E+03  0.41800000000E+01 0.  1.
        -11    1    1    2    0    0 -0.49710309933E+02  0.13313989236E+02  0.34451276586E+02  0.61929538036E+02  0.00000000000E+00 0.  1.
         11    1    1    2    0    0  0.19205600220E+02  0.50613706794E+02  0.11373826107E+03  0.12596425852E+03  0.00000000000E+00 0. -1.
</event>
<event>
 7    1  0.4181135E-009  0.1653314E+03  0.7561462E-02  0.1182806E+00
          2   -1    0    0  501    0  0.00000000000E+00  0.00000000000E+00  0.21547383711E+04  0.21547383711E+04  0.00000000000E+00 0. -1.
         -2   -1    0    0    0  501 -0.00000000000E+00 -0.00000000000E+00 -0.14159404224E+02  0.14159404224E+02  0.00000000000E+00 0.  1.
         25    2    1    2    0    0 -0.74042379653E+02 -0.11102488650E+03  0.13097526662E+04  0.13224626404E+04  0.12508632691E+03 0.  0.
          5    1    3    3  502    0 -0.10017055904E+03 -0.94658441033E+02  0.12134530135E+04  0.12212616631E+04  0.41800000000E+01 0. -1.
         -5    1    3    3    0  502  0.26128179387E+02 -0.16366445470E+02  0.96299652751E+02  0.10120097734E+03  0.41800000000E+01 0. -1.
        -11    1    1    2    0    0  0.95692852265E+02  0.87056892108E+02  0.67830574965E+03  0.69053219653E+03  0.00000000000E+00 0. -1.
         11    1    1    2    0    0 -0.21650472612E+02  0.23967994395E+02  0.15252055102E+03  0.15590293840E+03  0.00000000000E+00 0.  1.
</event>
<event>
 7    1  0.3056346E-009  0.1215709E+03  0.7561462E-02  0.1240528E+00
         -2   -1    0    0    0  501 -0.00000000000E+00  0.00000000000E+00  0.16515522060E+03  0.16515522060E+03  0.00000000000E+00 0.  1.
          2   -1    0    0  501    0  0.00000000000E+00 -0.00000000000E+00 -0.10419777799E+03  0.10419777799E+03  0.00000000000E+00 0. -1.
         25    2    1    2    0    0 -0.34759014038E+02 -0.59051112217E+02  0.62257822197E+01  0.14276592757E+03  0.12509247299E+03 0.  0.
          5    1    3    3  502    0 -0.68953351830E+02 -0.77260693673E+02  0.33436452620E+01  0.10369393367E+03  0.41800000000E+01 0.  1.
         -5    1    3    3    0  502  0.34194337792E+02  0.18209581456E+02  0.28821369576E+01  0.39071993899E+02  0.41800000000E+01 0.  1.
        -11    1    1    2    0    0  0.47707081292E+02  0.86328398209E+01  0.56566915471E+02  0.74500385600E+02  0.00000000000E+00 0.  1.
         11    1    1    2    0    0 -0.12948067254E+02  0.50418272396E+02 -0.18352550767E+01  0.52086685422E+02  0.00000000000E+00 0. -1.
</event>
<event>
 7    1  0.3056346E-009  0.6850918E+02  0.7561462E-02  0.1365237E+00
         -1   -1    0    0    0  501 -0.00000000000E+00  0.00000000000E+00  0.18916774770E+02  0.18916774770E+02  0.00000000000E+00 0.  1.
          1   -1    0    0  501    0  0.00000000000E+00 -0.00000000000E+00 -0.69346231439E+03  0.69346231439E+03  0.00000000000E+00 0. -1.
         25    2    1    2    0    0 -0.16957457074E+02 -0.27913650389E+02 -0.44521838682E+03  0.46360936756E+03  0.12508999360E+03 0.  0.
          5    1    3    3  502    0  0.15128026866E+02 -0.81166602608E+01 -0.91866078265E+00  0.17693323833E+02  0.41800000000E+01 0.  1.
         -5    1    3    3    0  502 -0.32085483939E+02 -0.19796990128E+02 -0.44429972604E+03  0.44591604373E+03  0.41800000000E+01 0.  1.
        -11    1    1    2    0    0  0.32041514973E+02 -0.15400860585E+02 -0.38062777144E+02  0.52082820511E+02  0.00000000000E+00 0.  1.
         11    1    1    2    0    0 -0.15084057900E+02  0.43314510974E+02 -0.19126437565E+03  0.19668690108E+03  0.00000000000E+00 0. -1.
</event>
<event>
 7    1  0.3056346E-009  0.5506526E+02  0.7561462E-02  0.1419791E+00
          1   -1    0    0  501    0  0.00000000000E+00  0.00000000000E+00  0.28868481918E+03  0.28868481918E+03  0.00000000000E+00 0. -1.
         -1   -1    0    0    0  501 -0.00000000000E+00 -0.00000000000E+00 -0.45992130086E+02  0.45992130086E+02  0.00000000000E+00 0.  1.
         25    2    1    2    0    0  0.21216076990E+02 -0.26859831316E+02  0.18550574357E+03  0.22634222741E+03  0.12508737166E+03 0.  0.
          5    1    3    3  502    0  0.13571985830E+02 -0.18952856594E+02  0.20348334402E+03  0.20485690924E+03  0.41800000000E+01 0.  1.
         -5    1    3    3    0  502  0.76440911598E+01 -0.79069747214E+01 -0.17977600444E+02  0.21485318164E+02  0.41800000000E+01 0.  1.
        -11    1    1    2    0    0 -0.53007795972E+01  0.47960396787E+02  0.33601685839E+01  0.48369294570E+02  0.00000000000E+00 0.  1.
         11    1    1    2    0    0 -0.15915297393E+02 -0.21100565472E+02  0.53826776938E+02  0.59965427288E+02  0.00000000000E+00 0. -1.
</event>
<event>
 7    1  0.3099439E-009  0.1418247E+03  0.7561462E-02  0.1210895E+00
         -2   -1    0    0    0  501 -0.00000000000E+00  0.00000000000E+00  0.12564137519E+03  0.12564137519E+03  0.00000000000E+00 0.  1.
          2   -1    0    0  501    0  0.00000000000E+00 -0.00000000000E+00 -0.19972528977E+03  0.19972528977E+03  0.00000000000E+00 0. -1.
         25    2    1    2    0    0 -0.11401597098E+03  0.63951739399E+01 -0.51247287333E+02  0.17696198567E+03  0.12509484411E+03 0.  0.
          5    1    3    3  502    0 -0.12739327646E+03  0.39458965119E+02 -0.38848006494E+02  0.13897012925E+03  0.41800000000E+01 0. -1.
         -5    1    3    3    0  502  0.13377305474E+02 -0.33063791179E+02 -0.12399280839E+02  0.37991856419E+02  0.41800000000E+01 0. -1.
        -11    1    1    2    0    0  0.79160631909E+02 -0.20939018628E+01  0.30235894992E+02  0.84764375862E+02  0.00000000000E+00 0.  1.
         11    1    1    2    0    0  0.34855339075E+02 -0.43012720771E+01 -0.53072522236E+02  0.63640303425E+02  0.00000000000E+00 0. -1.
</event>
<event>
 7    1  0.3056346E-009  0.1067537E+03  0.7561462E-02  0.1266702E+00
         -1   -1    0    0    0  501 -0.00000000000E+00  0.00000000000E+00  0.32837391244E+02  0.32837391244E+02  0.00000000000E+00 0.  1.
          1   -1    0    0  501    0  0.00000000000E+00 -0.00000000000E+00 -0.47263724676E+03  0.47263724676E+03  0.00000000000E+00 0. -1.
         25    2    1    2    0    0  0.50580941678E+01 -0.10926013718E+01 -0.36888622889E+03  0.38956089064E+03  0.12511538500E+03 0.  0.
          5    1    3    3  502    0 -0.15072506465E+02 -0.58648836292E+02 -0.22895788463E+03  0.23686716063E+03  0.41800000000E+01 0. -1.
         -5    1    3    3    0  502  0.20130600633E+02  0.57556234920E+02 -0.13992834426E+03  0.15269373002E+03  0.41800000000E+01 0. -1.
        -11    1    1    2    0    0 -0.37510096555E+02 -0.29015581527E+02 -0.36462572863E+02  0.59819984410E+02  0.00000000000E+00 0. -1.
         11    1    1    2    0    0  0.32452002387E+02  0.30108182899E+02 -0.34451053767E+02  0.56093762952E+02  0.00000000000E+00 0.  1.
</event>
<event>
 7    1  0.3056346E-009  0.8208647E+02  0.7561462E-02  0.1323232E+00
         -1   -1    0    0    0  501 -0.00000000000E+00  0.00000000000E+00  0.11298651021E+03  0.11298651021E+03  0.00000000000E+00 0.  1.
          1   -1    0    0  501    0  0.00000000000E+00 -0.00000000000E+00 -0.13487461529E+03  0.13487461529E+03  0.00000000000E+00 0. -1.
         25    2    1    2    0    0  0.23801206140E+02  0.27824385612E+01  0.41463988584E+02  0.13394361402E+03  0.12508952798E+03 0.  0.
          5    1    3    3  502    0  0.27187937151E+02  0.31959162968E+02  0.76915431946E+02  0.87715609190E+02  0.41800000000E+01 0. -1.
         -5    1    3    3    0  502 -0.33867310109E+01 -0.29176724407E+02 -0.35451443362E+02  0.46228004830E+02  0.41800000000E+01 0. -1.
        -11    1    1    2    0    0 -0.24875859054E+02  0.41315585448E+02 -0.20447236036E+02  0.52382014338E+02  0.00000000000E+00 0.  1.
         11    1    1    2    0    0  0.10746529147E+01 -0.44098024009E+02 -0.42904857626E+02  0.61535497141E+02  0.00000000000E+00 0. -1.
</event>
<event>
 7    1  0.3056346E-009  0.1504018E+03  0.7561462E-02  0.1199980E+00
         -2   -1    0    0    0  501 -0.00000000000E+00  0.00000000000E+00  0.90809804005E+02  0.90809804005E+02  0.00000000000E+00 0.  1.
          2   -1    0    0  501    0  0.00000000000E+00 -0.00000000000E+00 -0.31246527081E+03  0.31246527081E+03  0.00000000000E+00 0. -1.
         25    2    1    2    0    0  0.11020712104E+03 -0.42520778138E+02 -0.65551161350E+02  0.18411560497E+03  0.12509186680E+03 0.  0.
          5    1    3    3  502    0  0.12478032884E+03 -0.44660371919E+02 -0.17577275603E+02  0.13375766259E+03  0.41800000000E+01 0.  1.
         -5    1    3    3    0  502 -0.14573207799E+02  0.21395937810E+01 -0.47973885747E+02  0.50357942380E+02  0.41800000000E+01 0.  1.
        -11    1    1    2    0    0  0.15787736213E+02  0.19034304050E+02 -0.16977114239E+02  0.29996328997E+02  0.00000000000E+00 0.  1.
         11    1    1    2    0    0 -0.12599485725E+03  0.23486474089E+02 -0.13912719122E+03  0.18916314085E+03  0.00000000000E+00 0. -1.
</event>
<event>
 7    1  0.3056346E-009  0.2311718E+03  0.7561462E-02  0.1125818E+00
          2   -1    0    0  501    0  0.00000000000E+00  0.00000000000E+00  0.20145983621E+03  0.20145983621E+03  0.00000000000E+00 0.  1.
         -2   -1    0    0    0  501 -0.00000000000E+00 -0.00000000000E+00 -0.34117724180E+03  0.34117724180E+03  0.00000000000E+00 0. -1.
         25    2    1    2    0    0  0.10248440280E+03  0.20152641409E+03 -0.14987072436E+03  0.29870893970E+03  0.12509935348E+03 0.  0.
          5    1    3    3  502    0  0.53484649045E+02  0.96456687641E+02 -0.14548905397E+03  0.18261718840E+03  0.41800000000E+01 0. -1.
         -5    1    3    3    0  502  0.48999753759E+02  0.10506972645E+03 -0.43816703905E+01  0.11609175130E+03  0.41800000000E+01 0. -1.
        -11    1    1    2    0    0 -0.10999933610E+03 -0.16256763246E+03 -0.15149893749E+02  0.19686952112E+03  0.00000000000E+00 0.  1.
         11    1    1    2    0    0  0.75149333001E+01 -0.38958781628E+02  0.25303212511E+02  0.47058617190E+02  0.00000000000E+00 0. -1.
</event>
<event>
 7    1  0.3056346E-009  0.1833463E+03  0.7561462E-02  0.1164603E+00
         -2   -1    0    0    0  501 -0.00000000000E+00  0.00000000000E+00  0.25546862645E+02  0.25546862645E+02  0.00000000000E+00 0.  1.
          2   -1    0    0  501    0  0.00000000000E+00 -0.00000000000E+00 -0.18384876355E+04  0.18384876355E+04  0.00000000000E+00 0. -1.
         25    2    1    2    0    0  0.15413669954E+03 -0.12244385865E+02 -0.14028679420E+04  0.14168959701E+04  0.12509068837E+03 0.  0.
          5    1    3    3  502    0  0.11833973877E+03 -0.56968992812E+02 -0.74279242819E+03  0.75432607253E+03  0.41800000000E+01 0.  1.
         -5    1    3    3    0  502  0.35796960773E+02  0.44724606947E+02 -0.66007551378E+03  0.66256989756E+03  0.41800000000E+01 0.  1.
        -11    1    1    2    0    0 -0.26057334368E+02 -0.32969623916E+02 -0.84637862667E+02  0.94496288669E+02  0.00000000000E+00 0.  1.
         11    1    1    2    0    0 -0.12807936517E+03  0.45214009781E+02 -0.32543496826E+03  0.35264223943E+03  0.00000000000E+00 0. -1.
</event>
<event>
 7    1  0.3056346E-009  0.1302216E+03  0.7561462E-02  0.1227127E+00
          2   -1    0    0  501    0  0.00000000000E+00  0.00000000000E+00  0.24200716895E+03  0.24200716895E+03  0.00000000000E+00 0. -1.
         -2   -1    0    0    0  501 -0.00000000000E+00 -0.00000000000E+00 -0.10827958722E+03  0.10827958722E+03  0.00000000000E+00 0.  1.
         25    2    1    2    0    0 -0.96623706763E+02  0.45788626865E+02  0.13876218664E+02  0.16514340044E+03  0.12508818572E+03 0.  0.
          5    1    3    3  502    0 -0.24257780697E+02 -0.35173798078E+02  0.33827136040E+02  0.54656962303E+02  0.41800000000E+01 0. -1.
         -5    1    3    3    0  502 -0.72365926066E+02  0.80962424943E+02 -0.19950917376E+02  0.11048643814E+03  0.41800000000E+01 0. -1.
        -11    1    1    2    0    0  0.31272754803E+02 -0.25684117845E+02 -0.69710141726E+01  0.41064024901E+02  0.00000000000E+00 0.  1.
         11    1    1    2    0    0  0.65350951960E+02 -0.20104509020E+02  0.12682237724E+03  0.14407933084E+03  0.00000000000E+00 0. -1.
</event>
<event>
 7    1  0.3056346E-009  0.2357463E+03  0.7561462E-02  0.1122659E+00
          1   -1    0    0  501    0  0.00000000000E+00  0.00000000000E+00  0.22238404263E+03  0.22238404263E+03  0.00000000000E+00 0. -1.
         -1   -1    0    0    0  501 -0.00000000000E+00 -0.00000000000E+00 -0.28003047104E+03  0.28003047104E+03  0.00000000000E+00 0.  1.
         25    2    1    2    0    0  0.12318547120E+03  0.18550762973E+03 -0.44738606623E+02  0.25929973780E+03  0.12508824923E+03 0.  0.
          5    1    3    3  502    0  0.87870568677E+02  0.83554082307E+02  0.33606050685E+02  0.12589424352E+03  0.41800000000E+01 0.  1.
         -5    1    3    3    0  502  0.35314902519E+02  0.10195354743E+03 -0.78344657308E+02  0.13340549427E+03  0.41800000000E+01 0.  1.
        -11    1    1    2    0    0 -0.52008125029E+02 -0.10221836768E+02 -0.98109171646E+01  0.53903479587E+02  0.00000000000E+00 0.  1.
         11    1    1    2    0    0 -0.71177346167E+02 -0.17528579297E+03 -0.30969046257E+01  0.18921129628E+03  0.00000000000E+00 0. -1.
</event>
<event>
 7    1  0.3056346E-009  0.2108962E+03  0.7561462E-02  0.1140858E+00
         -3   -1    0    0    0  501 -0.00000000000E+00  0.00000000000E+00  0.54825753881E+02  0.54825753881E+02  0.00000000000E+00 0.  1.
          3   -1    0    0  501    0  0.00000000000E+00 -0.00000000000E+00 -0.11246917300E+04  0.11246917300E+04  0.00000000000E+00 0. -1.
         25    2    1    2    0    0 -0.10139009311E+03  0.15415348434E+03 -0.85115934785E+03  0.87986615078E+03  0.12509580381E+03 0.  0.
          5    1    3    3  502    0  0.24129837595E+02  0.61639085553E+02 -0.22519767823E+03  0.23476177843E+03  0.41800000000E+01 0.  1.
         -5    1    3    3    0  502 -0.12551993071E+03  0.92514398784E+02 -0.62596166963E+03  0.64510437235E+03  0.41800000000E+01 0.  1.
        -11    1    1    2    0    0  0.11152094992E+03 -0.11983911049E+03 -0.14927413038E+03  0.22154254823E+03  0.00000000000E+00 0. -1.
         11    1    1    2    0    0 -0.10130856807E+02 -0.34314373844E+02 -0.69432497873E+02  0.78108784863E+02  0.00000000000E+00 0.  1.
</event>
<event>
 7    1  0.3056346E-009  0.8857593E+02  0.7561462E-02  0.1306337E+00
         -2   -1    0    0    0  501 -0.00000000000E+00  0.00000000000E+00  0.13450175742E+02  0.13450175742E+02  0.00000000000E+00 0.  1.
          2   -1    0    0  501    0  0.00000000000E+00 -0.00000000000E+00 -0.18534697673E+04  0.18534697673E+04  0.00000000000E+00 0. -1.
         25    2    1    2    0    0  0.68623325120E+02 -0.34890627687E+02 -0.14699258626E+04  0.14772464260E+04  0.12509374433E+03 0.  0.
          5    1    3    3  502    0  0.13582046678E+02 -0.10692709684E+02 -0.12209466756E+04  0.12210761905E+04  0.41800000000E+01 0.  1.
         -5    1    3    3    0  502  0.55041278442E+02 -0.24197918003E+02 -0.24897918708E+03  0.25617023552E+03  0.41800000000E+01 0.  1.
        -11    1    1    2    0    0 -0.30552163841E+01  0.33371697583E+02 -0.35921003535E+02  0.49125584390E+02  0.00000000000E+00 0.  1.
         11    1    1    2    0    0 -0.65568108736E+02  0.15189301041E+01 -0.33417272534E+03  0.34054793260E+03  0.00000000000E+00 0. -1.
</event>
<event>
 7    1  0.3056346E-009  0.1156831E+03  0.7561462E-02  0.1250393E+00
         -3   -1    0    0    0  501 -0.00000000000E+00  0.00000000000E+00  0.84243420729E+02  0.84243420729E+02  0.00000000000E+00 0.  1.
          3   -1    0    0  501    0  0.00000000000E+00 -0.00000000000E+00 -0.17985726405E+03  0.17985726405E+03  0.00000000000E+00 0. -1.
         25    2    1    2    0    0  0.61190477198E+01 -0.51168283531E+02 -0.42052645051E+02  0.14166838212E+03  0.12508345035E+03 0.  0.
          5    1    3    3  502    0  0.57537180079E+02  0.50009944667E+01 -0.92114153518E+01  0.58633263681E+02  0.41800000000E+01 0.  1.
         -5    1    3    3    0  502 -0.51418132360E+02 -0.56169277998E+02 -0.32841229699E+02  0.83035118440E+02  0.41800000000E+01 0.  1.
        -11    1    1    2    0    0 -0.15806189399E+02  0.72269539282E+02 -0.63194360566E+02  0.97294651131E+02  0.00000000000E+00 0. -1.
         11    1    1    2    0    0  0.96871416797E+01 -0.21101255751E+02  0.96331622988E+01  0.25137651523E+02  0.00000000000E+00 0.  1.
</event>
<event>
 7    1  0.3056346E-009  0.1010799E+03  0.7561462E-02  0.1278041E+00
         -1   -1    0    0    0  501 -0.00000000000E+00  0.00000000000E+00  0.17466560389E+03  0.17466560389E+03  0.00000000000E+00 0.  1.
          1   -1    0    0  501    0  0.00000000000E+00 -0.00000000000E+00 -0.10552143409E+03  0.10552143409E+03  0.00000000000E+00 0. -1.
         25    2    1    2    0    0  0.28779632029E+02 -0.72741600242E+02  0.33436304253E+02  0.15124730658E+03  0.12505260365E+03 0.  0.
          5    1    3    3  502    0  0.62248344316E+01 -0.17435169212E+02  0.75645574863E+02  0.77990121718E+02  0.41800000000E+01 0.  1.
         -5    1    3    3    0  502  0.22554797597E+02 -0.55306431030E+02 -0.42209270611E+02  0.73257184859E+02  0.41800000000E+01 0.  1.
        -11    1    1    2    0    0 -0.48534721757E+02  0.63151069294E+00  0.79466979376E+01  0.49185038680E+02  0.00000000000E+00 0. -1.
         11    1    1    2    0    0  0.19755089729E+02  0.72110089550E+02  0.27761167613E+02  0.79754692729E+02  0.00000000000E+00 0.  1.
</event>
<event>
 7    1  0.3056346E-009  0.1778602E+03  0.7561462E-02  0.1169890E+00
          2   -1    0    0  501    0  0.00000000000E+00  0.00000000000E+00  0.27376683383E+03  0.27376683383E+03  0.00000000000E+00 0.  1.
         -2   -1    0    0    0  501 -0.00000000000E+00 -0.00000000000E+00 -0.19179712530E+03  0.19179712530E+03  0.00000000000E+00 0. -1.
         25    2    1    2    0    0 -0.15843225230E+03 -0.57732874003E+01 -0.74706506474E+02  0.21532004235E+03  0.12509016393E+03 0.  0.
          5    1    3    3  502    0 -0.86744265269E+02  0.55178479851E+02 -0.62386301204E+02  0.12032769911E+03  0.41800000000E+01 0.  1.
         -5    1    3    3    0  502 -0.71687987034E+02 -0.60951767251E+02 -0.12320205270E+02  0.94992343239E+02  0.41800000000E+01 0.  1.
        -11    1    1    2    0    0  0.47594402060E+02  0.43352301973E+01  0.12670176367E+03  0.13541550223E+03  0.00000000000E+00 0.  1.
         11    1    1    2    0    0  0.11083785024E+03  0.14380572030E+01  0.29974451336E+02  0.11482841455E+03  0.00000000000E+00 0. -1.
</event>
<event>
 6    1  0.3056346E-009  0.2238637E+03  0.7561462E-02  0.1131035E+00
          1   -1    0    0  501    0  0.00000000000E+00  0.00000000000E+00  0.10287606554E+03  0.10287606554E+03  0.00000000000E+00 0. -1.
         -1   -1    0    0    0  501 -0.00000000000E+00 -0.00000000000E+00 -0.55438307657E+03  0.55438307657E+03  0.00000000000E+00 0.  1.
          5    1    1    2  502    0 -0.12133856844E+03 -0.67349324009E+02 -0.55130812125E+02  0.14938493392E+03  0.41800000000E+01 0.  1.
         -5    1    1    2    0  502 -0.31491750894E+02 -0.78349489182E+02 -0.14250415732E+03  0.16569634904E+03  0.41800000000E+01 0. -1.
        -11    1    1    2    0    0 -0.64040552840E+01  0.21401924558E+02 -0.51997038519E+02  0.56592811501E+02  0.00000000000E+00 0.  1.
         11    1    1    2    0    0  0.15923437462E+03  0.12429688863E+03 -0.20187500306E+03  0.28558504765E+03  0.00000000000E+00 0. -1.
</event>
<event>
 7    1  0.3056346E-009  0.1114571E+03  0.7561462E-02  0.1257895E+00
          4   -1    0    0  501    0  0.00000000000E+00  0.00000000000E+00  0.38520582391E+03  0.38520582391E+03  0.00000000000E+00 0. -1.
         -4   -1    0    0    0  501 -0.00000000000E+00 -0.00000000000E+00 -0.54405523123E+02  0.54405523123E+02  0.00000000000E+00 0.  1.
         25    2    1    2    0    0  0.21259190569E+01  0.88786533200E+02  0.14130151403E+03  0.20856945453E+03  0.12509009349E+03 0.  0.
          5    1    3    3  502    0 -0.98118514330E+00  0.10937708524E+03  0.60593028472E+02  0.12511313680E+03  0.41800000000E+01 0.  1.
         -5    1    3    3    0  502  0.31071042002E+01 -0.20590552039E+02  0.80708485556E+02  0.83456317738E+02  0.41800000000E+01 0.  1.
        -11    1    1    2    0    0 -0.12606327396E+02 -0.65144453940E+02  0.19378332690E+03  0.20482845787E+03  0.00000000000E+00 0. -1.
         11    1    1    2    0    0  0.10480408339E+02 -0.23642079260E+02 -0.42845401412E+01  0.26213434626E+02  0.00000000000E+00 0.  1.
</event>
<event>
 7    1  0.3056346E-009  0.1362193E+03  0.7561462E-02  0.1218509E+00
         -2   -1    0    0    0  501 -0.00000000000E+00  0.00000000000E+00  0.68391531954E+03  0.68391531954E+03  0.00000000000E+00 0.  1.
          2   -1    0    0  501    0  0.00000000000E+00 -0.00000000000E+00 -0.42484346876E+02  0.42484346876E+02  0.00000000000E+00 0. -1.
         25    2    1    2    0    0  0.12748611534E+03  0.49715084795E+01  0.37654168383E+03  0.41677949299E+03  0.12507629918E+03 0.  0.
          5    1    3    3  502    0  0.13200355006E+03  0.13791453011E+02  0.38221174387E+03  0.40462134269E+03  0.41800000000E+01 0. -1.
         -5    1    3    3    0  502 -0.45174347263E+01 -0.88199445311E+01 -0.56700600377E+01  0.12158150306E+02  0.41800000000E+01 0. -1.
        -11    1    1    2    0    0 -0.21236726351E+02  0.60355148660E+01 -0.19806921170E+01  0.22166396348E+02  0.00000000000E+00 0. -1.
         11    1    1    2    0    0 -0.10624938899E+03 -0.11007023346E+02  0.26686998095E+03  0.28745377708E+03  0.00000000000E+00 0.  1.
</event>
<event>
 7    1  0.3056346E-009  0.1338352E+03  0.7561462E-02  0.1221873E+00
          1   -1    0    0  501    0  0.00000000000E+00  0.00000000000E+00  0.49356403540E+03  0.49356403540E+03  0.00000000000E+00 0. -1.
         -1   -1    0    0    0  501 -0.00000000000E+00 -0.00000000000E+00 -0.55079156504E+02  0.55079156504E+02  0.00000000000E+00 0.  1.
         25    2    1    2    0    0  0.67051665293E+02 -0.68057490746E+02  0.36688280109E+03  0.39922548036E+03  0.12510094552E+03 0.  0.
          5    1    3    3  502    0  0.90586762770E+02 -0.11878472298E+02  0.26625603098E+03  0.28152585339E+03  0.41800000000E+01 0.  1.
         -5    1    3    3    0  502 -0.23535097477E+02 -0.56179018448E+02  0.10062677011E+03  0.11769962697E+03  0.41800000000E+01 0.  1.
        -11    1    1    2    0    0  0.33808259452E+01  0.38710344894E+02 -0.74314542502E+01  0.39561942548E+02  0.00000000000E+00 0.  1.
         11    1    1    2    0    0 -0.70432491238E+02  0.29347145852E+02  0.79033532058E+02  0.10985576899E+03  0.00000000000E+00 0. -1.
</event>
<event>
 7    1  0.3056346E-009  0.9541256E+02  0.7561462E-02  0.1290250E+00
         -2   -1    0    0    0  501 -0.00000000000E+00  0.00000000000E+00  0.56474276580E+02  0.56474276580E+02  0.00000000000E+00 0.  1.
          2   -1    0    0  501    0  0.00000000000E+00 -0.00000000000E+00 -0.21659691843E+03  0.21659691843E+03  0.00000000000E+00 0. -1.
         25    2    1    2    0    0  0.57234985368E+01 -0.16236570050E+02 -0.11457572139E+03  0.17050145361E+03  0.12508703014E+03 0.  0.
          5    1    3    3  502    0 -0.47453919351E+02  0.54167518458E+01 -0.69493192922E+01  0.48445651002E+02  0.41800000000E+01 0. -1.
         -5    1    3    3    0  502  0.53177417888E+02 -0.21653321896E+02 -0.10762640210E+03  0.12205580261E+03  0.41800000000E+01 0. -1.
        -11    1    1    2    0    0  0.33782871899E+02  0.28229662312E+02 -0.43406619659E+01  0.44238417855E+02  0.00000000000E+00 0.  1.
         11    1    1    2    0    0 -0.39506370436E+02 -0.11993092262E+02 -0.41206258491E+02  0.58331323539E+02  0.00000000000E+00 0. -1.
</event>
<event>
 7    1  0.3056346E-009  0.1354295E+03  0.7561462E-02  0.1219615E+00
          1   -1    0    0  501    0  0.00000000000E+00  0.00000000000E+00  0.29938182429E+02  0.29938182429E+02  0.00000000000E+00 0. -1.
         -1   -1    0    0    0  501 -0.00000000000E+00 -0.00000000000E+00 -0.65346694942E+03  0.65346694942E+03  0.00000000000E+00 0.  1.
         25    2    1    2    0    0 -0.57615918701E+01 -0.83871838633E+02 -0.39383511638E+03  0.42168780460E+03  0.12508726713E+03 0.  0.
          5    1    3    3  502    0 -0.60252168285E+02 -0.67350997399E+02 -0.19775791744E+03  0.21746757677E+03  0.41800000000E+01 0.  1.
         -5    1    3    3    0  502  0.54490576415E+02 -0.16520841234E+02 -0.19607719894E+03  0.20422022784E+03  0.41800000000E+01 0.  1.
        -11    1    1    2    0    0 -0.91316231224E+01  0.10053663931E+03 -0.20435803771E+03  0.22793246798E+03  0.00000000000E+00 0.  1.
         11    1    1    2    0    0  0.14893214992E+02 -0.16664800678E+02 -0.25335612902E+02  0.33784859265E+02  0.00000000000E+00 0. -1.
</event>
<event>
 7    1  0.3056346E-009  0.1104329E+03  0.7561462E-02  0.1259770E+00
          2   -1    0    0  501    0  0.00000000000E+00  0.00000000000E+00  0.55484372171E+02  0.55484372171E+02  0.00000000000E+00 0. -1.
         -2   -1    0    0    0  501 -0.00000000000E+00 -0.00000000000E+00 -0.25097664198E+03  0.25097664198E+03  0.00000000000E+00 0.  1.
         25    2    1    2    0    0 -0.28064115995E+02  0.29847808705E+02 -0.14444015981E+03  0.19542077247E+03  0.12509129568E+03 0.  0.
          5    1    3    3  502    0 -0.39702343939E+02 -0.42446084797E+02 -0.62468190288E+02  0.85426538187E+02  0.41800000000E+01 0.  1.
         -5    1    3    3    0  502  0.11638227944E+02  0.72293893501E+02 -0.81971969522E+02  0.10999423428E+03  0.41800000000E+01 0.  1.
        -11    1    1    2    0    0  0.30670970032E+02 -0.55530087619E+02 -0.12521147454E+02  0.64661257081E+02  0.00000000000E+00 0. -1.
         11    1    1    2    0    0 -0.26068540372E+01  0.25682278915E+02 -0.38530962547E+02  0.46378984606E+02  0.00000000000E+00 0.  1.
</event>
<event>
 7    1  0.3056346E-009  0.1973572E+03  0.7561462E-02  0.1151988E+00
          2   -1    0    0  501    0  0.00000000000E+00  0.00000000000E+00  0.21051957966E+03  0.21051957966E+03  0.00000000000E+00 0.  1.
         -2   -1    0    0    0  501 -0.00000000000E+00 -0.00000000000E+00 -0.23264165771E+03  0.23264165771E+03  0.00000000000E+00 0. -1.
         25    2    1    2    0    0  0.11459228099E+03 -0.13590484397E+03  0.62442273617E+02  0.22615826481E+03  0.12508799195E+03 0.  0.
          5    1    3    3  502    0  0.76849487329E+02 -0.15504599513E+03  0.61258057419E+02  0.18361679201E+03  0.41800000000E+01 0. -1.
         -5    1    3    3    0  502  0.37742793661E+02  0.19141151152E+02  0.11842161984E+01  0.42541472809E+02  0.41800000000E+01 0. -1.
        -11    1    1    2    0    0 -0.57504548882E+02  0.84880535837E+02 -0.94945026629E+02  0.13973559528E+03  0.00000000000E+00 0. -1.
         11    1    1    2    0    0 -0.57087732107E+02  0.51024308138E+02  0.10380674967E+02  0.77267377274E+02  0.00000000000E+00 0.  1.
</event>
<event>
 7    1  0.3056346E-009  0.9829885E+02  0.7561462E-02  0.1283914E+00
         -1   -1    0    0    0  501 -0.00000000000E+00  0.00000000000E+00  0.39319347083E+02  0.39319347083E+02  0.00000000000E+00 0.  1.
          1   -1    0    0  501    0  0.00000000000E+00 -0.00000000000E+00 -0.38940966977E+03  0.38940966977E+03  0.00000000000E+00 0. -1.
         25    2    1    2    0    0  0.17117599354E+02  0.55848479549E+02 -0.17641687113E+03  0.22401489205E+03  0.12509074532E+03 0.  0.
          5    1    3    3  502    0 -0.25568351727E+02 -0.19114240728E+02 -0.11126945897E+03  0.11583375893E+03  0.41800000000E+01 0. -1.
         -5    1    3    3    0  502  0.42685951081E+02  0.74962720277E+02 -0.65147412159E+02  0.10818113311E+03  0.41800000000E+01 0. -1.
        -11    1    1    2    0    0  0.14885126139E+02 -0.14931175781E+01  0.45673237010E+01  0.15641509712E+02  0.00000000000E+00 0.  1.
         11    1    1    2    0    0 -0.32002725493E+02 -0.54355361971E+02 -0.17824077526E+03  0.18907261510E+03  0.00000000000E+00 0. -1.
</event>
<event>
 7    1  0.3056346E-009  0.1581591E+03  0.7561462E-02  0.1190791E+00
         -1   -1    0    0    0  501 -0.00000000000E+00  0.00000000000E+00  0.39394487627E+02  0.39394487627E+02  0.00000000000E+00 0.  1.
          1   -1    0    0  501    0  0.00000000000E+00 -0.00000000000E+00 -0.10322817843E+04  0.10322817843E+04  0.00000000000E+00 0. -1.
         25    2    1    2    0    0  0.66134534492E+02  0.11622418994E+03 -0.24022537523E+03  0.30205703456E+03  0.12509349399E+03 0.  0.
          5    1    3    3  502    0 -0.39870967617E+01  0.88622297850E+02 -0.61433724257E+02  0.10798788586E+03  0.41800000000E+01 0. -1.
         -5    1    3    3    0  502  0.70121631254E+02  0.27601892093E+02 -0.17879165098E+03  0.19406914870E+03  0.41800000000E+01 0. -1.
        -11    1    1    2    0    0 -0.34962252032E+02 -0.35677773204E+01 -0.88013534298E+02  0.94770619508E+02  0.00000000000E+00 0.  1.
         11    1    1    2    0    0 -0.31172282460E+02 -0.11265641262E+03 -0.66464838712E+03  0.67484861784E+03  0.00000000000E+00 0. -1.
</event>
<event>
 7    1  0.3056346E-009  0.1246253E+03  0.7561462E-02  0.1235656E+00
         -2   -1    0    0    0  501 -0.00000000000E+00  0.00000000000E+00  0.71399363646E+02  0.71399363646E+02  0.00000000000E+00 0.  1.
          2   -1    0    0  501    0  0.00000000000E+00 -0.00000000000E+00 -0.30012798724E+03  0.30012798724E+03  0.00000000000E+00 0. -1.
         25    2    1    2    0    0  0.24299018406E+02  0.88129223870E+02 -0.84775146300E+02  0.17661136177E+03  0.12509014862E+03 0.  0.
          5    1    3    3  502    0  0.71330087921E+02  0.71721363755E+02 -0.74199295325E+02  0.12551869697E+03  0.41800000000E+01 0. -1.
         -5    1    3    3    0  502 -0.47031069514E+02  0.16407860115E+02 -0.10575850975E+02  0.51092664807E+02  0.41800000000E+01 0. -1.
        -11    1    1    2    0    0  0.64237649053E+01 -0.42712777645E+02 -0.25668949977E+01  0.43269331860E+02  0.00000000000E+00 0.  1.
         11    1    1    2    0    0 -0.30722783311E+02 -0.45416446225E+02 -0.14138658230E+03  0.15164665725E+03  0.00000000000E+00 0. -1.
</event>
<event>
 7    1  0.3056346E-009  0.1290089E+03  0.7561462E-02  0.1228934E+00
         -2   -1    0    0    0  501 -0.00000000000E+00  0.00000000000E+00  0.52675762685E+02  0.52675762685E+02  0.00000000000E+00 0. -1.
          2   -1    0    0  501    0  0.00000000000E+00 -0.00000000000E+00 -0.38334600411E+03  0.38334600411E+03  0.00000000000E+00 0.  1.
         25    2    1    2    0    0 -0.76962360020E+02  0.32773604948E+02 -0.12530737629E+03  0.19582266788E+03  0.12508902694E+03 0.  0.
          5    1    3    3  502    0  0.28509673849E+02 -0.10036968377E+02 -0.52232034731E+02  0.60491322430E+02  0.41800000000E+01 0.  1.
         -5    1    3    3    0  502 -0.10547203387E+03  0.42810573324E+02 -0.73075341563E+02  0.13533134545E+03  0.41800000000E+01 0.  1.
        -11    1    1    2    0    0  0.83232573685E+02 -0.48734719360E+02 -0.20031026584E+03  0.22232169663E+03  0.00000000000E+00 0.  1.
         11    1    1    2    0    0 -0.62702136649E+01  0.15961114412E+02 -0.50525992901E+01  0.17877402280E+02  0.00000000000E+00 0. -1.
</event>
<event>
 7    1  0.3056346E-009  0.1431232E+03  0.7561462E-02  0.1209187E+00
         -2   -1    0    0    0  501 -0.00000000000E+00  0.00000000000E+00  0.79947665409E+02  0.79947665409E+02  0.00000000000E+00 0.  1.
          2   -1    0    0  501    0  0.00000000000E+00 -0.00000000000E+00 -0.34539569763E+03  0.34539569763E+03  0.00000000000E+00 0. -1.
         25    2    1    2    0    0  0.11657937316E+03  0.25225947741E+02 -0.12746496855E+03  0.21476099531E+03  0.12509143940E+03 0.  0.
          5    1    3    3  502    0  0.92938040874E+02  0.50966863508E+02 -0.28672013559E+02  0.10988474589E+03  0.41800000000E+01 0. -1.
         -5    1    3    3    0  502  0.23641332287E+02 -0.25740915766E+02 -0.98792954988E+02  0.10487624942E+03  0.41800000000E+01 0. -1.
        -11    1    1    2    0    0  0.54608864418E+01 -0.22231160743E+02  0.41018917378E+01  0.23256640010E+02  0.00000000000E+00 0.  1.
         11    1    1    2    0    0 -0.12204025960E+03 -0.29947869980E+01 -0.14208495541E+03  0.18732572773E+03  0.00000000000E+00 0. -1.
</event>
<event>
 7    1  0.3056346E-009  0.7045679E+02  0.7561462E-02  0.1358547E+00
         -1   -1    0    0    0  501 -0.00000000000E+00  0.00000000000E+00  0.24479833788E+02  0.24479833788E+02  0.00000000000E+00 0.  1.
          1   -1    0    0  501    0  0.00000000000E+00 -0.00000000000E+00 -0.48228142490E+03  0.48228142490E+03  0.00000000000E+00 0. -1.
         25    2    1    2    0    0 -0.13825300768E+02  0.96147071047E+01 -0.26916134242E+03  0.29728492652E+03  0.12508764027E+03 0.  0.
          5    1    3    3  502    0 -0.23639870068E+02 -0.26635363072E+02 -0.25408265331E+03  0.25660037634E+03  0.41800000000E+01 0.  1.
         -5    1    3    3    0  502  0.98145692994E+01  0.36250070177E+02 -0.15078689113E+02  0.40684550184E+02  0.41800000000E+01 0.  1.
        -11    1    1    2    0    0  0.24362933296E+02 -0.33349212069E+02 -0.17564951994E+03  0.18043967501E+03  0.00000000000E+00 0. -1.
         11    1    1    2    0    0 -0.10537632528E+02  0.23734504964E+02 -0.12990728752E+02  0.29036657154E+02  0.00000000000E+00 0.  1.
</event>
<event>
 7    1  0.3056346E-009  0.9468009E+02  0.7561462E-02  0.1291898E+00
         -2   -1    0    0    0  501 -0.00000000000E+00  0.00000000000E+00  0.34916438924E+02  0.34916438924E+02  0.00000000000E+00 0.  1.
          2   -1    0    0  501    0  0.00000000000E+00 -0.00000000000E+00 -0.55696759966E+03  0.55696759966E+03  0.00000000000E+00 0. -1.
         25    2    1    2    0    0  0.14816086101E+01 -0.58721281527E+02 -0.13002075027E+03  0.18974689582E+03  0.12509238548E+03 0.  0.
          5    1    3    3  502    0  0.22412269020E+02 -0.72195810561E+02 -0.14266959508E+03  0.16151356174E+03  0.41800000000E+01 0. -1.
         -5    1    3    3    0  502 -0.20930660410E+02  0.13474529033E+02  0.12648844817E+02  0.28233334077E+02  0.41800000000E+01 0. -1.
        -11    1    1    2    0    0 -0.25996654324E+02  0.13644159757E+01 -0.14729826033E+03  0.14958096524E+03  0.00000000000E+00 0.  1.
         11    1    1    2    0    0  0.24515045714E+02  0.57356865552E+02 -0.24473215015E+03  0.25255617753E+03  0.00000000000E+00 0. -1.
</event>
<event>
 7    1  0.3056346E-009  0.1170061E+03  0.7561462E-02  0.1248119E+00
         -1   -1    0    0    0  501 -0.00000000000E+00  0.00000000000E+00  0.22293906288E+03  0.22293906288E+03  0.00000000000E+00 0.  1.
          1   -1    0    0  501    0  0.00000000000E+00 -0.00000000000E+00 -0.64827381617E+02  0.64827381617E+02  0.00000000000E+00 0. -1.
         25    2    1    2    0    0 -0.35777629018E+02 -0.16895155560E+02  0.55566177041E+02  0.14247935835E+03  0.12508909827E+03 0.  0.
          5    1    3    3  502    0 -0.69378588162E+02  0.28014745914E+02  0.32824282225E+02  0.81811493004E+02  0.41800000000E+01 0. -1.
         -5    1    3    3    0  502  0.33600959144E+02 -0.44909901474E+02  0.22741894815E+02  0.60667865346E+02  0.41800000000E+01 0. -1.
        -11    1    1    2    0    0 -0.26501146869E+02  0.29108546567E+02  0.42244590171E+02  0.57742736923E+02  0.00000000000E+00 0.  1.
         11    1    1    2    0    0  0.62278775887E+02 -0.12213391007E+02  0.60300914056E+02  0.87544349229E+02  0.00000000000E+00 0. -1.
</event>
<event>
 7    1  0.3056346E-009  0.6723983E+02  0.7561462E-02  0.1369739E+00
         -2   -1    0    0    0  501 -0.00000000000E+00  0.00000000000E+00  0.28525804823E+03  0.28525804823E+03  0.00000000000E+00 0.  1.
          2   -1    0    0  501    0  0.00000000000E+00 -0.00000000000E+00 -0.44748729807E+02  0.44748729807E+02  0.00000000000E+00 0. -1.
         25    2    1    2    0    0 -0.13005904704E+02  0.27558618005E+02  0.12081465625E+03  0.17655248345E+03  0.12508384095E+03 0.  0.
          5    1    3    3  502    0  0.15975478945E+02  0.72104127475E+01  0.13643797317E+03  0.13762266856E+03  0.41800000000E+01 0. -1.
         -5    1    3    3    0  502 -0.28981383649E+02  0.20348205258E+02 -0.15623316926E+02  0.38929814888E+02  0.41800000000E+01 0. -1.
        -11    1    1    2    0    0  0.30113572992E+02  0.15932508060E+02  0.12109561625E+02  0.36156791536E+02  0.00000000000E+00 0. -1.
         11    1    1    2    0    0 -0.17107668288E+02 -0.43491126065E+02  0.10758510056E+03  0.11729750305E+03  0.00000000000E+00 0.  1.
</event>
<event>
 7    1  0.3056346E-009  0.9036622E+02  0.7561462E-02  0.1301967E+00
         -2   -1    0    0    0  501 -0.00000000000E+00  0.00000000000E+00  0.18283768361E+03  0.18283768361E+03  0.00000000000E+00 0.  1.
          2   -1    0    0  501    0  0.00000000000E+00 -0.00000000000E+00 -0.74919964764E+02  0.74919964764E+02  0.00000000000E+00 0. -1.
         25    2    1    2    0    0 -0.70276618539E+01  0.40682472863E+02  0.44070795429E+02  0.13890562188E+03  0.12509230652E+03 0.  0.
          5    1    3    3  502    0 -0.61633830297E+02  0.37994207116E+02  0.73108067992E+01  0.72891762961E+02  0.41800000000E+01 0.  1.
         -5    1    3    3    0  502  0.54606168443E+02  0.26882657470E+01  0.36759988629E+02  0.66013858915E+02  0.41800000000E+01 0.  1.
        -11    1    1    2    0    0 -0.12834241569E+02 -0.24879259762E+02  0.82651182049E+02  0.87263470118E+02  0.00000000000E+00 0.  1.
         11    1    1    2    0    0  0.19861903423E+02 -0.15803213102E+02 -0.18804258628E+02  0.31588556385E+02  0.00000000000E+00 0. -1.
</event>
<event>
 7    1  0.3056346E-009  0.1165457E+03  0.7561462E-02  0.1248907E+00
          3   -1    0    0  501    0  0.00000000000E+00  0.00000000000E+00  0.27264043823E+02  0.27264043823E+02  0.00000000000E+00 0. -1.
         -3   -1    0    0    0  501 -0.00000000000E+00 -0.00000000000E+00 -0.52525523937E+03  0.52525523937E+03  0.00000000000E+00 0.  1.
         25    2    1    2    0    0 -0.10008346354E+02 -0.49856770886E+02 -0.25410373168E+03  0.28775342399E+03  0.12508981558E+03 0.  0.
          5    1    3    3  502    0  0.48944366736E+02  0.51203217324E+01 -0.61199147630E+02  0.78642080342E+02  0.41800000000E+01 0. -1.
         -5    1    3    3    0  502 -0.58952713091E+02 -0.54977092618E+02 -0.19290458405E+03  0.20911134365E+03  0.41800000000E+01 0. -1.
        -11    1    1    2    0    0  0.46046715953E+02  0.48563648121E+02 -0.15385551782E+03  0.16778035741E+03  0.00000000000E+00 0.  1.
         11    1    1    2    0    0 -0.36038369599E+02  0.12931227654E+01 -0.90031946044E+02  0.96985501794E+02  0.00000000000E+00 0. -1.
</event>
<event>
 7    1  0.3056346E-009  0.1366451E+03  0.7561462E-02  0.1217916E+00
         -1   -1    0    0    0  501 -0.00000000000E+00  0.00000000000E+00  0.31491220828E+03  0.31491220828E+03  0.00000000000E+00 0.  1.
          1   -1    0    0  501    0  0.00000000000E+00 -0.00000000000E+00 -0.91053618370E+02  0.91053618370E+02  0.00000000000E+00 0. -1.
         25    2    1    2    0    0 -0.67242110009E+02 -0.85113585298E+02  0.31290666790E+02  0.16850036757E+03  0.12508974491E+03 0.  0.
          5    1    3    3  502    0 -0.39779706925E+02 -0.11564455212E+03  0.34389833210E+02  0.12710712233E+03  0.41800000000E+01 0.  1.
         -5    1    3    3    0  502 -0.27462403084E+02  0.30530966827E+02 -0.30991664202E+01  0.41393245234E+02  0.41800000000E+01 0.  1.
        -11    1    1    2    0    0  0.54240580734E+02  0.57060004426E+02  0.19090496547E+03  0.20650082456E+03  0.00000000000E+00 0.  1.
         11    1    1    2    0    0  0.13001529274E+02  0.28053580871E+02  0.16629576530E+01  0.30964634526E+02  0.00000000000E+00 0. -1.
</event>
<event>
 7    1  0.3056346E-009  0.1003350E+03  0.7561462E-02  0.1279593E+00
          1   -1    0    0  501    0  0.00000000000E+00  0.00000000000E+00  0.56797276808E+02  0.56797276808E+02  0.00000000000E+00 0. -1.
         -1   -1    0    0    0  501 -0.00000000000E+00 -0.00000000000E+00 -0.23276966438E+03  0.23276966438E+03  0.00000000000E+00 0.  1.
         25    2    1    2    0    0 -0.99101619675E+01 -0.17096846148E+02 -0.55705547275E+02  0.13835224160E+03  0.12509085218E+03 0.  0.
          5    1    3    3  502    0 -0.18145925101E+02  0.52784459156E+02 -0.28331817847E+02  0.62734663693E+02  0.41800000000E+01 0.  1.
         -5    1    3    3    0  502  0.82357631330E+01 -0.69881305304E+02 -0.27373729428E+02  0.75617577905E+02  0.41800000000E+01 0.  1.
        -11    1    1    2    0    0 -0.27155115171E+02  0.24310880089E+02 -0.10381219467E+03  0.11002450151E+03  0.00000000000E+00 0.  1.
         11    1    1    2    0    0  0.37065277138E+02 -0.72140339402E+01 -0.16454645627E+02  0.41190198078E+02  0.00000000000E+00 0. -1.
</event>
<event>
 7    1  0.3056346E-009  0.2334743E+03  0.7561462E-02  0.1124218E+00
          1   -1    0    0  501    0  0.00000000000E+00  0.00000000000E+00  0.85582432493E+03  0.85582432493E+03  0.00000000000E+00 0. -1.
         -1   -1    0    0    0  501 -0.00000000000E+00 -0.00000000000E+00 -0.67581281354E+02  0.67581281354E+02  0.00000000000E+00 0.  1.
         25    2    1    2    0    0  0.17427601571E+03 -0.12753012693E+03  0.44056086028E+03  0.50634449211E+03  0.12511918382E+03 0.  0.
          5    1    3    3  502    0  0.25992623933E+02 -0.93050475230E+02  0.15448744055E+03  0.18225764490E+03  0.41800000000E+01 0. -1.
         -5    1    3    3    0  502  0.14828339177E+03 -0.34479651697E+02  0.28607341973E+03  0.32408684721E+03  0.41800000000E+01 0. -1.
        -11    1    1    2    0    0 -0.33351315332E+02  0.11102918651E+02  0.16613472820E+02  0.38879204160E+02  0.00000000000E+00 0.  1.
         11    1    1    2    0    0 -0.14092470037E+03  0.11642720828E+03  0.33106871048E+03  0.37818191001E+03  0.00000000000E+00 0. -1.
</event>
<event>
 7    1  0.3056346E-009  0.1221762E+03  0.7561462E-02  0.1239550E+00
          2   -1    0    0  501    0  0.00000000000E+00  0.00000000000E+00  0.51613070915E+02  0.51613070915E+02  0.00000000000E+00 0. -1.
         -2   -1    0    0    0  501 -0.00000000000E+00 -0.00000000000E+00 -0.42020132476E+03  0.42020132476E+03  0.00000000000E+00 0.  1.
         25    2    1    2    0    0 -0.41600356510E+02  0.54682792575E+02 -0.85222907433E+02  0.16622479008E+03  0.12508772689E+03 0.  0.
          5    1    3    3  502    0 -0.86263076054E+02  0.40379803019E+02 -0.51965616624E+02  0.10858058986E+03  0.41800000000E+01 0.  1.
         -5    1    3    3    0  502  0.44662719544E+02  0.14302989556E+02 -0.33257290809E+02  0.57644200222E+02  0.41800000000E+01 0.  1.
        -11    1    1    2    0    0  0.63513444024E+02 -0.45712643929E+02 -0.14091779680E+03  0.16118755796E+03  0.00000000000E+00 0. -1.
         11    1    1    2    0    0 -0.21913087513E+02 -0.89701486469E+01 -0.14244754961E+03  0.14440204764E+03  0.00000000000E+00 0.  1.
</event>
<event>
 7    1  0.3056346E-009  0.1582552E+03  0.7561462E-02  0.1190681E+00
         -1   -1    0    0    0  501 -0.00000000000E+00  0.00000000000E+00  0.11030679754E+03  0.11030679754E+03  0.00000000000E+00 0.  1.
          1   -1    0    0  501    0  0.00000000000E+00 -0.00000000000E+00 -0.26135947997E+03  0.26135947997E+03  0.00000000000E+00 0. -1.
         25    2    1    2    0    0  0.46159695007E+02 -0.11997032154E+03 -0.49678737303E+02  0.18611878792E+03  0.12509448742E+03 0.  0.
          5    1    3    3  502    0 -0.31334541163E+02 -0.16078366119E+02 -0.43730506413E+02  0.56304501757E+02  0.41800000000E+01 0.  1.
         -5    1    3    3    0  502  0.77494236171E+02 -0.10389195542E+03 -0.59482308897E+01  0.12981428616E+03  0.41800000000E+01 0.  1.
        -11    1    1    2    0    0 -0.11205732004E+02  0.11559832423E+03 -0.58448528464E+02  0.13001835053E+03  0.00000000000E+00 0.  1.
         11    1    1    2    0    0 -0.34953963004E+02  0.43719973106E+01 -0.42925416663E+02  0.55529139069E+02  0.00000000000E+00 0. -1.
</event>
<event>
 7    1  0.3056346E-009  0.1305319E+03  0.7561462E-02  0.1226669E+00
         -1   -1    0    0    0  501 -0.00000000000E+00  0.00000000000E+00  0.56593153424E+02  0.56593153424E+02  0.00000000000E+00 0.  1.
          1   -1    0    0  501    0  0.00000000000E+00 -0.00000000000E+00 -0.44949401067E+03  0.44949401067E+03  0.00000000000E+00 0. -1.
         25    2    1    2    0    0  0.11176506114E+03  0.25384815123E+02 -0.16279259360E+03  0.23512789188E+03  0.12509148364E+03 0.  0.
          5    1    3    3  502    0  0.40692826802E+02  0.29136726208E+02  0.72509052602E+01  0.50743501992E+02  0.41800000000E+01 0. -1.
         -5    1    3    3    0  502  0.71072234336E+02 -0.37519110853E+01 -0.17004349886E+03  0.18438438989E+03  0.41800000000E+01 0. -1.
        -11    1    1    2    0    0 -0.21163284921E+02 -0.42375303985E+02 -0.51525825969E+02  0.69989011696E+02  0.00000000000E+00 0. -1.
         11    1    1    2    0    0 -0.90601776217E+02  0.16990488862E+02 -0.17858243768E+03  0.20097026052E+03  0.00000000000E+00 0.  1.
</event>
<event>
 7    1  0.3453897E-009  0.1355744E+03  0.7561462E-02  0.1219411E+00
         -2   -1    0    0    0  501 -0.00000000000E+00  0.00000000000E+00  0.31100799629E+02  0.31100799629E+02  0.00000000000E+00 0.  1.
          2   -1    0    0  501    0  0.00000000000E+00 -0.00000000000E+00 -0.87922674648E+03  0.87922674648E+03  0.00000000000E+00 0. -1.
         25    2    1    2    0    0 -0.69736180156E+02 -0.86621989616E+02 -0.61178076638E+03  0.63426197285E+03  0.12508413242E+03 0.  0.
          5    1    3    3  502    0 -0.47394096039E+02 -0.11390205940E+03 -0.54302690503E+03  0.55688021285E+03  0.41800000000E+01 0.  1.
         -5    1    3    3    0  502 -0.22342084117E+02  0.27280069789E+02 -0.68753861346E+02  0.77381759998E+02  0.41800000000E+01 0.  1.
        -11    1    1    2    0    0  0.37858965162E+02  0.58556981305E+02 -0.52247096787E+02  0.87131971316E+02  0.00000000000E+00 0.  1.
         11    1    1    2    0    0  0.31877214994E+02  0.28065008311E+02 -0.18409808369E+03  0.18893360194E+03  0.00000000000E+00 0. -1.
</event>
<event>
 7    1  0.3056346E-009  0.1381544E+03  0.7561462E-02  0.1215834E+00
         -2   -1    0    0    0  501 -0.00000000000E+00  0.00000000000E+00  0.10107541567E+03  0.10107541567E+03  0.00000000000E+00 0.  1.
          2   -1    0    0  501    0  0.00000000000E+00 -0.00000000000E+00 -0.26081349733E+03  0.26081349733E+03  0.00000000000E+00 0. -1.
         25    2    1    2    0    0  0.33939192822E+02  0.11500200125E+03 -0.10252514306E+03  0.20133441491E+03  0.12508721983E+03 0.  0.
          5    1    3    3  502    0  0.54031877683E+02  0.18010130135E+02  0.21690724811E+01  0.57148804614E+02  0.41800000000E+01 0. -1.
         -5    1    3    3    0  502 -0.20092684862E+02  0.96991871120E+02 -0.10469421554E+03  0.14418561029E+03  0.41800000000E+01 0. -1.
        -11    1    1    2    0    0 -0.79213687783E+01 -0.36883882969E+02  0.24155162340E+02  0.44795544130E+02  0.00000000000E+00 0.  1.
         11    1    1    2    0    0 -0.26017824043E+02 -0.78118118286E+02 -0.81368100940E+02  0.11575895397E+03  0.00000000000E+00 0. -1.
</event>
<event>
 7    1  0.3056346E-009  0.1097705E+03  0.7561462E-02  0.1260996E+00
          1   -1    0    0  501    0  0.00000000000E+00  0.00000000000E+00  0.22156142982E+03  0.22156142982E+03  0.00000000000E+00 0. -1.
         -1   -1    0    0    0  501 -0.00000000000E+00 -0.00000000000E+00 -0.71908266231E+02  0.71908266231E+02  0.00000000000E+00 0.  1.
         25    2    1    2    0    0 -0.56225482677E+02 -0.16199899083E+02  0.11617315560E+03  0.18046627111E+03  0.12509249095E+03 0.  0.
          5    1    3    3  502    0 -0.89427828720E+02  0.15394588260E+02  0.88174638158E+02  0.12659608648E+03  0.41800000000E+01 0. -1.
         -5    1    3    3    0  502  0.33202346043E+02 -0.31594487343E+02  0.27998517445E+02  0.53870184632E+02  0.41800000000E+01 0. -1.
        -11    1    1    2    0    0  0.63925465928E+02 -0.89301960939E+00 -0.10874272161E+02  0.64849922692E+02  0.00000000000E+00 0.  1.
         11    1    1    2    0    0 -0.76999832508E+01  0.17092918693E+02  0.44354280151E+02  0.48153502253E+02  0.00000000000E+00 0. -1.
</event>
<event>
 7    1  0.3056346E-009  0.9367244E+02  0.7561462E-02  0.1294194E+00
         -1   -1    0    0    0  501 -0.00000000000E+00  0.00000000000E+00  0.54906984924E+03  0.54906984924E+03  0.00000000000E+00 0.  1.
          1   -1    0    0  501    0  0.00000000000E+00 -0.00000000000E+00 -0.25292930628E+02  0.25292930628E+02  0.00000000000E+00 0. -1.
         25    2    1    2    0    0 -0.27800235080E+02 -0.22961548917E+02  0.36179704407E+03  0.38450533229E+03  0.12508862324E+03 0.  0.
          5    1    3    3  502    0  0.18976191829E+01 -0.53228775068E+02  0.62641727350E+02  0.82330807473E+02  0.41800000000E+01 0.  1.
         -5    1    3    3    0  502 -0.29697854263E+02  0.30267226151E+02  0.29915531672E+03  0.30217452482E+03  0.41800000000E+01 0.  1.
        -11    1    1    2    0    0 -0.26302954850E+02 -0.97893541344E+01  0.88831787623E+02  0.93159880745E+02  0.00000000000E+00 0.  1.
         11    1    1    2    0    0  0.54103189930E+02  0.32750903052E+02  0.73148086917E+02  0.96697566830E+02  0.00000000000E+00 0. -1.
</event>
<event>
 7    1  0.3056346E-009  0.1136116E+03  0.7561462E-02  0.1254024E+00
          4   -1    0    0  501    0  0.00000000000E+00  0.00000000000E+00  0.62716827439E+02  0.62716827439E+02  0.00000000000E+00 0. -1.
         -4   -1    0    0    0  501 -0.00000000000E+00 -0.00000000000E+00 -0.39330794939E+03  0.39330794939E+03  0.00000000000E+00 0.  1.
         25    2    1    2    0    0 -0.23646539044E+02 -0.97577265463E+02 -0.10642368055E+03  0.19249815749E+03  0.12509620023E+03 0.  0.
          5    1    3    3  502    0  0.23385683987E+02 -0.65563294282E+02  0.22394681863E+01  0.69770505161E+02  0.41800000000E+01 0. -1.
         -5    1    3    3    0  502 -0.47032223030E+02 -0.32013971180E+02 -0.10866314873E+03  0.12272765233E+03  0.41800000000E+01 0. -1.
        -11    1    1    2    0    0  0.13424898071E+02  0.49408347033E+02 -0.20398020805E+03  0.21030772197E+03  0.00000000000E+00 0.  1.
         11    1    1    2    0    0  0.10221640973E+02  0.48168918429E+02 -0.20187233361E+02  0.53218897373E+02  0.00000000000E+00 0. -1.
</event>
<event>
 7    1  0.3056346E-009  0.1424408E+03  0.7561462E-02  0.1210082E+00
         -2   -1    0    0    0  501 -0.00000000000E+00  0.00000000000E+00  0.12902813763E+02  0.12902813763E+02  0.00000000000E+00 0. -1.
          2   -1    0    0  501    0  0.00000000000E+00 -0.00000000000E+00 -0.18051370544E+04  0.18051370544E+04  0.00000000000E+00 0.  1.
         25    2    1    2    0    0 -0.10620082843E+03  0.41483781909E+02 -0.13572572823E+04  0.13677697049E+04  0.12508842960E+03 0.  0.
          5    1    3    3  502    0 -0.94469851938E+02 -0.27502446414E+02 -0.73197290725E+03  0.73856803805E+03  0.41800000000E+01 0. -1.
         -5    1    3    3    0  502 -0.11730976489E+02  0.68986228322E+02 -0.62528437508E+03  0.62920166690E+03  0.41800000000E+01 0. -1.
        -11    1    1    2    0    0  0.60097911987E+02 -0.35527677791E+02 -0.26779952863E+03  0.27674999991E+03  0.00000000000E+00 0.  1.
         11    1    1    2    0    0  0.46102916440E+02 -0.59561041177E+01 -0.16717742969E+03  0.17352016332E+03  0.00000000000E+00 0. -1.
</event>
<event>
 7    1  0.3056346E-009  0.1308214E+03  0.7561462E-02  0.1226242E+00
          3   -1    0    0  501    0  0.00000000000E+00  0.00000000000E+00  0.40898926641E+03  0.40898926641E+03  0.00000000000E+00 0. -1.
         -3   -1    0    0    0  501 -0.00000000000E+00 -0.00000000000E+00 -0.48012797089E+02  0.48012797089E+02  0.00000000000E+00 0.  1.
         25    2    1    2    0    0 -0.23957068687E+02  0.77331961106E+02  0.25553539609E+03  0.29580520505E+03  0.12509279489E+03 0.  0.
          5    1    3    3  502    0  0.23949004962E+02  0.94582951459E+02  0.15935764580E+03  0.18690056506E+03  0.41800000000E+01 0.  1.
         -5    1    3    3    0  502 -0.47906073649E+02 -0.17250990353E+02  0.96177750293E+02  0.10890463999E+03  0.41800000000E+01 0.  1.
        -11    1    1    2    0    0 -0.13314054469E+01 -0.86115822995E+02  0.49891877014E+02  0.99533446653E+02  0.00000000000E+00 0.  1.
         11    1    1    2    0    0  0.25288474134E+02  0.87838618887E+01  0.55549196216E+02  0.61663411793E+02  0.00000000000E+00 0. -1.
</event>
<event>
 7    1  0.3056346E-009  0.1784255E+03  0.7561462E-02  0.1169336E+00
          4   -1    0    0  501    0  0.00000000000E+00  0.00000000000E+00  0.48824024709E+03  0.48824024709E+03  0.00000000000E+00 0. -1.
         -4   -1    0    0    0  501 -0.00000000000E+00 -0.00000000000E+00 -0.89016785091E+02  0.89016785091E+02  0.00000000000E+00 0.  1.
         25    2    1    2    0    0 -0.12085711443E+03  0.11945262249E+03  0.27665367407E+03  0.34793659586E+03  0.12508896127E+03 0.  0.
          5    1    3    3  502    0 -0.35450072477E+02  0.21991202684E+01  0.26388111087E+00  0.35764309050E+02  0.41800000000E+01 0. -1.
         -5    1    3    3    0  502 -0.85407041952E+02  0.11725350222E+03  0.27638979296E+03  0.31217228681E+03  0.41800000000E+01 0. -1.
        -11    1    1    2    0    0  0.25370110975E+02 -0.55550414057E+02 -0.33985146131E+00  0.61070504598E+02  0.00000000000E+00 0.  1.
         11    1    1    2    0    0  0.95487003455E+02 -0.63902208432E+02  0.12290963939E+03  0.16824993172E+03  0.00000000000E+00 0. -1.
</event>
<event>
 7    1  0.3056346E-009  0.1213809E+03  0.7561462E-02  0.1240836E+00
          2   -1    0    0  501    0  0.00000000000E+00  0.00000000000E+00  0.11103487022E+04  0.11103487022E+04  0.00000000000E+00 0. -1.
         -2   -1    0    0    0  501 -0.00000000000E+00 -0.00000000000E+00 -0.14698618030E+02  0.14698618030E+02  0.00000000000E+00 0.  1.
         25    2    1    2    0    0 -0.65692300774E+02 -0.18819776491E+02  0.60042948505E+03  0.61711620951E+03  0.12508871714E+03 0.  0.
          5    1    3    3  502    0 -0.19413977205E+02 -0.63324807359E+02  0.42718746829E+03  0.43231185411E+03  0.41800000000E+01 0. -1.
         -5    1    3    3    0  502 -0.46278323569E+02  0.44505030868E+02  0.17324201676E+03  0.18480435540E+03  0.41800000000E+01 0. -1.
        -11    1    1    2    0    0 -0.14680852800E+02  0.27541047333E+02  0.11143757764E+03  0.11572540965E+03  0.00000000000E+00 0. -1.
         11    1    1    2    0    0  0.80373153574E+02 -0.87212708424E+01  0.38378302153E+03  0.39220570112E+03  0.00000000000E+00 0.  1.
</event>
<event>
 7    1  0.3056346E-009  0.1021977E+03  0.7561462E-02  0.1275741E+00
          2   -1    0    0  501    0  0.00000000000E+00  0.00000000000E+00  0.14671821781E+03  0.14671821781E+03  0.00000000000E+00 0. -1.
         -2   -1    0    0    0  501 -0.00000000000E+00 -0.00000000000E+00 -0.15983754886E+03  0.15983754886E+03  0.00000000000E+00 0.  1.
         25    2    1    2    0    0  0.76683483816E+02  0.84275983826E+01  0.68161351378E+02  0.16200220621E+03  0.12508942358E+03 0.  0.
          5    1    3    3  502    0 -0.78873038681E+01 -0.55046236550E+00  0.75971495418E+02  0.76496098509E+02  0.41800000000E+01 0. -1.
         -5    1    3    3    0  502  0.84570787684E+02  0.89780607481E+01 -0.78101440394E+01  0.85506107702E+02  0.41800000000E+01 0. -1.
        -11    1    1    2    0    0 -0.91682598498E+02  0.25469661519E+01 -0.85617124524E+02  0.12546903170E+03  0.00000000000E+00 0.  1.
         11    1    1    2    0    0  0.14999114681E+02 -0.10974564534E+02  0.43364421025E+01  0.19084528762E+02  0.00000000000E+00 0. -1.
</event>
<event>
 7    1  0.3056346E-009  0.1916148E+03  0.7561462E-02  0.1157013E+00
          2   -1    0    0  501    0  0.00000000000E+00  0.00000000000E+00  0.54042836087E+03  0.54042836087E+03  0.00000000000E+00 0. -1.
         -2   -1    0    0    0  501 -0.00000000000E+00 -0.00000000000E+00 -0.74179843017E+02  0.74179843017E+02  0.00000000000E+00 0.  1.
         25    2    1    2    0    0  0.69230298139E+02  0.15092993375E+03  0.21448298710E+03  0.29870361508E+03  0.12509284083E+03 0.  0.
          5    1    3    3  502    0  0.26830969854E+02  0.14839405197E+03  0.20576521164E+03  0.25514209830E+03  0.41800000000E+01 0. -1.
         -5    1    3    3    0  502  0.42399328285E+02  0.25358817763E+01  0.87177754623E+01  0.43561516783E+02  0.41800000000E+01 0. -1.
        -11    1    1    2    0    0 -0.57407001818E+02 -0.24016576593E+02  0.67023471443E+02  0.91457670719E+02  0.00000000000E+00 0.  1.
         11    1    1    2    0    0 -0.11823296321E+02 -0.12691335716E+03  0.18474205931E+03  0.22444691809E+03  0.00000000000E+00 0. -1.
</event>
<event>
 7    1  0.3056346E-009  0.1526933E+03  0.7561462E-02  0.1197202E+00
          2   -1    0    0  501    0  0.00000000000E+00  0.00000000000E+00  0.58456932741E+03  0.58456932741E+03  0.00000000000E+00 0. -1.
         -2   -1    0    0    0  501 -0.00000000000E+00 -0.00000000000E+00 -0.52132763496E+02  0.52132763496E+02  0.00000000000E+00 0.  1.
         25    2    1    2    0    0  0.87084099650E+02  0.93174133228E+02  0.23235661787E+03  0.29309094243E+03  0.12509053983E+03 0.  0.
          5    1    3    3  502    0  0.70539951472E+02  0.22794502464E+01  0.16242433563E+03  0.17714462411E+03  0.41800000000E+01 0.  1.
         -5    1    3    3    0  502  0.16544148178E+02  0.90894682982E+02  0.69932282234E+02  0.11594631832E+03  0.41800000000E+01 0.  1.
        -11    1    1    2    0    0 -0.32824951867E+02  0.17442719703E+01  0.17244921508E+03  0.17555412764E+03  0.00000000000E+00 0. -1.
         11    1    1    2    0    0 -0.54259147784E+02 -0.94918405198E+02  0.12763073097E+03  0.16805702083E+03  0.00000000000E+00 0.  1.
</event>
<event>
 7    1  0.3056346E-009  0.1291688E+03  0.7561462E-02  0.1228694E+00
          4   -1    0    0  501    0  0.00000000000E+00  0.00000000000E+00  0.22324440915E+02  0.22324440915E+02  0.00000000000E+00 0. -1.
         -4   -1    0    0    0  501 -0.00000000000E+00 -0.00000000000E+00 -0.10589447179E+04  0.10589447179E+04  0.00000000000E+00 0.  1.
         25    2    1    2    0    0 -0.29673067583E+02  0.95191300819E+02 -0.71957404053E+03  0.73714019604E+03  0.12508794553E+03 0.  0.
          5    1    3    3  502    0 -0.60930652231E+02  0.29767055173E+01 -0.32553456884E+03  0.33122746424E+03  0.41800000000E+01 0. -1.
         -5    1    3    3    0  502  0.31257584648E+02  0.92214595302E+02 -0.39403947169E+03  0.40591273180E+03  0.41800000000E+01 0. -1.
        -11    1    1    2    0    0  0.23814857453E+02 -0.73295338610E+02 -0.31136620178E+03  0.32076200789E+03  0.00000000000E+00 0.  1.
         11    1    1    2    0    0  0.58582101297E+01 -0.21895962209E+02 -0.56800346839E+01  0.23366954894E+02  0.00000000000E+00 0. -1.
</event>
<event>
 7    1  0.3465684E-009  0.1303361E+03  0.7561462E-02  0.1226958E+00
         -2   -1    0    0    0  501 -0.00000000000E+00  0.00000000000E+00  0.33128548763E+03  0.33128548763E+03  0.00000000000E+00 0.  1.
          2   -1    0    0  501    0  0.00000000000E+00 -0.00000000000E+00 -0.60782032044E+02  0.60782032044E+02  0.00000000000E+00 0. -1.
         25    2    1    2    0    0  0.26856907257E+02  0.85595742878E+02  0.12372130240E+03  0.19748799229E+03  0.12508645715E+03 0.  0.
          5    1    3    3  502    0  0.65827285137E+02  0.89971444723E+02  0.73343749692E+02  0.13350981370E+03  0.41800000000E+01 0. -1.
         -5    1    3    3    0  502 -0.38970377880E+02 -0.43757018451E+01  0.50377552712E+02  0.63978178593E+02  0.41800000000E+01 0. -1.
        -11    1    1    2    0    0 -0.46909707499E+02 -0.48302537777E+02  0.13462819585E+03  0.15052709700E+03  0.00000000000E+00 0.  1.
         11    1    1    2    0    0  0.20052800243E+02 -0.37293205101E+02  0.12153957334E+02  0.44052430389E+02  0.00000000000E+00 0. -1.
</event>
<event>
 7    1  0.3056346E-009  0.8829232E+02  0.7561462E-02  0.1307041E+00
          2   -1    0    0  501    0  0.00000000000E+00  0.00000000000E+00  0.58372363904E+03  0.58372363904E+03  0.00000000000E+00 0. -1.
         -2   -1    0    0    0  501 -0.00000000000E+00 -0.00000000000E+00 -0.25973289142E+02  0.25973289142E+02  0.00000000000E+00 0.  1.
         25    2    1    2    0    0  0.51124433421E+02  0.14709909751E+02  0.39598293381E+03  0.41866397906E+03  0.12508778658E+03 0.  0.
          5    1    3    3  502    0 -0.94396846668E+01  0.37196381661E+02  0.30249937939E+03  0.30495249694E+03  0.41800000000E+01 0.  1.
         -5    1    3    3    0  502  0.60564118088E+02 -0.22486471910E+02  0.93483554418E+02  0.11371148212E+03  0.41800000000E+01 0.  1.
        -11    1    1    2    0    0 -0.39894943283E+02  0.14107015581E+02  0.21630096956E+02  0.47523420357E+02  0.00000000000E+00 0.  1.
         11    1    1    2    0    0 -0.11229490138E+02 -0.28816925331E+02  0.14013731913E+03  0.14350952877E+03  0.00000000000E+00 0. -1.
</event>
<event>
 7    1  0.3056346E-009  0.1670748E+03  0.7561462E-02  0.1180933E+00
          2   -1    0    0  501    0  0.00000000000E+00  0.00000000000E+00  0.11747136859E+04  0.11747136859E+04  0.00000000000E+00 0. -1.
         -2   -1    0    0    0  501 -0.00000000000E+00 -0.00000000000E+00 -0.26486786080E+02  0.26486786080E+02  0.00000000000E+00 0.  1.
         25    2    1    2    0    0 -0.12043431359E+03 -0.66805928490E+02  0.66099400188E+03  0.68668029271E+03  0.12509715382E+03 0.  0.
          5    1    3    3  502    0 -0.37347012012E+02 -0.77234572566E+02  0.19320697007E+03  0.21143884267E+03  0.41800000000E+01 0. -1.
         -5    1    3    3    0  502 -0.83087301581E+02  0.10428644076E+02  0.46778703181E+03  0.47524145003E+03  0.41800000000E+01 0. -1.
        -11    1    1    2    0    0  0.91766849994E+02  0.54169678320E-01  0.29854127096E+03  0.31232682907E+03  0.00000000000E+00 0. -1.
         11    1    1    2    0    0  0.28667463600E+02  0.66751758811E+02  0.18869162696E+03  0.20219335018E+03  0.00000000000E+00 0.  1.
</event>
<event>
 7    1  0.3056346E-009  0.1496370E+03  0.7561462E-02  0.1200920E+00
         -2   -1    0    0    0  501 -0.00000000000E+00  0.00000000000E+00  0.45030107683E+02  0.45030107683E+02  0.00000000000E+00 0.  1.
          2   -1    0    0  501    0  0.00000000000E+00 -0.00000000000E+00 -0.61211496241E+03  0.61211496241E+03  0.00000000000E+00 0. -1.
         25    2    1    2    0    0 -0.93978656298E+02 -0.78325330366E+02 -0.35726117514E+03  0.39780648539E+03  0.12509039666E+03 0.  0.
          5    1    3    3  502    0 -0.10250625977E+03 -0.90114459742E+02 -0.35747443292E+03  0.38266642359E+03  0.41800000000E+01 0. -1.
         -5    1    3    3    0  502  0.85276034735E+01  0.11789129376E+02  0.21325778167E+00  0.15140061801E+02  0.41800000000E+01 0. -1.
        -11    1    1    2    0    0  0.80560063385E+01 -0.17267134913E+02 -0.54471884277E+02  0.57708226129E+02  0.00000000000E+00 0. -1.
         11    1    1    2    0    0  0.85922649960E+02  0.95592465279E+02 -0.15535179531E+03  0.20163035857E+03  0.00000000000E+00 0.  1.
</event>
<event>
 7    1  0.3056346E-009  0.1036860E+03  0.7561462E-02  0.1272730E+00
         -2   -1    0    0    0  501 -0.00000000000E+00  0.00000000000E+00  0.27526230569E+02  0.27526230569E+02  0.00000000000E+00 0.  1.
          2   -1    0    0  501    0  0.00000000000E+00 -0.00000000000E+00 -0.57558703645E+03  0.57558703645E+03  0.00000000000E+00 0. -1.
         25    2    1    2    0    0  0.35084630927E+02 -0.51649995841E+02 -0.33841609161E+03  0.36615854801E+03  0.12509187753E+03 0.  0.
          5    1    3    3  502    0 -0.13720204579E+02 -0.45792383577E+02 -0.36635554015E+02  0.60372366405E+02  0.41800000000E+01 0. -1.
         -5    1    3    3    0  502  0.48804835507E+02 -0.58576122642E+01 -0.30178053759E+03  0.30578618161E+03  0.41800000000E+01 0. -1.
        -11    1    1    2    0    0  0.27198267450E+02  0.37258428360E+02 -0.97744383865E+02  0.10808284236E+03  0.00000000000E+00 0. -1.
         11    1    1    2    0    0 -0.62282898378E+02  0.14391567481E+02 -0.11190033040E+03  0.12887187664E+03  0.00000000000E+00 0.  1.
</event>
<event>
 7    1  0.3056346E-009  0.1018762E+03  0.7561462E-02  0.1276399E+00
         -2   -1    0    0    0  501 -0.00000000000E+00  0.00000000000E+00  0.41067829649E+02  0.41067829649E+02  0.00000000000E+00 0. -1.
          2   -1    0    0  501    0  0.00000000000E+00 -0.00000000000E+00 -0.30747642686E+03  0.30747642686E+03  0.00000000000E+00 0.  1.
         25    2    1    2    0    0 -0.39279833550E+01 -0.26149320310E+02 -0.12747898985E+03  0.18054864942E+03  0.12509079082E+03 0.  0.
          5    1    3    3  502    0 -0.36530063576E+02 -0.59542105902E+02 -0.38214793020E+02  0.79734250643E+02  0.41800000000E+01 0. -1.
         -5    1    3    3    0  502  0.32602080221E+02  0.33392785592E+02 -0.89264196834E+02  0.10081439878E+03  0.41800000000E+01 0. -1.
        -11    1    1    2    0    0 -0.39435788668E+02  0.14485411295E+02 -0.34647234292E+02  0.54455848284E+02  0.00000000000E+00 0. -1.
         11    1    1    2    0    0  0.43363772023E+02  0.11663909015E+02 -0.10428237307E+03  0.11353975881E+03  0.00000000000E+00 0.  1.
</event>
<event>
 7    1  0.3056346E-009  0.9265491E+02  0.7561462E-02  0.1296547E+00
          2   -1    0    0  501    0  0.00000000000E+00  0.00000000000E+00  0.27052151805E+03  0.27052151805E+03  0.00000000000E+00 0. -1.
         -2   -1    0    0    0  501 -0.00000000000E+00 -0.00000000000E+00 -0.44969739851E+02  0.44969739851E+02  0.00000000000E+00 0.  1.
         25    2    1    2    0    0 -0.41518903690E+01 -0.11998688659E+01  0.15696229951E+03  0.20075625102E+03  0.12508889231E+03 0.  0.
          5    1    3    3  502    0 -0.56599013210E+01  0.46886203521E+02  0.14274994848E+03  0.15041732199E+03  0.41800000000E+01 0.  1.
         -5    1    3    3    0  502  0.15080109520E+01 -0.48086072387E+02  0.14212351032E+02  0.50338929036E+02  0.41800000000E+01 0.  1.
        -11    1    1    2    0    0  0.28501318085E+02  0.36756977723E+02  0.22610073244E+02  0.51716689338E+02  0.00000000000E+00 0.  1.
         11    1    1    2    0    0 -0.24349427716E+02 -0.35557108858E+02  0.45979405445E+02  0.63018317539E+02  0.00000000000E+00 0. -1.
</event>
<event>
 7    1  0.3056346E-009  0.2243499E+03  0.7561462E-02  0.1130681E+00
         -2   -1    0    0    0  501 -0.00000000000E+00  0.00000000000E+00  0.13416250413E+03  0.13416250413E+03  0.00000000000E+00 0. -1.
          2   -1    0    0  501    0  0.00000000000E+00 -0.00000000000E+00 -0.48772747376E+03  0.48772747376E+03  0.00000000000E+00 0.  1.
         25    2    1    2    0    0 -0.20368586926E+03  0.22008074741E+02 -0.50160357951E+02  0.24522592558E+03  0.12508958540E+03 0.  0.
          5    1    3    3  502    0  0.73041787936E+00 -0.23882681242E+02  0.11431929864E+02  0.26815618471E+02  0.41800000000E+01 0. -1.
         -5    1    3    3    0  502 -0.20441628714E+03  0.45890755982E+02 -0.61592287815E+02  0.21841030711E+03  0.41800000000E+01 0. -1.
        -11    1    1    2    0    0  0.76098360730E+02  0.23169500197E+02 -0.16448168268E+03  0.18270744424E+03  0.00000000000E+00 0.  1.
         11    1    1    2    0    0  0.12758750853E+03 -0.45177574938E+02 -0.13892292901E+03  0.19395660807E+03  0.00000000000E+00 0. -1.
</event>
<event>
 7    1  0.3056346E-009  0.1137429E+03  0.7561462E-02  0.1253792E+00
         -2   -1    0    0    0  501 -0.00000000000E+00  0.00000000000E+00  0.92774958751E+02  0.92774958751E+02  0.00000000000E+00 0.  1.
          2   -1    0    0  501    0  0.00000000000E+00 -0.00000000000E+00 -0.17425057640E+03  0.17425057640E+03  0.00000000000E+00 0. -1.
         25    2    1    2    0    0 -0.32953191188E+02 -0.53474378353E+02 -0.20327322219E+02  0.14144649591E+03  0.12509392163E+03 0.  0.
          5    1    3    3  502    0 -0.12992918630E+02  0.32978126039E+02  0.23160416157E+02  0.42547032895E+02  0.41800000000E+01 0. -1.
         -5    1    3    3    0  502 -0.19960272557E+02 -0.86452504392E+02 -0.43487738376E+02  0.98899463018E+02  0.41800000000E+01 0. -1.
        -11    1    1    2    0    0  0.83758320756E+01  0.71815899949E+02 -0.61484059536E+02  0.94910313589E+02  0.00000000000E+00 0. -1.
         11    1    1    2    0    0  0.24577359112E+02 -0.18341521597E+02  0.33576410633E+00  0.30668725649E+02  0.00000000000E+00 0.  1.
</event>
<event>
 7    1  0.3056346E-009  0.1199441E+03  0.7561462E-02  0.1243189E+00
          1   -1    0    0  501    0  0.00000000000E+00  0.00000000000E+00  0.33586298697E+03  0.33586298697E+03  0.00000000000E+00 0. -1.
         -1   -1    0    0    0  501 -0.00000000000E+00 -0.00000000000E+00 -0.58365594683E+02  0.58365594683E+02  0.00000000000E+00 0.  1.
         25    2    1    2    0    0 -0.55124071035E+02  0.56145887168E+02  0.91228127155E+02  0.17366765293E+03  0.12508740399E+03 0.  0.
          5    1    3    3  502    0 -0.62830442532E+02  0.77042785321E+02  0.23487360105E+02  0.10223690021E+03  0.41800000000E+01 0. -1.
         -5    1    3    3    0  502  0.77063714969E+01 -0.20896898153E+02  0.67740767050E+02  0.71430752723E+02  0.41800000000E+01 0. -1.
        -11    1    1    2    0    0 -0.37940159334E+01 -0.58631300740E+02  0.84016384154E+02  0.10252207952E+03  0.00000000000E+00 0.  1.
         11    1    1    2    0    0  0.58918086969E+02  0.24854135716E+01  0.10225288097E+03  0.11803884920E+03  0.00000000000E+00 0. -1.
</event>
<event>
 7    1  0.3056346E-009  0.1448646E+03  0.7561462E-02  0.1206929E+00
          2   -1    0    0  501    0  0.00000000000E+00  0.00000000000E+00  0.19751808068E+04  0.19751808068E+04  0.00000000000E+00 0. -1.
         -2   -1    0    0    0  501 -0.00000000000E+00 -0.00000000000E+00 -0.15539983816E+02  0.15539983816E+02  0.00000000000E+00 0.  1.
         25    2    1    2    0    0 -0.79760519605E+01 -0.12979034235E+03  0.12905851202E+04  0.13031371795E+04  0.12508959078E+03 0.  0.
          5    1    3    3  502    0  0.70105158155E+01 -0.17176712681E+02  0.20455323807E+02  0.27929902659E+02  0.41800000000E+01 0. -1.
         -5    1    3    3    0  502 -0.14986567776E+02 -0.11261362967E+03  0.12701297964E+04  0.12752072769E+04  0.41800000000E+01 0. -1.
        -11    1    1    2    0    0  0.45868721511E+02  0.95411381894E+02  0.49333025120E+03  0.50456120357E+03  0.00000000000E+00 0.  1.
         11    1    1    2    0    0 -0.37892669551E+02  0.34378960457E+02  0.17572545149E+03  0.18302240746E+03  0.00000000000E+00 0. -1.
</event>
<event>
 7    1  0.3056346E-009  0.2018139E+03  0.7561462E-02  0.1148218E+00
         -1   -1    0    0    0  501 -0.00000000000E+00  0.00000000000E+00  0.11303702238E+03  0.11303702238E+03  0.00000000000E+00 0.  1.
          1   -1    0    0  501    0  0.00000000000E+00 -0.00000000000E+00 -0.49156150064E+03  0.49156150064E+03  0.00000000000E+00 0. -1.
         25    2    1    2    0    0 -0.84791946964E+02  0.17226687602E+03 -0.91945804644E+02  0.24691409987E+03  0.12508793260E+03 0.  0.
          5    1    3    3  502    0 -0.69353098040E+01  0.13746185575E+02 -0.66555707048E+02  0.68441147569E+02  0.41800000000E+01 0.  1.
         -5    1    3    3    0  502 -0.77856637160E+02  0.15852069044E+03 -0.25390097596E+02  0.17847295231E+03  0.41800000000E+01 0.  1.
        -11    1    1    2    0    0  0.50431344632E+02 -0.18914680189E+02 -0.48900305335E+02  0.72748371184E+02  0.00000000000E+00 0.  1.
         11    1    1    2    0    0  0.34360602332E+02 -0.15335219583E+03 -0.23767836829E+03  0.28493605197E+03  0.00000000000E+00 0. -1.
</event>
<event>
 7    1  0.3056346E-009  0.7898615E+02  0.7561462E-02  0.1331953E+00
          1   -1    0    0  501    0  0.00000000000E+00  0.00000000000E+00  0.82791949182E+02  0.82791949182E+02  0.00000000000E+00 0. -1.
         -1   -1    0    0    0  501 -0.00000000000E+00 -0.00000000000E+00 -0.18035674598E+03  0.18035674598E+03  0.00000000000E+00 0.  1.
         25    2    1    2    0    0  0.46460818715E+02  0.25376288842E+02 -0.34176189281E+02  0.14005611430E+03  0.12508053217E+03 0.  0.
          5    1    3    3  502    0 -0.84355580102E+01  0.45178023391E+02 -0.60340005407E+02  0.75964472545E+02  0.41800000000E+01 0.  1.
         -5    1    3    3    0  502  0.54896376725E+02 -0.19801734549E+02  0.26163816126E+02  0.64091641756E+02  0.41800000000E+01 0.  1.
        -11    1    1    2    0    0 -0.32726338857E+02 -0.21067975489E+02  0.16239877422E+02  0.42173528010E+02  0.00000000000E+00 0. -1.
         11    1    1    2    0    0 -0.13734479858E+02 -0.43083133536E+01 -0.79628484942E+02  0.80919052856E+02  0.00000000000E+00 0.  1.
</event>
<event>
 7    1  0.3056346E-009  0.1349773E+03  0.7561462E-02  0.1220252E+00
          1   -1    0    0  501    0  0.00000000000E+00  0.00000000000E+00  0.94409983237E+03  0.94409983237E+03  0.00000000000E+00 0. -1.
         -1   -1    0    0    0  501 -0.00000000000E+00 -0.00000000000E+00 -0.19549204076E+02  0.19549204076E+02  0.00000000000E+00 0.  1.
         25    2    1    2    0    0  0.35994629130E+02  0.73808923783E+02  0.48611270974E+03  0.50862367807E+03  0.12509639787E+03 0.  0.
          5    1    3    3  502    0 -0.21650362259E+02 -0.25256416581E+02  0.83099846829E+02  0.89608491269E+02  0.41800000000E+01 0.  1.
         -5    1    3    3    0  502  0.57644991389E+02  0.99065340364E+02  0.40301286291E+03  0.41901518680E+03  0.41800000000E+01 0.  1.
        -11    1    1    2    0    0  0.18011932307E+02  0.11061950358E+02  0.74762246370E+02  0.77692920742E+02  0.00000000000E+00 0.  1.
         11    1    1    2    0    0 -0.54006561437E+02 -0.84870874141E+02  0.36367567218E+03  0.37733243763E+03  0.00000000000E+00 0. -1.
</event>
<event>
 6    1  0.3056346E-009  0.1082351E+03  0.7561462E-02  0.1263874E+00
          4   -1    0    0  501    0  0.00000000000E+00  0.00000000000E+00  0.83291302304E+02  0.83291302304E+02  0.00000000000E+00 0.  1.
         -4   -1    0    0    0  501 -0.00000000000E+00 -0.00000000000E+00 -0.16684191155E+03  0.16684191155E+03  0.00000000000E+00 0. -1.
          5    1    1    2  502    0  0.72512835172E+02  0.36804711028E+02  0.10481463594E+02  0.82097694837E+02  0.41800000000E+01 0.  1.
         -5    1    1    2    0  502 -0.29416652234E+02 -0.26534688452E+02 -0.34413779403E+02  0.52642280846E+02  0.41800000000E+01 0.  1.
        -11    1    1    2    0    0  0.49612542031E+01  0.31285201286E+02 -0.59569796355E+01  0.32231405014E+02  0.00000000000E+00 0.  1.
         11    1    1    2    0    0 -0.48057437141E+02 -0.41555223862E+02 -0.53661313796E+02  0.83161833152E+02  0.00000000000E+00 0. -1.
</event>
<event>
 6    1  0.3056346E-009  0.1967380E+03  0.7561462E-02  0.1152521E+00
         -2   -1    0    0    0  501 -0.00000000000E+00  0.00000000000E+00  0.41512982076E+02  0.41512982076E+02  0.00000000000E+00 0.  1.
          2   -1    0    0  501    0  0.00000000000E+00 -0.00000000000E+00 -0.12784934341E+04  0.12784934341E+04  0.00000000000E+00 0. -1.
          5    1    1    2  502    0 -0.81496128722E+02 -0.38070466205E+02 -0.20697265276E+03  0.22571249586E+03  0.41800000000E+01 0. -1.
         -5    1    1    2    0  502 -0.10210061512E+03  0.33962983360E+02 -0.69185015142E+03  0.70018006560E+03  0.41800000000E+01 0. -1.
        -11    1    1    2    0    0  0.12603811922E+03 -0.29019798804E+02 -0.26761038444E+03  0.29722562823E+03  0.00000000000E+00 0.  1.
         11    1    1    2    0    0  0.57558624626E+02  0.33127281650E+02 -0.70547263410E+02  0.96888226493E+02  0.00000000000E+00 0. -1.
</event>
<event>
 7    1  0.3056346E-009  0.2011786E+03  0.7561462E-02  0.1148748E+00
          3   -1    0    0  501    0  0.00000000000E+00  0.00000000000E+00  0.37196849629E+03  0.37196849629E+03  0.00000000000E+00 0. -1.
         -3   -1    0    0    0  501 -0.00000000000E+00 -0.00000000000E+00 -0.11491934827E+03  0.11491934827E+03  0.00000000000E+00 0.  1.
         25    2    1    2    0    0 -0.42013249509E+02 -0.16453631940E+03  0.86938293667E+02  0.22812913102E+03  0.12508924805E+03 0.  0.
          5    1    3    3  502    0  0.31738214219E+02 -0.51376989267E+01  0.27951909938E+02  0.42807614524E+02  0.41800000000E+01 0. -1.
         -5    1    3    3    0  502 -0.73751463728E+02 -0.15939862048E+03  0.58986383729E+02  0.18532151650E+03  0.41800000000E+01 0. -1.
        -11    1    1    2    0    0 -0.30221644891E+02  0.38042427322E+02  0.52574310061E+02  0.71586536268E+02  0.00000000000E+00 0. -1.
         11    1    1    2    0    0  0.72234894400E+02  0.12649389208E+03  0.11753654429E+03  0.18717217728E+03  0.00000000000E+00 0.  1.
</event>
<event>
 7    1  0.3056346E-009  0.1066231E+03  0.7561462E-02  0.1266954E+00
         -2   -1    0    0    0  501 -0.00000000000E+00  0.00000000000E+00  0.23363081214E+03  0.23363081214E+03  0.00000000000E+00 0.  1.
          2   -1    0    0  501    0  0.00000000000E+00 -0.00000000000E+00 -0.53273326415E+02  0.53273326415E+02  0.00000000000E+00 0. -1.
         25    2    1    2    0    0 -0.31746011456E+01  0.40901011948E+00  0.14005855960E+03  0.18779901750E+03  0.12506728378E+03 0.  0.
          5    1    3    3  502    0  0.59346914680E+02  0.61578882865E+01  0.50126919023E+02  0.78039453361E+02  0.41800000000E+01 0. -1.
         -5    1    3    3    0  502 -0.62521515826E+02 -0.57488781670E+01  0.89931640582E+02  0.10975956413E+03  0.41800000000E+01 0. -1.
        -11    1    1    2    0    0 -0.31277194541E+02  0.30893118736E+02  0.18266012048E+02  0.47605618153E+02  0.00000000000E+00 0.  1.
         11    1    1    2    0    0  0.34451795687E+02 -0.31302128855E+02  0.22032914070E+02  0.51499502904E+02  0.00000000000E+00 0. -1.
</event>
<event>
 7    1  0.3056346E-009  0.2774302E+03  0.7561462E-02  0.1097101E+00
         -2   -1    0    0    0  501 -0.00000000000E+00  0.00000000000E+00  0.34030685871E+02  0.34030685871E+02  0.00000000000E+00 0.  1.
          2   -1    0    0  501    0  0.00000000000E+00 -0.00000000000E+00 -0.28518503305E+04  0.28518503305E+04  0.00000000000E+00 0. -1.
         25    2    1    2    0    0 -0.27336537108E+03  0.32058407063E+02 -0.18923469590E+04  0.19163458269E+04  0.12509175657E+03 0.  0.
          5    1    3    3  502    0 -0.21639642057E+03  0.40772500217E+02 -0.10962931341E+04  0.11181976194E+04  0.41800000000E+01 0.  1.
         -5    1    3    3    0  502 -0.56968950514E+02 -0.87140931540E+01 -0.79605382486E+03  0.79814820755E+03  0.41800000000E+01 0.  1.
        -11    1    1    2    0    0  0.19164306032E+03 -0.36091819019E+02 -0.50852658430E+03  0.54463654753E+03  0.00000000000E+00 0.  1.
         11    1    1    2    0    0  0.81722310767E+02  0.40334119559E+01 -0.41694610137E+03  0.42489864196E+03  0.00000000000E+00 0. -1.
</event>
<event>
 7    1  0.3056346E-009  0.3163337E+03  0.7561462E-02  0.1077349E+00
          2   -1    0    0  501    0  0.00000000000E+00  0.00000000000E+00  0.21668043309E+04  0.21668043309E+04  0.00000000000E+00 0. -1.
         -2   -1    0    0    0  501 -0.00000000000E+00 -0.00000000000E+00 -0.51008134120E+02  0.51008134120E+02  0.00000000000E+00 0.  1.
         25    2    1    2    0    0  0.21829403168E+03  0.21640038501E+03  0.12875997005E+04  0.13296774931E+04  0.12509131062E+03 0.  0.
          5    1    3    3  502    0  0.16175607524E+02  0.49506645603E+02  0.42283458823E+03  0.42605060690E+03  0.41800000000E+01 0.  1.
         -5    1    3    3    0  502  0.20211842416E+03  0.16689373940E+03  0.86476511226E+03  0.90362688618E+03  0.41800000000E+01 0.  1.
        -11    1    1    2    0    0 -0.79660677977E+02 -0.13708025798E+03  0.46762967031E+03  0.49377558597E+03  0.00000000000E+00 0. -1.
         11    1    1    2    0    0 -0.13863335370E+03 -0.79320127023E+02  0.36056682600E+03  0.39435938599E+03  0.00000000000E+00 0.  1.
</event>
<event>
 7    1  0.3056346E-009  0.1381950E+03  0.7561462E-02  0.1215779E+00
         -1   -1    0    0    0  501 -0.00000000000E+00  0.00000000000E+00  0.26156764362E+02  0.26156764362E+02  0.00000000000E+00 0.  1.
          1   -1    0    0  501    0  0.00000000000E+00 -0.00000000000E+00 -0.81745518214E+03  0.81745518214E+03  0.00000000000E+00 0. -1.
         25    2    1    2    0    0  0.95826142384E+02 -0.64721014966E+00 -0.38319451832E+03  0.41432937332E+03  0.12509085611E+03 0.  0.
          5    1    3    3  502    0  0.23741381160E+02  0.49669728059E+02 -0.23986116449E+03  0.24613326816E+03  0.41800000000E+01 0.  1.
         -5    1    3    3    0  502  0.72084761224E+02 -0.50316938209E+02 -0.14333335383E+03  0.16819610516E+03  0.41800000000E+01 0.  1.
        -11    1    1    2    0    0 -0.80416980565E+02  0.40791333262E+02 -0.27562167823E+03  0.28999678127E+03  0.00000000000E+00 0. -1.
         11    1    1    2    0    0 -0.15409161819E+02 -0.40144123112E+02 -0.13248222122E+03  0.13928579191E+03  0.00000000000E+00 0.  1.
</event>
<event>
 7    1  0.3056346E-009  0.1012712E+03  0.7561462E-02  0.1277645E+00
          1   -1    0    0  501    0  0.00000000000E+00  0.00000000000E+00  0.37024014488E+03  0.37024014488E+03  0.00000000000E+00 0. -1.
         -1   -1    0    0    0  501 -0.00000000000E+00 -0.00000000000E+00 -0.39875269432E+02  0.39875269432E+02  0.00000000000E+00 0.  1.
         25    2    1    2    0    0  0.51397704918E+01 -0.45299814165E+02  0.13578726745E+03  0.19016883129E+03  0.12509001555E+03 0.  0.
          5    1    3    3  502    0 -0.18000668906E+02  0.22107078725E+02  0.11087260102E+03  0.11455545848E+03  0.41800000000E+01 0.  1.
         -5    1    3    3    0  502  0.23140439398E+02 -0.67406892890E+02  0.24914666428E+02  0.75613372811E+02  0.41800000000E+01 0.  1.
        -11    1    1    2    0    0 -0.45045930823E+02  0.43143422301E+02  0.11164713692E+03  0.12788891255E+03  0.00000000000E+00 0. -1.
         11    1    1    2    0    0  0.39906160332E+02  0.21563918638E+01  0.82930471077E+02  0.92057670464E+02  0.00000000000E+00 0.  1.
</event>
<event>
 7    1  0.3056346E-009  0.2142568E+03  0.7561462E-02  0.1138239E+00
          2   -1    0    0  501    0  0.00000000000E+00  0.00000000000E+00  0.93843980981E+03  0.93843980981E+03  0.00000000000E+00 0. -1.
         -2   -1    0    0    0  501 -0.00000000000E+00 -0.00000000000E+00 -0.55361954536E+02  0.55361954536E+02  0.00000000000E+00 0.  1.
         25    2    1    2    0    0  0.78324484651E+02  0.18216425973E+03  0.41230352984E+03  0.47430403523E+03  0.12510625364E+03 0.  0.
          5    1    3    3  502    0  0.21236515234E+02 -0.11916613793E+02  0.16303228752E+02  0.29601738653E+02  0.41800000000E+01 0. -1.
         -5    1    3    3    0  502  0.57087969418E+02  0.19408087352E+03  0.39600030109E+03  0.44470229658E+03  0.41800000000E+01 0. -1.
        -11    1    1    2    0    0 -0.32490651042E+02 -0.11940196612E+03  0.38184384022E+03  0.40139405854E+03  0.00000000000E+00 0. -1.
         11    1    1    2    0    0 -0.45833833609E+02 -0.62762293614E+02  0.88930485222E+02  0.11810367058E+03  0.00000000000E+00 0.  1.
</event>
<event>
 7    1  0.3056346E-009  0.1001360E+03  0.7561462E-02  0.1280010E+00
         -1   -1    0    0    0  501 -0.00000000000E+00  0.00000000000E+00  0.25105076324E+02  0.25105076324E+02  0.00000000000E+00 0.  1.
          1   -1    0    0  501    0  0.00000000000E+00 -0.00000000000E+00 -0.51212876710E+03  0.51212876710E+03  0.00000000000E+00 0. -1.
         25    2    1    2    0    0 -0.10276971047E+00  0.18762010552E+02 -0.34303645690E+03  0.36561435302E+03  0.12509124976E+03 0.  0.
          5    1    3    3  502    0 -0.40562359953E+02 -0.24716293478E+02 -0.25445013427E+03  0.25887939941E+03  0.41800000000E+01 0.  1.
         -5    1    3    3    0  502  0.40459590242E+02  0.43478304031E+02 -0.88586322634E+02  0.10673495361E+03  0.41800000000E+01 0.  1.
        -11    1    1    2    0    0 -0.17764037990E+02 -0.52199365274E+02 -0.78088021190E+02  0.95593272954E+02  0.00000000000E+00 0.  1.
         11    1    1    2    0    0  0.17866807700E+02  0.33437354721E+02 -0.65899212679E+02  0.76026217451E+02  0.00000000000E+00 0. -1.
</event>
<event>
 7    1  0.3056346E-009  0.1072093E+03  0.7561462E-02  0.1265827E+00
          1   -1    0    0  501    0  0.00000000000E+00  0.00000000000E+00  0.11459803439E+03  0.11459803439E+03  0.00000000000E+00 0. -1.
         -1   -1    0    0    0  501 -0.00000000000E+00 -0.00000000000E+00 -0.17825585569E+03  0.17825585569E+03  0.00000000000E+00 0.  1.
         25    2    1    2    0    0 -0.68792741239E+02 -0.19108952920E+02 -0.95890932825E+02  0.17303198656E+03  0.12508958408E+03 0.  0.
          5    1    3    3  502    0 -0.93816615170E+02 -0.17093001091E+02 -0.10859872926E+03  0.14458521489E+03  0.41800000000E+01 0.  1.
         -5    1    3    3    0  502  0.25023873931E+02 -0.20159518298E+01  0.12707796433E+02  0.28446771671E+02  0.41800000000E+01 0.  1.
        -11    1    1    2    0    0  0.23369988500E+02  0.37764705507E+02  0.50663032564E+02  0.67372636976E+02  0.00000000000E+00 0. -1.
         11    1    1    2    0    0  0.45422752739E+02 -0.18655752587E+02 -0.18429921048E+02  0.52449266542E+02  0.00000000000E+00 0.  1.
</event>
<event>
 7    1  0.3056346E-009  0.1065663E+03  0.7561462E-02  0.1267064E+00
         -4   -1    0    0    0  501 -0.00000000000E+00  0.00000000000E+00  0.62220056592E+02  0.62220056592E+02  0.00000000000E+00 0.  1.
          4   -1    0    0  501    0  0.00000000000E+00 -0.00000000000E+00 -0.18639458365E+03  0.18639458365E+03  0.00000000000E+00 0. -1.
         25    2    1    2    0    0 -0.45070594261E+01  0.63950918818E+00 -0.67023910579E+02  0.14199149652E+03  0.12509459596E+03 0.  0.
          5    1    3    3  502    0  0.40592468547E+02  0.44528495101E+02 -0.44498317629E+02  0.75020717475E+02  0.41800000000E+01 0.  1.
         -5    1    3    3    0  502 -0.45099527973E+02 -0.43888985913E+02 -0.22525592950E+02  0.66970779043E+02  0.41800000000E+01 0.  1.
        -11    1    1    2    0    0 -0.13369043056E+02 -0.42283301477E+02 -0.23585642885E+02  0.50228392830E+02  0.00000000000E+00 0.  1.
         11    1    1    2    0    0  0.17876102482E+02  0.41643792288E+02 -0.33564973598E+02  0.56394750897E+02  0.00000000000E+00 0. -1.
</event>
<event>
 7    1  0.3056346E-009  0.1556522E+03  0.7561462E-02  0.1193695E+00
         -1   -1    0    0    0  501 -0.00000000000E+00  0.00000000000E+00  0.23780830645E+02  0.23780830645E+02  0.00000000000E+00 0.  1.
          1   -1    0    0  501    0  0.00000000000E+00 -0.00000000000E+00 -0.11162726786E+04  0.11162726786E+04  0.00000000000E+00 0. -1.
         25    2    1    2    0    0 -0.38668090193E+02 -0.10991074515E+03 -0.46526748560E+03  0.49567789921E+03  0.12508858265E+03 0.  0.
          5    1    3    3  502    0 -0.58541746373E+02 -0.12600801320E+03 -0.43002184885E+03  0.45193076721E+03  0.41800000000E+01 0. -1.
         -5    1    3    3    0  502  0.19873656181E+02  0.16097268048E+02 -0.35245636753E+02  0.43747132006E+02  0.41800000000E+01 0. -1.
        -11    1    1    2    0    0  0.56633686140E+02  0.29239069855E+02 -0.31604986017E+03  0.32241248693E+03  0.00000000000E+00 0. -1.
         11    1    1    2    0    0 -0.17965595948E+02  0.80671675296E+02 -0.31117450214E+03  0.32196312307E+03  0.00000000000E+00 0.  1.
</event>
<event>
 7    1  0.3056346E-009  0.8721571E+02  0.7561462E-02  0.1309738E+00
          4   -1    0    0  501    0  0.00000000000E+00  0.00000000000E+00  0.14298497914E+03  0.14298497914E+03  0.00000000000E+00 0.  1.
         -4   -1    0    0    0  501 -0.00000000000E+00 -0.00000000000E+00 -0.15611308904E+03  0.15611308904E+03  0.00000000000E+00 0. -1.
         25    2    1    2    0    0 -0.11548665094E+02  0.69779373842E+02 -0.80106201305E+02  0.16452159397E+03  0.12509124156E+03 0.  0.
          5    1    3    3  502    0  0.13354123850E+02  0.38687944962E+02  0.27645358083E+02  0.49566399231E+02  0.41800000000E+01 0.  1.
         -5    1    3    3    0  502 -0.24902788944E+02  0.31091428880E+02 -0.10775155939E+03  0.11495519474E+03  0.41800000000E+01 0.  1.
        -11    1    1    2    0    0  0.30923879820E+02 -0.66830900948E+02  0.81756430786E+02  0.11003076679E+03  0.00000000000E+00 0. -1.
         11    1    1    2    0    0 -0.19375214726E+02 -0.29484728938E+01 -0.14778339385E+02  0.24545707427E+02  0.00000000000E+00 0.  1.
</event>
<event>
 7    1  0.3056346E-009  0.1094034E+03  0.7561462E-02  0.1261679E+00
          2   -1    0    0  501    0  0.00000000000E+00  0.00000000000E+00  0.84247008252E+02  0.84247008252E+02  0.00000000000E+00 0. -1.
         -2   -1    0    0    0  501 -0.00000000000E+00 -0.00000000000E+00 -0.32320707950E+03  0.32320707950E+03  0.00000000000E+00 0.  1.
         25    2    1    2    0    0 -0.74068640356E+02 -0.12949456266E+02 -0.75582563004E+01  0.14614582543E+03  0.12509045987E+03 0.  0.
          5    1    3    3  502    0 -0.99070297535E+02  0.20118212574E+02  0.84041255237E+01  0.10152717891E+03  0.41800000000E+01 0.  1.
         -5    1    3    3    0  502  0.25001657179E+02 -0.33067668840E+02 -0.15962381824E+02  0.44618646524E+02  0.41800000000E+01 0.  1.
        -11    1    1    2    0    0  0.50741339442E+02  0.37263195070E+01 -0.23066873379E+03  0.23621311084E+03  0.00000000000E+00 0.  1.
         11    1    1    2    0    0  0.23327300914E+02  0.92231367590E+01 -0.73308115461E+00  0.25095151476E+02  0.00000000000E+00 0. -1.
</event>
<event>
 7    1  0.3056346E-009  0.1272334E+03  0.7561462E-02  0.1231620E+00
          1   -1    0    0  501    0  0.00000000000E+00  0.00000000000E+00  0.24205505461E+03  0.24205505461E+03  0.00000000000E+00 0. -1.
         -1   -1    0    0    0  501 -0.00000000000E+00 -0.00000000000E+00 -0.70772669462E+02  0.70772669462E+02  0.00000000000E+00 0.  1.
         25    2    1    2    0    0  0.67597589102E+02  0.14911834465E+02  0.12608446272E+03  0.19062318933E+03  0.12509241268E+03 0.  0.
          5    1    3    3  502    0 -0.76984503648E+01 -0.44327851266E+02  0.26549654345E+02  0.52407834164E+02  0.41800000000E+01 0. -1.
         -5    1    3    3    0  502  0.75296039467E+02  0.59239685731E+02  0.99534808372E+02  0.13821535516E+03  0.41800000000E+01 0. -1.
        -11    1    1    2    0    0 -0.81423031843E+02 -0.35303922339E+02  0.32710289810E+02  0.94583508639E+02  0.00000000000E+00 0.  1.
         11    1    1    2    0    0  0.13825442741E+02  0.20392087874E+02  0.12487632626E+02  0.27621026111E+02  0.00000000000E+00 0. -1.
</event>
<event>
 7    1  0.3056346E-009  0.2605089E+03  0.7561462E-02  0.1106838E+00
          1   -1    0    0  501    0  0.00000000000E+00  0.00000000000E+00  0.56987734813E+03  0.56987734813E+03  0.00000000000E+00 0. -1.
         -1   -1    0    0    0  501 -0.00000000000E+00 -0.00000000000E+00 -0.14147911386E+03  0.14147911386E+03  0.00000000000E+00 0.  1.
         25    2    1    2    0    0 -0.13304888720E+03  0.21891852599E+03  0.14907239204E+03  0.32170724579E+03  0.12508255881E+03 0.  0.
          5    1    3    3  502    0 -0.73064788886E+02  0.59098352216E+02  0.11327055858E+03  0.14723712321E+03  0.41800000000E+01 0.  1.
         -5    1    3    3    0  502 -0.59984098316E+02  0.15982017377E+03  0.35801833465E+02  0.17447012258E+03  0.41800000000E+01 0.  1.
        -11    1    1    2    0    0  0.94328949906E+02 -0.15764544646E+03  0.25272131134E+03  0.31243895209E+03  0.00000000000E+00 0. -1.
         11    1    1    2    0    0  0.38719937296E+02 -0.61273079527E+02  0.26604530886E+02  0.77210264101E+02  0.00000000000E+00 0.  1.
</event>
<event>
 7    1  0.3056346E-009  0.1116328E+03  0.7561462E-02  0.1257576E+00
          2   -1    0    0  501    0  0.00000000000E+00  0.00000000000E+00  0.13425473164E+03  0.13425473164E+03  0.00000000000E+00 0. -1.
         -2   -1    0    0    0  501 -0.00000000000E+00 -0.00000000000E+00 -0.13769278547E+03  0.13769278547E+03  0.00000000000E+00 0.  1.
         25    2    1    2    0    0 -0.32860195925E+02  0.35170551229E+02  0.65582282630E+02  0.14921335151E+03  0.12508728283E+03 0.  0.
          5    1    3    3  502    0 -0.44476166746E+02 -0.32436032383E+02  0.57998034326E+02  0.80071655352E+02  0.41800000000E+01 0.  1.
         -5    1    3    3    0  502  0.11615970821E+02  0.67606583612E+02  0.75842483036E+01  0.69141696162E+02  0.41800000000E+01 0.  1.
        -11    1    1    2    0    0 -0.13882371315E+02 -0.48727413834E+02 -0.22603982164E+02  0.55479916203E+02  0.00000000000E+00 0. -1.
         11    1    1    2    0    0  0.46742567239E+02  0.13556862605E+02 -0.46416354290E+02  0.67254249393E+02  0.00000000000E+00 0.  1.
</event>
<event>
 6    1  0.3056346E-009  0.1146871E+03  0.7561462E-02  0.1252128E+00
          1   -1    0    0  501    0  0.00000000000E+00  0.00000000000E+00  0.49857413438E+02  0.49857413438E+02  0.00000000000E+00 0. -1.
         -1   -1    0    0    0  501 -0.00000000000E+00 -0.00000000000E+00 -0.30367146818E+03  0.30367146818E+03  0.00000000000E+00 0.  1.
          5    1    1    2  502    0 -0.48091802730E+02 -0.18175179434E+02 -0.11292185673E+03  0.12414498284E+03  0.41800000000E+01 0. -1.
         -5    1    1    2    0  502  0.65121145974E+02 -0.35358095350E+02 -0.53160334273E+02  0.91293220448E+02  0.41800000000E+01 0. -1.
        -11    1    1    2    0    0 -0.52312615085E+02  0.23971056359E+02 -0.32123307490E+02  0.65902413644E+02  0.00000000000E+00 0. -1.
         11    1    1    2    0    0  0.35283271842E+02  0.29562218425E+02 -0.55608556243E+02  0.72188264680E+02  0.00000000000E+00 0.  1.
</event>
<event>
 7    1  0.3056346E-009  0.1086876E+03  0.7561462E-02  0.1263020E+00
          2   -1    0    0  501    0  0.00000000000E+00  0.00000000000E+00  0.73160485305E+02  0.73160485305E+02  0.00000000000E+00 0. -1.
         -2   -1    0    0    0  501 -0.00000000000E+00 -0.00000000000E+00 -0.18149244132E+03  0.18149244132E+03  0.00000000000E+00 0.  1.
         25    2    1    2    0    0  0.47558039469E+00  0.34229765334E+02 -0.76516512875E+02  0.15058804951E+03  0.12510028337E+03 0.  0.
          5    1    3    3  502    0 -0.40051530494E+02  0.65123651206E+02 -0.58563962699E+02  0.96397225937E+02  0.41800000000E+01 0.  1.
         -5    1    3    3    0  502  0.40527110889E+02 -0.30893885872E+02 -0.17952550176E+02  0.54190823569E+02  0.41800000000E+01 0.  1.
        -11    1    1    2    0    0  0.37102378438E+02  0.24252471496E+01  0.81790646686E+01  0.38070532021E+02  0.00000000000E+00 0. -1.
         11    1    1    2    0    0 -0.37577958833E+02 -0.36655012483E+02 -0.39994507809E+02  0.65994345099E+02  0.00000000000E+00 0.  1.
</event>
<event>
 7    1  0.3056346E-009  0.1528051E+03  0.7561462E-02  0.1197068E+00
         -2   -1    0    0    0  501 -0.00000000000E+00  0.00000000000E+00  0.60701661680E+02  0.60701661680E+02  0.00000000000E+00 0.  1.
          2   -1    0    0  501    0  0.00000000000E+00 -0.00000000000E+00 -0.43620069565E+03  0.43620069565E+03  0.00000000000E+00 0. -1.
         25    2    1    2    0    0  0.11829516462E+03  0.12072309300E+02 -0.22373538140E+03  0.28256731916E+03  0.12508909762E+03 0.  0.
          5    1    3    3  502    0  0.32028823416E+02 -0.42184905860E+02 -0.14279055673E+03  0.15235493856E+03  0.41800000000E+01 0. -1.
         -5    1    3    3    0  502  0.86266341199E+02  0.54257215160E+02 -0.80944824671E+02  0.13021238060E+03  0.41800000000E+01 0. -1.
        -11    1    1    2    0    0 -0.13091234673E+03  0.28480127154E+01 -0.13917431485E+03  0.19109066858E+03  0.00000000000E+00 0. -1.
         11    1    1    2    0    0  0.12617182119E+02 -0.14920322016E+02 -0.12589337725E+02  0.23244369599E+02  0.00000000000E+00 0.  1.
</event>
<event>
 7    1  0.3056346E-009  0.1252058E+03  0.7561462E-02  0.1234748E+00
          1   -1    0    0  501    0  0.00000000000E+00  0.00000000000E+00  0.33172147868E+03  0.33172147868E+03  0.00000000000E+00 0. -1.
         -1   -1    0    0    0  501 -0.00000000000E+00 -0.00000000000E+00 -0.99412103113E+02  0.99412103113E+02  0.00000000000E+00 0.  1.
         25    2    1    2    0    0 -0.36214127016E+02  0.55351167935E+02  0.27668932208E+03  0.31077312074E+03  0.12509091426E+03 0.  0.
          5    1    3    3  502    0 -0.50186198760E+02  0.89201322395E+02  0.22569218306E+03  0.24785068965E+03  0.41800000000E+01 0. -1.
         -5    1    3    3    0  502  0.13972071744E+02 -0.33850154460E+02  0.50997139022E+02  0.62922431089E+02  0.41800000000E+01 0. -1.
        -11    1    1    2    0    0  0.47812898716E+02 -0.74622112211E+02 -0.40871744459E+02  0.97596272518E+02  0.00000000000E+00 0.  1.
         11    1    1    2    0    0 -0.11598771699E+02  0.19270944275E+02 -0.35082020571E+01  0.22764188540E+02  0.00000000000E+00 0. -1.
</event>
<event>
 7    1  0.3056346E-009  0.7877490E+02  0.7561462E-02  0.1332564E+00
         -3   -1    0    0    0  501 -0.00000000000E+00  0.00000000000E+00  0.25268411176E+03  0.25268411176E+03  0.00000000000E+00 0.  1.
          3   -1    0    0  501    0  0.00000000000E+00 -0.00000000000E+00 -0.54415699477E+02  0.54415699477E+02  0.00000000000E+00 0. -1.
         25    2    1    2    0    0  0.39688587862E+02  0.67099013503E+00  0.86815885363E+02  0.15735310529E+03  0.12508943824E+03 0.  0.
          5    1    3    3  502    0  0.26161255001E+02 -0.39250554156E+02 -0.12843395613E+02  0.49065695507E+02  0.41800000000E+01 0. -1.
         -5    1    3    3    0  502  0.13527332861E+02  0.39921544291E+02  0.99659280976E+02  0.10828740978E+03  0.41800000000E+01 0. -1.
        -11    1    1    2    0    0 -0.91724369619E+01 -0.26383509482E+02 -0.34194801746E+01  0.28141002418E+02  0.00000000000E+00 0. -1.
         11    1    1    2    0    0 -0.30516150900E+02  0.25712519347E+02  0.11487200709E+03  0.12160570353E+03  0.00000000000E+00 0.  1.
</event>
<event>
 7    1  0.3056346E-009  0.1372248E+03  0.7561462E-02  0.1217113E+00
          1   -1    0    0  501    0  0.00000000000E+00  0.00000000000E+00  0.44068305288E+03  0.44068305288E+03  0.00000000000E+00 0. -1.
         -1   -1    0    0    0  501 -0.00000000000E+00 -0.00000000000E+00 -0.62565088906E+02  0.62565088906E+02  0.00000000000E+00 0.  1.
         25    2    1    2    0    0 -0.11290876842E+03  0.46342464903E+02  0.18741662764E+03  0.25626051902E+03  0.12509375386E+03 0.  0.
          5    1    3    3  502    0 -0.67586686216E+01  0.16445809282E+02  0.13109321381E+03  0.13235953820E+03  0.41800000000E+01 0. -1.
         -5    1    3    3    0  502 -0.10615009979E+03  0.29896655621E+02  0.56323413828E+02  0.12390098082E+03  0.41800000000E+01 0. -1.
        -11    1    1    2    0    0  0.70154871106E+02 -0.68171223164E+02  0.16678608339E+03  0.19335619778E+03  0.00000000000E+00 0.  1.
         11    1    1    2    0    0  0.42753897310E+02  0.21828758262E+02  0.23915252943E+02  0.53631424984E+02  0.00000000000E+00 0. -1.
</event>
<event>
 7    1  0.3056346E-009  0.1011711E+03  0.7561462E-02  0.1277852E+00
         -2   -1    0    0    0  501 -0.00000000000E+00  0.00000000000E+00  0.21986359756E+02  0.21986359756E+02  0.00000000000E+00 0.  1.
          2   -1    0    0  501    0  0.00000000000E+00 -0.00000000000E+00 -0.79612656026E+03  0.79612656026E+03  0.00000000000E+00 0. -1.
         25    2    1    2    0    0 -0.15009691829E+02  0.66745856439E+02 -0.52559625197E+03  0.54459140229E+03  0.12509226661E+03 0.  0.
          5    1    3    3  502    0  0.21461904704E+02  0.14917986067E+02 -0.15742482154E+02  0.30797042166E+02  0.41800000000E+01 0.  1.
         -5    1    3    3    0  502 -0.36471596533E+02  0.51827870372E+02 -0.50985376981E+03  0.51379436012E+03  0.41800000000E+01 0.  1.
        -11    1    1    2    0    0  0.36905925432E+02 -0.79052501812E+02 -0.21126737006E+03  0.22857219215E+03  0.00000000000E+00 0.  1.
         11    1    1    2    0    0 -0.21896233604E+02  0.12306645373E+02 -0.37276578479E+02  0.44949325573E+02  0.00000000000E+00 0. -1.
</event>
<event>
 7    1  0.3056346E-009  0.1646345E+03  0.7561462E-02  0.1183562E+00
         -1   -1    0    0    0  501 -0.00000000000E+00  0.00000000000E+00  0.40098509668E+02  0.40098509668E+02  0.00000000000E+00 0.  1.
          1   -1    0    0  501    0  0.00000000000E+00 -0.00000000000E+00 -0.69580869675E+03  0.69580869675E+03  0.00000000000E+00 0. -1.
         25    2    1    2    0    0 -0.27043941298E+02 -0.12215942837E+03 -0.30411704195E+03  0.35183639181E+03  0.12508945080E+03 0.  0.
          5    1    3    3  502    0 -0.61724472839E+02 -0.15757241143E+02 -0.92150717072E+02  0.11210454162E+03  0.41800000000E+01 0. -1.
         -5    1    3    3    0  502  0.34680531541E+02 -0.10640218723E+03 -0.21196632488E+03  0.23973185019E+03  0.41800000000E+01 0. -1.
        -11    1    1    2    0    0  0.53801899580E+02  0.11300330225E+03 -0.26707486153E+03  0.29494638900E+03  0.00000000000E+00 0.  1.
         11    1    1    2    0    0 -0.26757958283E+02  0.91561261157E+01 -0.84518283601E+02  0.89124425607E+02  0.00000000000E+00 0. -1.
</event>
<event>
 7    1  0.3056346E-009  0.1293768E+03  0.7561462E-02  0.1228383E+00
         -2   -1    0    0    0  501 -0.00000000000E+00  0.00000000000E+00  0.77378475557E+02  0.77378475557E+02  0.00000000000E+00 0.  1.
          2   -1    0    0  501    0  0.00000000000E+00 -0.00000000000E+00 -0.37361726104E+03  0.37361726104E+03  0.00000000000E+00 0. -1.
         25    2    1    2    0    0 -0.39638111458E+01 -0.81758351824E+02 -0.25248429678E+02  0.15160921657E+03  0.12509089278E+03 0.  0.
          5    1    3    3  502    0  0.26125190138E+02  0.20739062077E+02 -0.29349512208E+02  0.44626231327E+02  0.41800000000E+01 0. -1.
         -5    1    3    3    0  502 -0.30089001284E+02 -0.10249741390E+03  0.41010825308E+01  0.10698298525E+03  0.41800000000E+01 0. -1.
        -11    1    1    2    0    0 -0.39539794775E+02  0.52831906343E+02 -0.94024966098E+02  0.11487079676E+03  0.00000000000E+00 0.  1.
         11    1    1    2    0    0  0.43503605921E+02  0.28926445481E+02 -0.17696538970E+03  0.18451572326E+03  0.00000000000E+00 0. -1.
</event>
<event>
 7    1  0.3056346E-009  0.1210729E+03  0.7561462E-02  0.1241338E+00
          1   -1    0    0  501    0  0.00000000000E+00  0.00000000000E+00  0.34157642821E+03  0.34157642821E+03  0.00000000000E+00 0. -1.
         -1   -1    0    0    0  501 -0.00000000000E+00 -0.00000000000E+00 -0.44248493728E+02  0.44248493728E+02  0.00000000000E+00 0.  1.
         25    2    1    2    0    0  0.46993064704E+02  0.32848474858E+02  0.17133939934E+03  0.21975516287E+03  0.12509105248E+03 0.  0.
          5    1    3    3  502    0 -0.26792399522E+02  0.52723919724E+02  0.92585694843E+02  0.10994192864E+03  0.41800000000E+01 0. -1.
         -5    1    3    3    0  502  0.73785464225E+02 -0.19875444866E+02  0.78753704497E+02  0.10981323423E+03  0.41800000000E+01 0. -1.
        -11    1    1    2    0    0 -0.79733192670E+01 -0.58882628699E+02  0.85409523673E+02  0.10404578087E+03  0.00000000000E+00 0.  1.
         11    1    1    2    0    0 -0.39019745437E+02  0.26034153842E+02  0.40579011469E+02  0.62023978202E+02  0.00000000000E+00 0. -1.
</event>
<event>
 7    1  0.3056346E-009  0.1519315E+03  0.7561462E-02  0.1198119E+00
          2   -1    0    0  501    0  0.00000000000E+00  0.00000000000E+00  0.68303935304E+03  0.68303935304E+03  0.00000000000E+00 0. -1.
         -2   -1    0    0    0  501 -0.00000000000E+00 -0.00000000000E+00 -0.66931612978E+02  0.66931612978E+02  0.00000000000E+00 0.  1.
         25    2    1    2    0    0  0.41985228658E+02 -0.13890841120E+03  0.12286142093E+03  0.22760298108E+03  0.12509948887E+03 0.  0.
          5    1    3    3  502    0  0.37316511259E+02 -0.13212460300E+03  0.14734324645E+03  0.20143717979E+03  0.41800000000E+01 0. -1.
         -5    1    3    3    0  502  0.46687173993E+01 -0.67838082020E+01 -0.24481825522E+02  0.26165801283E+02  0.41800000000E+01 0. -1.
        -11    1    1    2    0    0 -0.29081248284E+02  0.14120127048E+03  0.48692257388E+03  0.50781602057E+03  0.00000000000E+00 0. -1.
         11    1    1    2    0    0 -0.12903980374E+02 -0.22928592844E+01  0.63237452569E+01  0.14551964379E+02  0.00000000000E+00 0.  1.
</event>
<event>
 7    1  0.3056346E-009  0.9654305E+02  0.7561462E-02  0.1287738E+00
          2   -1    0    0  501    0  0.00000000000E+00  0.00000000000E+00  0.83733247064E+02  0.83733247064E+02  0.00000000000E+00 0. -1.
         -2   -1    0    0    0  501 -0.00000000000E+00 -0.00000000000E+00 -0.14711640108E+03  0.14711640108E+03  0.00000000000E+00 0.  1.
         25    2    1    2    0    0 -0.30391187472E+01 -0.60616282372E+01 -0.13130097836E+02  0.12591381568E+03  0.12504363211E+03 0.  0.
          5    1    3    3  502    0  0.49405522909E+02 -0.15214069218E+02  0.27602127211E+02  0.58751369539E+02  0.41800000000E+01 0.  1.
         -5    1    3    3    0  502 -0.52444641657E+02  0.91524409808E+01 -0.40732225047E+02  0.67162446141E+02  0.41800000000E+01 0.  1.
        -11    1    1    2    0    0  0.44814183560E+02  0.98199608942E+01 -0.41976308642E+02  0.62183222555E+02  0.00000000000E+00 0.  1.
         11    1    1    2    0    0 -0.41775064813E+02 -0.37583326570E+01 -0.82767475403E+01  0.42752609912E+02  0.00000000000E+00 0. -1.
</event>
<event>
 7    1  0.3056346E-009  0.1216331E+03  0.7561462E-02  0.1240427E+00
          1   -1    0    0  501    0  0.00000000000E+00  0.00000000000E+00  0.52555648270E+03  0.52555648270E+03  0.00000000000E+00 0. -1.
         -1   -1    0    0    0  501 -0.00000000000E+00 -0.00000000000E+00 -0.33295950712E+02  0.33295950712E+02  0.00000000000E+00 0.  1.
         25    2    1    2    0    0 -0.64610474325E+02  0.31126969446E+02  0.21911530482E+03  0.26230349467E+03  0.12509278512E+03 0.  0.
          5    1    3    3  502    0 -0.12308009384E+02 -0.40399511816E+02  0.12921446497E+03  0.13600536022E+03  0.41800000000E+01 0. -1.
         -5    1    3    3    0  502 -0.52302464942E+02  0.71526481262E+02  0.89900839847E+02  0.12629813445E+03  0.41800000000E+01 0. -1.
        -11    1    1    2    0    0 -0.13087439857E+01  0.25308276062E+02  0.96034533763E+02  0.99321967978E+02  0.00000000000E+00 0.  1.
         11    1    1    2    0    0  0.65919218311E+02 -0.56435245508E+02  0.17711069341E+03  0.19722697077E+03  0.00000000000E+00 0. -1.
</event>
<event>
 7    1  0.3056346E-009  0.8435232E+02  0.7561462E-02  0.1317135E+00
         -4   -1    0    0    0  501 -0.00000000000E+00  0.00000000000E+00  0.52304560481E+02  0.52304560481E+02  0.00000000000E+00 0.  1.
          4   -1    0    0  501    0  0.00000000000E+00 -0.00000000000E+00 -0.26252033294E+03  0.26252033294E+03  0.00000000000E+00 0. -1.
         25    2    1    2    0    0 -0.35631205584E+02  0.24967554408E+02 -0.11743053914E+03  0.17700340114E+03  0.12508921180E+03 0.  0.
          5    1    3    3  502    0 -0.42886517899E+02  0.53876395197E+02 -0.12774892457E+03  0.14518670567E+03  0.41800000000E+01 0.  1.
         -5    1    3    3    0  502  0.72553123143E+01 -0.28908840788E+02  0.10318385427E+02  0.31816695465E+02  0.41800000000E+01 0.  1.
        -11    1    1    2    0    0  0.38047770673E+02  0.60343257612E+01  0.14881249243E+01  0.38552048666E+02  0.00000000000E+00 0.  1.
         11    1    1    2    0    0 -0.24165650887E+01 -0.31001880170E+02 -0.94273358240E+02  0.99269443611E+02  0.00000000000E+00 0. -1.
</event>
<event>
 7    1  0.3056346E-009  0.1511049E+03  0.7561462E-02  0.1199122E+00
          2   -1    0    0  501    0  0.00000000000E+00  0.00000000000E+00  0.14967374041E+04  0.14967374041E+04  0.00000000000E+00 0.  1.
         -2   -1    0    0    0  501 -0.00000000000E+00 -0.00000000000E+00 -0.18511560434E+02  0.18511560434E+02  0.00000000000E+00 0. -1.
         25    2    1    2    0    0  0.12225271845E+03  0.94469036134E+01  0.95557481828E+03  0.97149695615E+03  0.12509249109E+03 0.  0.
          5    1    3    3  502    0  0.13193615102E+03 -0.75417751706E+01  0.55920736487E+03  0.57462542203E+03  0.41800000000E+01 0. -1.
         -5    1    3    3    0  502 -0.96834325773E+01  0.16988678784E+02  0.39636745341E+03  0.39687153412E+03  0.41800000000E+01 0. -1.
        -11    1    1    2    0    0 -0.42036223621E+02  0.38111418827E+02  0.19446846802E+03  0.20257716898E+03  0.00000000000E+00 0.  1.
         11    1    1    2    0    0 -0.80216494824E+02 -0.47558322441E+02  0.32818255737E+03  0.34117483940E+03  0.00000000000E+00 0. -1.
</event>
<event>
 7    1  0.3056346E-009  0.9446001E+02  0.7561462E-02  0.1292397E+00
          2   -1    0    0  501    0  0.00000000000E+00  0.00000000000E+00  0.16458092926E+03  0.16458092926E+03  0.00000000000E+00 0. -1.
         -2   -1    0    0    0  501 -0.00000000000E+00 -0.00000000000E+00 -0.75303695433E+02  0.75303695433E+02  0.00000000000E+00 0.  1.
         25    2    1    2    0    0  0.13726037172E+02  0.21225827724E+02  0.57069769457E+02  0.13979885145E+03  0.12509124838E+03 0.  0.
          5    1    3    3  502    0 -0.42572622196E+02 -0.14559341492E+02 -0.87106679508E+01  0.46019025646E+02  0.41800000000E+01 0. -1.
         -5    1    3    3    0  502  0.56298659368E+02  0.35785169216E+02  0.65780437407E+02  0.93779825804E+02  0.41800000000E+01 0. -1.
        -11    1    1    2    0    0 -0.33873661374E+02  0.13726726564E+02 -0.13643484731E+02  0.39012723985E+02  0.00000000000E+00 0.  1.
         11    1    1    2    0    0  0.20147624203E+02 -0.34952554288E+02  0.45850949103E+02  0.61073049259E+02  0.00000000000E+00 0. -1.
</event>
<event>
 7    1  0.3056346E-009  0.1476978E+03  0.7561462E-02  0.1203331E+00
         -2   -1    0    0    0  501 -0.00000000000E+00  0.00000000000E+00  0.66334933921E+02  0.66334933921E+02  0.00000000000E+00 0. -1.
          2   -1    0    0  501    0  0.00000000000E+00 -0.00000000000E+00 -0.59226277278E+03  0.59226277278E+03  0.00000000000E+00 0.  1.
         25    2    1    2    0    0  0.98174183599E+02  0.44808170108E+02 -0.66489270144E+02  0.17808448194E+03  0.12508923707E+03 0.  0.
          5    1    3    3  502    0  0.25370064540E+01  0.59436274489E+02  0.16745009747E+01  0.59660568891E+02  0.41800000000E+01 0.  1.
         -5    1    3    3    0  502  0.95637177145E+02 -0.14628104381E+02 -0.68163771118E+02  0.11842391305E+03  0.41800000000E+01 0.  1.
        -11    1    1    2    0    0  0.19098027297E+01 -0.38595061757E+02 -0.95746188841E+02  0.10324998216E+03  0.00000000000E+00 0.  1.
         11    1    1    2    0    0 -0.10008398633E+03 -0.62131083503E+01 -0.36369237987E+03  0.37726324260E+03  0.00000000000E+00 0. -1.
</event>
<event>
 7    1  0.3056346E-009  0.1996457E+03  0.7561462E-02  0.1150038E+00
          2   -1    0    0  501    0  0.00000000000E+00  0.00000000000E+00  0.13319575330E+04  0.13319575330E+04  0.00000000000E+00 0. -1.
         -2   -1    0    0    0  501 -0.00000000000E+00 -0.00000000000E+00 -0.44089012407E+02  0.44089012407E+02  0.00000000000E+00 0.  1.
         25    2    1    2    0    0  0.12130335313E+03  0.13104690374E+03  0.10174912756E+04  0.10405832938E+04  0.12504919360E+03 0.  0.
          5    1    3    3  502    0  0.22197684465E+01  0.67968864041E+02  0.54469101003E+03  0.54893575459E+03  0.41800000000E+01 0.  1.
         -5    1    3    3    0  502  0.11908358469E+03  0.63078039696E+02  0.47280026559E+03  0.49164753917E+03  0.41800000000E+01 0.  1.
        -11    1    1    2    0    0 -0.11869442734E+03 -0.75381389116E+02  0.21503211872E+03  0.25692320446E+03  0.00000000000E+00 0.  1.
         11    1    1    2    0    0 -0.26089257913E+01 -0.55665514621E+02  0.55345126212E+02  0.78540047156E+02  0.00000000000E+00 0. -1.
</event>
<event>
 7    1  0.3056346E-009  0.1447604E+03  0.7561462E-02  0.1207063E+00
         -1   -1    0    0    0  501 -0.00000000000E+00  0.00000000000E+00  0.10170374518E+03  0.10170374518E+03  0.00000000000E+00 0.  1.
          1   -1    0    0  501    0  0.00000000000E+00 -0.00000000000E+00 -0.29683045229E+03  0.29683045229E+03  0.00000000000E+00 0. -1.
         25    2    1    2    0    0  0.13005080129E+03  0.17543130141E+02 -0.59329191421E+02  0.19075937642E+03  0.12509282316E+03 0.  0.
          5    1    3    3  502    0  0.19184880164E+02  0.13931666344E+02  0.36760844268E+02  0.43942951941E+02  0.41800000000E+01 0.  1.
         -5    1    3    3    0  502  0.11086592113E+03  0.36114637965E+01 -0.96090035689E+02  0.14681642448E+03  0.41800000000E+01 0.  1.
        -11    1    1    2    0    0 -0.47846114209E+02 -0.47048040394E+02 -0.78719780270E+02  0.10343873818E+03  0.00000000000E+00 0.  1.
         11    1    1    2    0    0 -0.82204687084E+02  0.29504910253E+02 -0.57077735424E+02  0.10433608287E+03  0.00000000000E+00 0. -1.
</event>
<event>
 7    1  0.3056346E-009  0.1369608E+03  0.7561462E-02  0.1217478E+00
         -1   -1    0    0    0  501 -0.00000000000E+00  0.00000000000E+00  0.47307103048E+02  0.47307103048E+02  0.00000000000E+00 0.  1.
          1   -1    0    0  501    0  0.00000000000E+00 -0.00000000000E+00 -0.52633415288E+03  0.52633415288E+03  0.00000000000E+00 0. -1.
         25    2    1    2    0    0 -0.62625654402E+02 -0.88028878178E+02 -0.19581845445E+03  0.25625819295E+03  0.12510930568E+03 0.  0.
          5    1    3    3  502    0  0.28162061664E+02  0.11330028311E+02 -0.36495624932E+02  0.47653691335E+02  0.41800000000E+01 0.  1.
         -5    1    3    3    0  502 -0.90787716066E+02 -0.99358906489E+02 -0.15932282952E+03  0.20860450161E+03  0.41800000000E+01 0.  1.
        -11    1    1    2    0    0  0.23299015787E+02  0.42454514159E+02 -0.23590480609E+03  0.24082422520E+03  0.00000000000E+00 0. -1.
         11    1    1    2    0    0  0.39326638616E+02  0.45574364019E+02 -0.47303789295E+02  0.76558837780E+02  0.00000000000E+00 0.  1.
</event>
<event>
 7    1  0.3056346E-009  0.2022679E+03  0.7561462E-02  0.1147840E+00
          1   -1    0    0  501    0  0.00000000000E+00  0.00000000000E+00  0.12480689573E+04  0.12480689573E+04  0.00000000000E+00 0. -1.
         -1   -1    0    0    0  501 -0.00000000000E+00 -0.00000000000E+00 -0.48638437553E+02  0.48638437553E+02  0.00000000000E+00 0.  1.
         25    2    1    2    0    0  0.14293511383E+03 -0.11782958306E+03  0.30239949026E+03  0.37604087972E+03  0.12508810536E+03 0.  0.
          5    1    3    3  502    0 -0.54626452184E+01  0.12705706701E+01  0.92250076124E+02  0.92514884140E+02  0.41800000000E+01 0.  1.
         -5    1    3    3    0  502  0.14839775905E+03 -0.11910015373E+03  0.21014941414E+03  0.28352599558E+03  0.41800000000E+01 0.  1.
        -11    1    1    2    0    0 -0.49664620004E+02  0.10084333784E+03  0.47567766661E+03  0.48877929148E+03  0.00000000000E+00 0. -1.
         11    1    1    2    0    0 -0.93270493828E+02  0.16986245214E+02  0.42135336283E+03  0.43188722361E+03  0.00000000000E+00 0.  1.
</event>
<event>
 7    1  0.3056346E-009  0.7201130E+02  0.7561462E-02  0.1353384E+00
         -4   -1    0    0    0  501 -0.00000000000E+00  0.00000000000E+00  0.11136633345E+03  0.11136633345E+03  0.00000000000E+00 0.  1.
          4   -1    0    0  501    0  0.00000000000E+00 -0.00000000000E+00 -0.11359108080E+03  0.11359108080E+03  0.00000000000E+00 0. -1.
         25    2    1    2    0    0  0.15453899458E+02  0.20560490526E+02  0.10521310172E+02  0.12813827077E+03  0.12508861535E+03 0.  0.
          5    1    3    3  502    0 -0.14369210472E+02 -0.21623417427E+02 -0.45040248825E+02  0.52154988304E+02  0.41800000000E+01 0. -1.
         -5    1    3    3    0  502  0.29823109930E+02  0.42183907953E+02  0.55561558997E+02  0.75983282466E+02  0.41800000000E+01 0. -1.
        -11    1    1    2    0    0  0.84140636447E+01  0.18384573292E+02  0.28723147118E+02  0.35125605796E+02  0.00000000000E+00 0.  1.
         11    1    1    2    0    0 -0.23867963103E+02 -0.38945063817E+02 -0.41469204643E+02  0.61693537685E+02  0.00000000000E+00 0. -1.
</event>
<event>
 7    1  0.3056346E-009  0.1166324E+03  0.7561462E-02  0.1248758E+00
         -2   -1    0    0    0  501 -0.00000000000E+00  0.00000000000E+00  0.57017011755E+03  0.57017011755E+03  0.00000000000E+00 0.  1.
          2   -1    0    0  501    0  0.00000000000E+00 -0.00000000000E+00 -0.35923395463E+02  0.35923395463E+02  0.00000000000E+00 0. -1.
         25    2    1    2    0    0  0.86701396510E+02 -0.34738263878E+02  0.28694040913E+03  0.32666304626E+03  0.12510023287E+03 0.  0.
          5    1    3    3  502    0  0.11666469462E+02 -0.27963601371E+02  0.64759271677E+00  0.30593484399E+02  0.41800000000E+01 0. -1.
         -5    1    3    3    0  502  0.75034927048E+02 -0.67746625069E+01  0.28629281641E+03  0.29606956186E+03  0.41800000000E+01 0. -1.
        -11    1    1    2    0    0 -0.20083815310E+02  0.54215264772E+02  0.14189012780E+03  0.15321704519E+03  0.00000000000E+00 0. -1.
         11    1    1    2    0    0 -0.66617581200E+02 -0.19477000894E+02  0.10541618517E+03  0.12621342157E+03  0.00000000000E+00 0.  1.
</event>
<event>
 7    1  0.3056346E-009  0.1243922E+03  0.7561462E-02  0.1236022E+00
          1   -1    0    0  501    0  0.00000000000E+00  0.00000000000E+00  0.86832679224E+02  0.86832679224E+02  0.00000000000E+00 0. -1.
         -1   -1    0    0    0  501 -0.00000000000E+00 -0.00000000000E+00 -0.34127661394E+03  0.34127661394E+03  0.00000000000E+00 0.  1.
         25    2    1    2    0    0 -0.43607022633E+02  0.58940785441E+02 -0.27413098105E+03  0.31011477131E+03  0.12509111880E+03 0.  0.
          5    1    3    3  502    0  0.19500595206E+02  0.70521293234E+02 -0.96288617678E+02  0.12100618293E+03  0.41800000000E+01 0. -1.
         -5    1    3    3    0  502 -0.63107617839E+02 -0.11580507793E+02 -0.17784236337E+03  0.18910858838E+03  0.41800000000E+01 0. -1.
        -11    1    1    2    0    0  0.41967744224E+02  0.92618717041E+01 -0.91283486227E+01  0.43936324053E+02  0.00000000000E+00 0.  1.
         11    1    1    2    0    0  0.16392784090E+01 -0.68202657145E+02  0.28815394955E+02  0.74058197802E+02  0.00000000000E+00 0. -1.
</event>
<event>
 7    1  0.3056346E-009  0.8927196E+02  0.7561462E-02  0.1304624E+00
         -2   -1    0    0    0  501 -0.00000000000E+00  0.00000000000E+00  0.18605797817E+03  0.18605797817E+03  0.00000000000E+00 0.  1.
          2   -1    0    0  501    0  0.00000000000E+00 -0.00000000000E+00 -0.69619201823E+02  0.69619201823E+02  0.00000000000E+00 0. -1.
         25    2    1    2    0    0 -0.24206641962E+02  0.21927101152E+02  0.72532560517E+02  0.14824015756E+03  0.12508961867E+03 0.  0.
          5    1    3    3  502    0 -0.14838228437E+02 -0.32951587377E+02  0.83736619838E+02  0.91297721963E+02  0.41800000000E+01 0. -1.
         -5    1    3    3    0  502 -0.93684135249E+01  0.54878688529E+02 -0.11204059321E+02  0.56942435598E+02  0.41800000000E+01 0. -1.
        -11    1    1    2    0    0  0.51107607740E+02  0.80791773557E+00 -0.45329250266E-01  0.51114013291E+02  0.00000000000E+00 0. -1.
         11    1    1    2    0    0 -0.26900965778E+02 -0.22735018887E+02  0.43951545080E+02  0.56323009139E+02  0.00000000000E+00 0.  1.
</event>
<event>
 7    1  0.3056346E-009  0.1305213E+03  0.7561462E-02  0.1226684E+00
         -1   -1    0    0    0  501 -0.00000000000E+00  0.00000000000E+00  0.59957315203E+02  0.59957315203E+02  0.00000000000E+00 0.  1.
          1   -1    0    0  501    0  0.00000000000E+00 -0.00000000000E+00 -0.41367190624E+03  0.41367190624E+03  0.00000000000E+00 0. -1.
         25    2    1    2    0    0  0.47686402221E+01 -0.10569759436E+03 -0.13038487542E+03  0.20938546537E+03  0.12508931204E+03 0.  0.
          5    1    3    3  502    0 -0.29346305386E+02 -0.79155707139E+02 -0.14126193909E+03  0.16461846631E+03  0.41800000000E+01 0.  1.
         -5    1    3    3    0  502  0.34114945608E+02 -0.26541887220E+02  0.10877063672E+02  0.44766999064E+02  0.41800000000E+01 0.  1.
        -11    1    1    2    0    0  0.38044131158E+02  0.48102614928E+02 -0.59788892776E+02  0.85650038983E+02  0.00000000000E+00 0.  1.
         11    1    1    2    0    0 -0.42812771380E+02  0.57594979432E+02 -0.16354082284E+03  0.17859371709E+03  0.00000000000E+00 0. -1.
</event>
<event>
 7    1  0.3240948E-009  0.1462296E+03  0.7561462E-02  0.1205184E+00
          1   -1    0    0  501    0  0.00000000000E+00  0.00000000000E+00  0.13466636862E+04  0.13466636862E+04  0.00000000000E+00 0. -1.
         -1   -1    0    0    0  501 -0.00000000000E+00 -0.00000000000E+00 -0.22051525428E+02  0.22051525428E+02  0.00000000000E+00 0.  1.
         25    2    1    2    0    0 -0.11330203864E+03 -0.57994473698E+02  0.86554608340E+03  0.88375202618E+03  0.12508761072E+03 0.  0.
          5    1    3    3  502    0  0.18008423904E+02 -0.11517278417E+02  0.31818897796E+03  0.31893361241E+03  0.41800000000E+01 0.  1.
         -5    1    3    3    0  502 -0.13131046255E+03 -0.46477195281E+02  0.54735710544E+03  0.56481841377E+03  0.41800000000E+01 0.  1.
        -11    1    1    2    0    0  0.36592691624E+02  0.25659575107E+01  0.35839502713E+02  0.51284297528E+02  0.00000000000E+00 0.  1.
         11    1    1    2    0    0  0.76709347019E+02  0.55428516187E+02  0.42322657469E+03  0.43367888794E+03  0.00000000000E+00 0. -1.
</event>
<event>
 7    1  0.3056346E-009  0.1168037E+03  0.7561462E-02  0.1248465E+00
          1   -1    0    0  501    0  0.00000000000E+00  0.00000000000E+00  0.32116350014E+03  0.32116350014E+03  0.00000000000E+00 0. -1.
         -1   -1    0    0    0  501 -0.00000000000E+00 -0.00000000000E+00 -0.51032420303E+02  0.51032420303E+02  0.00000000000E+00 0.  1.
         25    2    1    2    0    0 -0.62483368711E+02 -0.18406451486E+02  0.11826631675E+03  0.18405989055E+03  0.12509257696E+03 0.  0.
          5    1    3    3  502    0 -0.55692605598E+02  0.43107604268E+02  0.93822585044E+02  0.11738859284E+03  0.41800000000E+01 0.  1.
         -5    1    3    3    0  502 -0.67907631129E+01 -0.61514055754E+02  0.24443731703E+02  0.66671297712E+02  0.41800000000E+01 0.  1.
        -11    1    1    2    0    0 -0.18174057064E+02 -0.51321822462E+00  0.39577269012E+01  0.18607077829E+02  0.00000000000E+00 0.  1.
         11    1    1    2    0    0  0.80657425775E+02  0.18919669711E+02  0.14790703619E+03  0.16952895206E+03  0.00000000000E+00 0. -1.
</event>
<event>
 7    1  0.3056346E-009  0.1093425E+03  0.7561462E-02  0.1261792E+00
         -4   -1    0    0    0  501 -0.00000000000E+00  0.00000000000E+00  0.24335368303E+03  0.24335368303E+03  0.00000000000E+00 0.  1.
          4   -1    0    0  501    0  0.00000000000E+00 -0.00000000000E+00 -0.58085738482E+02  0.58085738482E+02  0.00000000000E+00 0. -1.
         25    2    1    2    0    0  0.22711883236E+02  0.14543969003E+02  0.54848611676E+02  0.13922435029E+03  0.12509073841E+03 0.  0.
          5    1    3    3  502    0  0.64920245338E+02  0.41997102134E+02  0.33945429820E+02  0.84546788514E+02  0.41800000000E+01 0.  1.
         -5    1    3    3    0  502 -0.42208362102E+02 -0.27453133131E+02  0.20903181856E+02  0.54677561776E+02  0.41800000000E+01 0.  1.
        -11    1    1    2    0    0 -0.32387222927E+02  0.30601247153E+02  0.36644963614E+02  0.57690743578E+02  0.00000000000E+00 0. -1.
         11    1    1    2    0    0  0.96753396907E+01 -0.45145216156E+02  0.93774369259E+02  0.10452432765E+03  0.00000000000E+00 0.  1.
</event>
<event>
 7    1  0.3344629E-009  0.1365313E+03  0.7561462E-02  0.1218074E+00
         -1   -1    0    0    0  501 -0.00000000000E+00  0.00000000000E+00  0.49175790298E+02  0.49175790298E+02  0.00000000000E+00 0.  1.
          1   -1    0    0  501    0  0.00000000000E+00 -0.00000000000E+00 -0.50464583616E+03  0.50464583616E+03  0.00000000000E+00 0. -1.
         25    2    1    2    0    0  0.18456775510E+02 -0.97731603432E+02 -0.34276715566E+03  0.37819190466E+03  0.12509066664E+03 0.  0.
          5    1    3    3  502    0 -0.37700562512E+01 -0.11409130696E+03 -0.32645190002E+03  0.34586031150E+03  0.41800000000E+01 0. -1.
         -5    1    3    3    0  502  0.22226831761E+02  0.16359703526E+02 -0.16315255646E+02  0.32331593161E+02  0.41800000000E+01 0. -1.
        -11    1    1    2    0    0 -0.22874936803E+02 -0.86428007061E+01 -0.66174024361E+01  0.25332799939E+02  0.00000000000E+00 0.  1.
         11    1    1    2    0    0  0.44181612930E+01  0.10637440414E+03 -0.10608548776E+03  0.15029692185E+03  0.00000000000E+00 0. -1.
</event>
<event>
 7    1  0.3056346E-009  0.2626944E+03  0.7561462E-02  0.1105535E+00
         -3   -1    0    0    0  501 -0.00000000000E+00  0.00000000000E+00  0.46528954009E+03  0.46528954009E+03  0.00000000000E+00 0.  1.
          3   -1    0    0  501    0  0.00000000000E+00 -0.00000000000E+00 -0.16402931784E+03  0.16402931784E+03  0.00000000000E+00 0. -1.
         25    2    1    2    0    0 -0.69541654459E+02 -0.24402450186E+03  0.15083683435E+03  0.32060219922E+03  0.12510004132E+03 0.  0.
          5    1    3    3  502    0 -0.31918104753E+02 -0.96522260814E+01 -0.85186496747E+01  0.34669448677E+02  0.41800000000E+01 0.  1.
         -5    1    3    3    0  502 -0.37623549707E+02 -0.23437227578E+03  0.15935548403E+03  0.28593275055E+03  0.41800000000E+01 0.  1.
        -11    1    1    2    0    0  0.23918563492E+02  0.11656886232E+03  0.19868202355E+02  0.12064469656E+03  0.00000000000E+00 0. -1.
         11    1    1    2    0    0  0.45623090967E+02  0.12745563953E+03  0.13055518554E+03  0.18807196216E+03  0.00000000000E+00 0.  1.
</event>
<event>
 7    1  0.3056346E-009  0.1023128E+03  0.7561462E-02  0.1275506E+00
         -2   -1    0    0    0  501 -0.00000000000E+00  0.00000000000E+00  0.17361748552E+03  0.17361748552E+03  0.00000000000E+00 0.  1.
          2   -1    0    0  501    0  0.00000000000E+00 -0.00000000000E+00 -0.10977531293E+03  0.10977531293E+03  0.00000000000E+00 0. -1.
         25    2    1    2    0    0 -0.47620195672E+02  0.68553120462E+02  0.15746170165E+02  0.15120576209E+03  0.12509207510E+03 0.  0.
          5    1    3    3  502    0 -0.15236495279E+02 -0.13117901731E+01  0.60158776405E+02  0.62212718639E+02  0.41800000000E+01 0.  1.
         -5    1    3    3    0  502 -0.32383700393E+02  0.69864910636E+02 -0.44412606240E+02  0.88993043449E+02  0.41800000000E+01 0.  1.
        -11    1    1    2    0    0  0.14897669758E+02  0.15473683076E+02  0.35002798455E+02  0.41067886868E+02  0.00000000000E+00 0.  1.
         11    1    1    2    0    0  0.32722525915E+02 -0.84026803538E+02  0.13093203968E+02  0.91119149498E+02  0.00000000000E+00 0. -1.
</event>
<event>
 7    1  0.3056346E-009  0.1086794E+03  0.7561462E-02  0.1263035E+00
          1   -1    0    0  501    0  0.00000000000E+00  0.00000000000E+00  0.46209799814E+02  0.46209799814E+02  0.00000000000E+00 0. -1.
         -1   -1    0    0    0  501 -0.00000000000E+00 -0.00000000000E+00 -0.29410750328E+03  0.29410750328E+03  0.00000000000E+00 0.  1.
         25    2    1    2    0    0 -0.26444878044E+02  0.80827319698E+01 -0.89086281991E+02  0.15603781977E+03  0.12508706340E+03 0.  0.
          5    1    3    3  502    0 -0.11335238438E+02 -0.56997550858E+02 -0.58066489296E+02  0.82258118222E+02  0.41800000000E+01 0.  1.
         -5    1    3    3    0  502 -0.15109639605E+02  0.65080282828E+02 -0.31019792695E+02  0.73779701550E+02  0.41800000000E+01 0.  1.
        -11    1    1    2    0    0 -0.23162115869E+02  0.23779033681E+02 -0.42979727059E+02  0.54306380771E+02  0.00000000000E+00 0. -1.
         11    1    1    2    0    0  0.49606993913E+02 -0.31861765651E+02 -0.11583169441E+03  0.12997310255E+03  0.00000000000E+00 0.  1.
</event>
<event>
 7    1  0.3056346E-009  0.1166840E+03  0.7561462E-02  0.1248670E+00
         -1   -1    0    0    0  501 -0.00000000000E+00  0.00000000000E+00  0.15201834573E+02  0.15201834573E+02  0.00000000000E+00 0.  1.
          1   -1    0    0  501    0  0.00000000000E+00 -0.00000000000E+00 -0.10983265604E+04  0.10983265604E+04  0.00000000000E+00 0. -1.
         25    2    1    2    0    0  0.17754945623E+02 -0.40614007387E+02 -0.82803227122E+03  0.83859870775E+03  0.12508243187E+03 0.  0.
          5    1    3    3  502    0  0.22347648768E+02 -0.84825928511E+02 -0.57221589751E+03  0.57891567721E+03  0.41800000000E+01 0.  1.
         -5    1    3    3    0  502 -0.45927031457E+01  0.44211921124E+02 -0.25581637371E+03  0.25968303054E+03  0.41800000000E+01 0.  1.
        -11    1    1    2    0    0 -0.34147041904E+02 -0.18998977566E+02 -0.12355168712E+03  0.12958395352E+03  0.00000000000E+00 0. -1.
         11    1    1    2    0    0  0.16392096281E+02  0.59612984953E+02 -0.13154076747E+03  0.14534573369E+03  0.00000000000E+00 0.  1.
</event>
<event>
 7    1  0.3056346E-009  0.1010740E+03  0.7561462E-02  0.1278054E+00
          1   -1    0    0  501    0  0.00000000000E+00  0.00000000000E+00  0.20276365225E+03  0.20276365225E+03  0.00000000000E+00 0. -1.
         -1   -1    0    0    0  501 -0.00000000000E+00 -0.00000000000E+00 -0.60215553743E+02  0.60215553743E+02  0.00000000000E+00 0.  1.
         25    2    1    2    0    0 -0.17501080709E+01  0.19634131195E+02  0.72370117609E+02  0.14585116828E+03  0.12508623978E+03 0.  0.
          5    1    3    3  502    0 -0.22528828969E+02 -0.40438773479E+02 -0.37056275291E+01  0.46626672738E+02  0.41800000000E+01 0.  1.
         -5    1    3    3    0  502  0.20778720898E+02  0.60072904674E+02  0.76075745138E+02  0.99224495547E+02  0.41800000000E+01 0.  1.
        -11    1    1    2    0    0 -0.29940799804E+01 -0.55604282377E+02  0.53411945124E+02  0.77159812179E+02  0.00000000000E+00 0.  1.
         11    1    1    2    0    0  0.47441880514E+01  0.35970151181E+02  0.16766035773E+02  0.39968225527E+02  0.00000000000E+00 0. -1.
</event>
<event>
 7    1  0.3056346E-009  0.1191331E+03  0.7561462E-02  0.1244534E+00
          2   -1    0    0  501    0  0.00000000000E+00  0.00000000000E+00  0.56939157718E+02  0.56939157718E+02  0.00000000000E+00 0. -1.
         -2   -1    0    0    0  501 -0.00000000000E+00 -0.00000000000E+00 -0.29532420390E+03  0.29532420390E+03  0.00000000000E+00 0.  1.
         25    2    1    2    0    0  0.43325374091E+02 -0.51825021879E+02 -0.11342233809E+03  0.18186919894E+03  0.12509539484E+03 0.  0.
          5    1    3    3  502    0  0.45728274650E+02 -0.86909020808E+02 -0.10801604041E+03  0.14604516557E+03  0.41800000000E+01 0.  1.
         -5    1    3    3    0  502 -0.24029005584E+01  0.35083998929E+02 -0.54062976794E+01  0.35824033365E+02  0.41800000000E+01 0.  1.
        -11    1    1    2    0    0  0.88259435236E+00 -0.20107620644E+02 -0.61676215004E+02  0.64877198444E+02  0.00000000000E+00 0.  1.
         11    1    1    2    0    0 -0.44207968444E+02  0.71932642523E+02 -0.63286493083E+02  0.10551696423E+03  0.00000000000E+00 0. -1.
</event>
<event>
 7    1  0.3056346E-009  0.8487765E+02  0.7561462E-02  0.1315753E+00
         -1   -1    0    0    0  501 -0.00000000000E+00  0.00000000000E+00  0.19344502375E+03  0.19344502375E+03  0.00000000000E+00 0.  1.
          1   -1    0    0  501    0  0.00000000000E+00 -0.00000000000E+00 -0.68855255468E+02  0.68855255468E+02  0.00000000000E+00 0. -1.
         25    2    1    2    0    0  0.14476881855E+01 -0.38841101009E+02  0.64443210218E+02  0.14598503843E+03  0.12509187493E+03 0.  0.
          5    1    3    3  502    0 -0.44821426809E+02 -0.85697929860E+01 -0.15778598638E+02  0.48464814329E+02  0.41800000000E+01 0. -1.
         -5    1    3    3    0  502  0.46269114994E+02 -0.30271308023E+02  0.80221808855E+02  0.97520224096E+02  0.41800000000E+01 0. -1.
        -11    1    1    2    0    0  0.11535778077E+02 -0.11621781183E+02 -0.16751936028E+02  0.23425783539E+02  0.00000000000E+00 0. -1.
         11    1    1    2    0    0 -0.12983466263E+02  0.50462882192E+02  0.76898494096E+02  0.92889457257E+02  0.00000000000E+00 0.  1.
</event>
<event>
 7    1  0.3056346E-009  0.1613005E+03  0.7561462E-02  0.1187236E+00
         -3   -1    0    0    0  501 -0.00000000000E+00  0.00000000000E+00  0.15164361201E+04  0.15164361201E+04  0.00000000000E+00 0.  1.
          3   -1    0    0  501    0  0.00000000000E+00 -0.00000000000E+00 -0.19504939112E+02  0.19504939112E+02  0.00000000000E+00 0. -1.
         25    2    1    2    0    0  0.11031936969E+03  0.74026557918E+02  0.77747481410E+03  0.79860283968E+03  0.12509642030E+03 0.  0.
          5    1    3    3  502    0  0.92241799088E+02  0.97762082572E+02  0.44783519989E+03  0.46758936359E+03  0.41800000000E+01 0.  1.
         -5    1    3    3    0  502  0.18077570606E+02 -0.23735524654E+02  0.32963961421E+03  0.33101347608E+03  0.41800000000E+01 0.  1.
        -11    1    1    2    0    0 -0.53771133134E+02 -0.84822055146E+02  0.52582813236E+03  0.53533292499E+03  0.00000000000E+00 0.  1.
         11    1    1    2    0    0 -0.56548236560E+02  0.10795497228E+02  0.19362823455E+03  0.20200529457E+03  0.00000000000E+00 0. -1.
</event>
<event>
 7    1  0.3056346E-009  0.1174391E+03  0.7561462E-02  0.1247382E+00
          1   -1    0    0  501    0  0.00000000000E+00  0.00000000000E+00  0.13455568437E+02  0.13455568437E+02  0.00000000000E+00 0. -1.
         -1   -1    0    0    0  501 -0.00000000000E+00 -0.00000000000E+00 -0.11728880953E+04  0.11728880953E+04  0.00000000000E+00 0.  1.
         25    2    1    2    0    0  0.52505580687E+02  0.13343135805E+02 -0.81114466425E+03  0.82251900925E+03  0.12508788489E+03 0.  0.
          5    1    3    3  502    0  0.61102446215E+02 -0.42081393647E+02 -0.57432788816E+03  0.57911514239E+03  0.41800000000E+01 0.  1.
         -5    1    3    3    0  502 -0.85968655280E+01  0.55424529452E+02 -0.23681677609E+03  0.24340386685E+03  0.41800000000E+01 0.  1.
        -11    1    1    2    0    0 -0.25291444736E+02 -0.51548986666E+02 -0.21448798886E+03  0.22204065522E+03  0.00000000000E+00 0.  1.
         11    1    1    2    0    0 -0.27214135951E+02  0.38205850862E+02 -0.13379987377E+03  0.14178399930E+03  0.00000000000E+00 0. -1.
</event>
<event>
 7    1  0.3056346E-009  0.1157105E+03  0.7561462E-02  0.1250346E+00
          1   -1    0    0  501    0  0.00000000000E+00  0.00000000000E+00  0.11975092075E+03  0.11975092075E+03  0.00000000000E+00 0. -1.
         -1   -1    0    0    0  501 -0.00000000000E+00 -0.00000000000E+00 -0.16237233969E+03  0.16237233969E+03  0.00000000000E+00 0.  1.
         25    2    1    2    0    0 -0.71864108537E+02  0.10317679192E+02 -0.72129969299E+02  0.16162286089E+03  0.12509321361E+03 0.  0.
          5    1    3    3  502    0 -0.46501876971E+02 -0.51556924928E+02 -0.63290448390E+02  0.94040918366E+02  0.41800000000E+01 0.  1.
         -5    1    3    3    0  502 -0.25362231566E+02  0.61874604120E+02 -0.88395209096E+01  0.67581942521E+02  0.41800000000E+01 0.  1.
        -11    1    1    2    0    0  0.50645850897E+02 -0.35563802218E+02  0.51792865087E+02  0.80698742959E+02  0.00000000000E+00 0. -1.
         11    1    1    2    0    0  0.21218257639E+02  0.25246123026E+02 -0.22284314722E+02  0.39801656595E+02  0.00000000000E+00 0.  1.
</event>
<event>
 7    1  0.3056346E-009  0.9251517E+02  0.7561462E-02  0.1296873E+00
          2   -1    0    0  501    0  0.00000000000E+00  0.00000000000E+00  0.97559119195E+02  0.97559119195E+02  0.00000000000E+00 0. -1.
         -2   -1    0    0    0  501 -0.00000000000E+00 -0.00000000000E+00 -0.19884420812E+03  0.19884420812E+03  0.00000000000E+00 0.  1.
         25    2    1    2    0    0  0.36850717607E+01 -0.84301214757E+02 -0.31476796739E+02  0.15413603001E+03  0.12508737926E+03 0.  0.
          5    1    3    3  502    0 -0.18692186695E+02 -0.33450069759E+02 -0.74408521758E+02  0.83799794275E+02  0.41800000000E+01 0. -1.
         -5    1    3    3    0  502  0.22377258456E+02 -0.50851144998E+02  0.42931725019E+02  0.70336235730E+02  0.41800000000E+01 0. -1.
        -11    1    1    2    0    0  0.14334014173E+02  0.25291806022E+02 -0.74914154212E+02  0.80357139791E+02  0.00000000000E+00 0.  1.
         11    1    1    2    0    0 -0.18019085934E+02  0.59009408735E+02  0.51058620238E+01  0.61910157520E+02  0.00000000000E+00 0. -1.
</event>
<event>
 7    1  0.3056346E-009  0.8417683E+02  0.7561462E-02  0.1317599E+00
         -1   -1    0    0    0  501 -0.00000000000E+00  0.00000000000E+00  0.18083324530E+03  0.18083324530E+03  0.00000000000E+00 0.  1.
          1   -1    0    0  501    0  0.00000000000E+00 -0.00000000000E+00 -0.13851682184E+03  0.13851682184E+03  0.00000000000E+00 0. -1.
         25    2    1    2    0    0 -0.24405894179E+01 -0.55192524951E+02  0.12357402978E+03  0.18431007532E+03  0.12508993462E+03 0.  0.
          5    1    3    3  502    0  0.10382483656E+02  0.19357395732E+02 -0.14617426411E+02  0.26714159004E+02  0.41800000000E+01 0.  1.
         -5    1    3    3    0  502 -0.12823073074E+02 -0.74549920683E+02  0.13819145619E+03  0.15759591632E+03  0.41800000000E+01 0.  1.
        -11    1    1    2    0    0  0.16623505479E+02  0.53412045113E+02 -0.98112983088E+02  0.11293956325E+03  0.00000000000E+00 0. -1.
         11    1    1    2    0    0 -0.14182916061E+02  0.17804798382E+01  0.16855376774E+02  0.22100428562E+02  0.00000000000E+00 0.  1.
</event>
<event>
 7    1  0.3056346E-009  0.1079512E+03  0.7561462E-02  0.1264412E+00
          1   -1    0    0  501    0  0.00000000000E+00  0.00000000000E+00  0.20390830560E+03  0.20390830560E+03  0.00000000000E+00 0. -1.
         -1   -1    0    0    0  501 -0.00000000000E+00 -0.00000000000E+00 -0.64452675641E+02  0.64452675641E+02  0.00000000000E+00 0.  1.
         25    2    1    2    0    0  0.38833649082E+02 -0.25814905573E+01  0.54399505522E+02  0.14184872919E+03  0.12508812644E+03 0.  0.
          5    1    3    3  502    0  0.72188574108E+02  0.35167121785E+02  0.35274774958E+02  0.87804890722E+02  0.41800000000E+01 0.  1.
         -5    1    3    3    0  502 -0.33354925025E+02 -0.37748612342E+02  0.19124730564E+02  0.54043838468E+02  0.41800000000E+01 0.  1.
        -11    1    1    2    0    0 -0.61722517036E+02 -0.12793829646E+01  0.82670054427E+02  0.10317772933E+03  0.00000000000E+00 0. -1.
         11    1    1    2    0    0  0.22888867954E+02  0.38608735219E+01  0.23860700069E+01  0.23334522721E+02  0.00000000000E+00 0.  1.
</event>
<event>
 7    1  0.3056346E-009  0.1438680E+03  0.7561462E-02  0.1208217E+00
         -2   -1    0    0    0  501 -0.00000000000E+00  0.00000000000E+00  0.21867922215E+03  0.21867922215E+03  0.00000000000E+00 0.  1.
          2   -1    0    0  501    0  0.00000000000E+00 -0.00000000000E+00 -0.11312716841E+03  0.11312716841E+03  0.00000000000E+00 0. -1.
         25    2    1    2    0    0 -0.86059770176E+02 -0.51054913473E+02 -0.44403411349E+01  0.16024898334E+03  0.12508849587E+03 0.  0.
          5    1    3    3  502    0 -0.36728068425E+02  0.39529701847E+02  0.12735668112E+02  0.55598722832E+02  0.41800000000E+01 0.  1.
         -5    1    3    3    0  502 -0.49331701751E+02 -0.90584615319E+02 -0.17176009247E+02  0.10465026051E+03  0.41800000000E+01 0.  1.
        -11    1    1    2    0    0 -0.72196295739E+01  0.34995855385E+02  0.19981972143E+02  0.40940348753E+02  0.00000000000E+00 0.  1.
         11    1    1    2    0    0  0.93279399750E+02  0.16059058088E+02  0.90010422725E+02  0.13061705847E+03  0.00000000000E+00 0. -1.
</event>
<event>
 7    1  0.3056346E-009  0.4198443E+03  0.7561462E-02  0.1037117E+00
         -1   -1    0    0    0  501 -0.00000000000E+00  0.00000000000E+00  0.11382175291E+03  0.11382175291E+03  0.00000000000E+00 0.  1.
          1   -1    0    0  501    0  0.00000000000E+00 -0.00000000000E+00 -0.16571792491E+04  0.16571792491E+04  0.00000000000E+00 0. -1.
         25    2    1    2    0    0  0.75284237357E+02 -0.40704155064E+03 -0.63022042432E+03  0.76431302910E+03  0.12508430312E+03 0.  0.
          5    1    3    3  502    0  0.99499891728E+02 -0.32617365801E+03 -0.55370028232E+03  0.65030066790E+03  0.41800000000E+01 0. -1.
         -5    1    3    3    0  502 -0.24215654371E+02 -0.80867892630E+02 -0.76520142003E+02  0.11401236120E+03  0.41800000000E+01 0. -1.
        -11    1    1    2    0    0 -0.63406387050E+02  0.31426257579E+03 -0.60537297341E+03  0.68502392177E+03  0.00000000000E+00 0. -1.
         11    1    1    2    0    0 -0.11877850307E+02  0.92778974846E+02 -0.30776409849E+03  0.32166405118E+03  0.00000000000E+00 0.  1.
</event>
<event>
 7    1  0.3056346E-009  0.7153320E+02  0.7561462E-02  0.1354956E+00
          1   -1    0    0  501    0  0.00000000000E+00  0.00000000000E+00  0.17212124628E+03  0.17212124628E+03  0.00000000000E+00 0. -1.
         -1   -1    0    0    0  501 -0.00000000000E+00 -0.00000000000E+00 -0.58793043737E+02  0.58793043737E+02  0.00000000000E+00 0.  1.
         25    2    1    2    0    0  0.31514661698E+01  0.42564874236E+02  0.10427926982E+03  0.16835033250E+03  0.12508384421E+03 0.  0.
          5    1    3    3  502    0 -0.38058139493E+02  0.13466217776E+02 -0.11335482864E+02  0.42139370838E+02  0.41800000000E+01 0.  1.
         -5    1    3    3    0  502  0.41209605663E+02  0.29098656460E+02  0.11561475268E+03  0.12621096166E+03  0.41800000000E+01 0.  1.
        -11    1    1    2    0    0 -0.15975967319E+02 -0.17441245394E+02 -0.12791372724E+02  0.26889547948E+02  0.00000000000E+00 0.  1.
         11    1    1    2    0    0  0.12824501149E+02 -0.25123628842E+02  0.21840305453E+02  0.35674409570E+02  0.00000000000E+00 0. -1.
</event>
<event>
 7    1  0.3056346E-009  0.8116286E+02  0.7561462E-02  0.1325783E+00
         -2   -1    0    0    0  501 -0.00000000000E+00  0.00000000000E+00  0.65540322894E+02  0.65540322894E+02  0.00000000000E+00 0.  1.
          2   -1    0    0  501    0  0.00000000000E+00 -0.00000000000E+00 -0.18422993283E+03  0.18422993283E+03  0.00000000000E+00 0. -1.
         25    2    1    2    0    0 -0.74799837200E+01  0.81731273927E+01 -0.79840641857E+02  0.14881074203E+03  0.12508940276E+03 0.  0.
          5    1    3    3  502    0 -0.35966122773E+02 -0.34136562450E+02 -0.83820858151E+02  0.97479616046E+02  0.41800000000E+01 0.  1.
         -5    1    3    3    0  502  0.28486139053E+02  0.42309689843E+02  0.39802162939E+01  0.51331125981E+02  0.41800000000E+01 0.  1.
        -11    1    1    2    0    0  0.25477933353E+02  0.16862514077E+02  0.18592855492E+02  0.35765398702E+02  0.00000000000E+00 0.  1.
         11    1    1    2    0    0 -0.17997949633E+02 -0.25035641470E+02 -0.57441823574E+02  0.65194114998E+02  0.00000000000E+00 0. -1.
</event>
<event>
 7    1  0.3056346E-009  0.9500374E+02  0.7561462E-02  0.1291168E+00
         -1   -1    0    0    0  501 -0.00000000000E+00  0.00000000000E+00  0.52450281770E+02  0.52450281770E+02  0.00000000000E+00 0.  1.
          1   -1    0    0  501    0  0.00000000000E+00 -0.00000000000E+00 -0.29113246432E+03  0.29113246432E+03  0.00000000000E+00 0. -1.
         25    2    1    2    0    0  0.30109716265E+02 -0.20607252654E+02 -0.19705817269E+03  0.23623956452E+03  0.12508379008E+03 0.  0.
          5    1    3    3  502    0  0.61615748221E+02 -0.54927895509E+02 -0.13857827430E+03  0.16135360127E+03  0.41800000000E+01 0.  1.
         -5    1    3    3    0  502 -0.31506031956E+02  0.34320642855E+02 -0.58479898396E+02  0.74885963251E+02  0.41800000000E+01 0.  1.
        -11    1    1    2    0    0 -0.12821225283E+02  0.35511497190E+02  0.19214695196E+02  0.42363365800E+02  0.00000000000E+00 0.  1.
         11    1    1    2    0    0 -0.17288490981E+02 -0.14904244536E+02 -0.60838705052E+02  0.64979815774E+02  0.00000000000E+00 0. -1.
</event>
<event>
 7    1  0.3056346E-009  0.1096168E+03  0.7561462E-02  0.1261281E+00
         -1   -1    0    0    0  501 -0.00000000000E+00  0.00000000000E+00  0.16800724371E+02  0.16800724371E+02  0.00000000000E+00 0.  1.
          1   -1    0    0  501    0  0.00000000000E+00 -0.00000000000E+00 -0.87704116894E+03  0.87704116894E+03  0.00000000000E+00 0. -1.
         25    2    1    2    0    0 -0.26900144149E+02 -0.10133510278E+02 -0.65097499917E+03  0.66350755622E+03  0.12509005491E+03 0.  0.
          5    1    3    3  502    0  0.36156554673E+02 -0.41932139241E+02 -0.34659075696E+03  0.35101029323E+03  0.41800000000E+01 0. -1.
         -5    1    3    3    0  502 -0.63056698822E+02  0.31798628963E+02 -0.30438424221E+03  0.31249726299E+03  0.41800000000E+01 0. -1.
        -11    1    1    2    0    0  0.55339234236E+01 -0.38997314427E+02 -0.60269602045E+02  0.71998887295E+02  0.00000000000E+00 0.  1.
         11    1    1    2    0    0  0.21366220725E+02  0.49130824705E+02 -0.14899584335E+03  0.15833544979E+03  0.00000000000E+00 0. -1.
</event>
<event>
 7    1  0.3056346E-009  0.2341758E+03  0.7561462E-02  0.1123735E+00
         -1   -1    0    0    0  501 -0.00000000000E+00  0.00000000000E+00  0.38432338134E+02  0.38432338134E+02  0.00000000000E+00 0.  1.
          1   -1    0    0  501    0  0.00000000000E+00 -0.00000000000E+00 -0.14616630112E+04  0.14616630112E+04  0.00000000000E+00 0. -1.
         25    2    1    2    0    0  0.11248330349E+03  0.17665671538E+03 -0.79283698649E+03  0.82951711554E+03  0.12509224267E+03 0.  0.
          5    1    3    3  502    0 -0.24928627719E+02  0.27145497493E+02 -0.18380101562E+03  0.18750626725E+03  0.41800000000E+01 0. -1.
         -5    1    3    3    0  502  0.13741193121E+03  0.14951121788E+03 -0.60903597087E+03  0.64201084829E+03  0.41800000000E+01 0. -1.
        -11    1    1    2    0    0 -0.37448377613E+02 -0.13946461984E+03 -0.41988532026E+03  0.44402302119E+03  0.00000000000E+00 0. -1.
         11    1    1    2    0    0 -0.75034925874E+02 -0.37192095533E+02 -0.21050836633E+03  0.22655521262E+03  0.00000000000E+00 0.  1.
</event>
<event>
 7    1  0.3056346E-009  0.2358367E+03  0.7561462E-02  0.1122598E+00
         -2   -1    0    0    0  501 -0.00000000000E+00  0.00000000000E+00  0.19141156619E+03  0.19141156619E+03  0.00000000000E+00 0.  1.
          2   -1    0    0  501    0  0.00000000000E+00 -0.00000000000E+00 -0.30837166950E+03  0.30837166950E+03  0.00000000000E+00 0. -1.
         25    2    1    2    0    0  0.83102361174E+02  0.19664403816E+03 -0.28868011506E+02  0.24911363815E+03  0.12509741183E+03 0.  0.
          5    1    3    3  502    0  0.10718262278E+03  0.12091908710E+03 -0.45293693280E+02  0.16786462195E+03  0.41800000000E+01 0. -1.
         -5    1    3    3    0  502 -0.24080261606E+02  0.75724951057E+02  0.16425681774E+02  0.81249016200E+02  0.41800000000E+01 0. -1.
        -11    1    1    2    0    0 -0.78578061496E+02 -0.74645213771E+02 -0.17907472612E+02  0.10985034029E+03  0.00000000000E+00 0. -1.
         11    1    1    2    0    0 -0.45242996776E+01 -0.12199882439E+03 -0.70184619193E+02  0.14081925724E+03  0.00000000000E+00 0.  1.
</event>
<event>
 7    1  0.3056346E-009  0.1160724E+03  0.7561462E-02  0.1249721E+00
          1   -1    0    0  501    0  0.00000000000E+00  0.00000000000E+00  0.20635619231E+03  0.20635619231E+03  0.00000000000E+00 0. -1.
         -1   -1    0    0    0  501 -0.00000000000E+00 -0.00000000000E+00 -0.15162342000E+03  0.15162342000E+03  0.00000000000E+00 0.  1.
         25    2    1    2    0    0  0.68070507687E+02  0.43357730370E+02 -0.85869873660E+02  0.17185401884E+03  0.12508669710E+03 0.  0.
          5    1    3    3  502    0  0.10455550575E+01 -0.19164383765E+02  0.22493516099E+02  0.29862978032E+02  0.41800000000E+01 0. -1.
         -5    1    3    3    0  502  0.67024952629E+02  0.62522114135E+02 -0.10836338976E+03  0.14199104081E+03  0.41800000000E+01 0. -1.
        -11    1    1    2    0    0 -0.15645788949E+02  0.28076078410E+02  0.49664164428E+02  0.59157299796E+02  0.00000000000E+00 0.  1.
         11    1    1    2    0    0 -0.52424718738E+02 -0.71433808781E+02  0.90938481545E+02  0.12696829367E+03  0.00000000000E+00 0. -1.
</event>
<event>
 7    1  0.3056346E-009  0.1057409E+03  0.7561462E-02  0.1268667E+00
          2   -1    0    0  501    0  0.00000000000E+00  0.00000000000E+00  0.10165639260E+04  0.10165639260E+04  0.00000000000E+00 0. -1.
         -2   -1    0    0    0  501 -0.00000000000E+00 -0.00000000000E+00 -0.12972385473E+02  0.12972385473E+02  0.00000000000E+00 0.  1.
         25    2    1    2    0    0 -0.27747195116E+02 -0.88933201047E+01  0.46840098159E+03  0.48568928977E+03  0.12508240749E+03 0.  0.
          5    1    3    3  502    0  0.33510672958E+02 -0.34876355225E+02  0.98338375705E+02  0.10966874620E+03  0.41800000000E+01 0.  1.
         -5    1    3    3    0  502 -0.61257868074E+02  0.25983035120E+02  0.37006260589E+03  0.37602054358E+03  0.41800000000E+01 0.  1.
        -11    1    1    2    0    0  0.19032478637E+02  0.50388321731E+02  0.32324646220E+03  0.32770336210E+03  0.00000000000E+00 0. -1.
         11    1    1    2    0    0  0.87147164794E+01 -0.41495001627E+02  0.21194409671E+03  0.21614365957E+03  0.00000000000E+00 0.  1.
</event>
<event>
 7    1  0.3056346E-009  0.1041473E+03  0.7561462E-02  0.1271809E+00
          2   -1    0    0  501    0  0.00000000000E+00  0.00000000000E+00  0.66482998118E+02  0.66482998118E+02  0.00000000000E+00 0.  1.
         -2   -1    0    0    0  501 -0.00000000000E+00 -0.00000000000E+00 -0.28350752298E+03  0.28350752298E+03  0.00000000000E+00 0. -1.
         25    2    1    2    0    0 -0.90237838543E+01  0.24159425371E+02 -0.19283366385E+02  0.12916582434E+03  0.12508739125E+03 0.  0.
          5    1    3    3  502    0  0.45880516146E+02  0.44634063813E+02  0.75356539169E+01  0.64586994776E+02  0.41800000000E+01 0.  1.
         -5    1    3    3    0  502 -0.54904300000E+02 -0.20474638441E+02 -0.26819020302E+02  0.64578829563E+02  0.41800000000E+01 0.  1.
        -11    1    1    2    0    0  0.27191782047E+02 -0.48156560725E+02 -0.17373559770E+03  0.18232527324E+03  0.00000000000E+00 0. -1.
         11    1    1    2    0    0 -0.18167998193E+02  0.23997135353E+02 -0.24005560775E+02  0.38499423523E+02  0.00000000000E+00 0.  1.
</event>
<event>
 7    1  0.3056346E-009  0.7887823E+02  0.7561462E-02  0.1332265E+00
         -1   -1    0    0    0  501 -0.00000000000E+00  0.00000000000E+00  0.12687720896E+03  0.12687720896E+03  0.00000000000E+00 0.  1.
          1   -1    0    0  501    0  0.00000000000E+00 -0.00000000000E+00 -0.13332138259E+03  0.13332138259E+03  0.00000000000E+00 0. -1.
         25    2    1    2    0    0  0.56260812769E+02 -0.36565670208E+02 -0.29359670482E+02  0.14495562270E+03  0.12509122675E+03 0.  0.
          5    1    3    3  502    0  0.24731789931E+02  0.91368238766E+01 -0.70722656221E+02  0.75593051841E+02  0.41800000000E+01 0. -1.
         -5    1    3    3    0  502  0.31529022838E+02 -0.45702494084E+02  0.41362985738E+02  0.69362570856E+02  0.41800000000E+01 0. -1.
        -11    1    1    2    0    0 -0.48320696705E+01  0.21145811240E+02 -0.31859409557E+02  0.38542394939E+02  0.00000000000E+00 0. -1.
         11    1    1    2    0    0 -0.51428743099E+02  0.15419858967E+02  0.54774906412E+02  0.76700573921E+02  0.00000000000E+00 0.  1.
</event>
<event>
 7    1  0.3056346E-009  0.1551867E+03  0.7561462E-02  0.1194241E+00
         -1   -1    0    0    0  501 -0.00000000000E+00  0.00000000000E+00  0.42231066399E+03  0.42231066399E+03  0.00000000000E+00 0.  1.
          1   -1    0    0  501    0  0.00000000000E+00 -0.00000000000E+00 -0.90762405794E+02  0.90762405794E+02  0.00000000000E+00 0. -1.
         25    2    1    2    0    0  0.96905415717E+02 -0.54710229578E+02  0.32929103909E+03  0.36941023254E+03  0.12508981839E+03 0.  0.
          5    1    3    3  502    0  0.79440009551E+01 -0.75013355978E+02  0.13450691955E+03  0.15427149617E+03  0.41800000000E+01 0.  1.
         -5    1    3    3    0  502  0.88961414762E+02  0.20303126400E+02  0.19478411955E+03  0.21513873637E+03  0.41800000000E+01 0.  1.
        -11    1    1    2    0    0 -0.10845735460E+03  0.24574726561E+02  0.46212306687E+01  0.11130260880E+03  0.00000000000E+00 0. -1.
         11    1    1    2    0    0  0.11551938885E+02  0.30135503017E+02 -0.23640115659E+01  0.32360228442E+02  0.00000000000E+00 0.  1.
</event>
<event>
 7    1  0.3056346E-009  0.9119771E+02  0.7561462E-02  0.1299977E+00
          1   -1    0    0  501    0  0.00000000000E+00  0.00000000000E+00  0.43813606262E+03  0.43813606262E+03  0.00000000000E+00 0. -1.
         -1   -1    0    0    0  501 -0.00000000000E+00 -0.00000000000E+00 -0.31973248718E+02  0.31973248718E+02  0.00000000000E+00 0.  1.
         25    2    1    2    0    0  0.36858767062E+02 -0.12732847432E+02  0.18116448255E+03  0.22358075223E+03  0.12508832447E+03 0.  0.
          5    1    3    3  502    0  0.58449416048E+02 -0.26106427393E+02  0.31040229816E+02  0.71266037175E+02  0.41800000000E+01 0. -1.
         -5    1    3    3    0  502 -0.21590648986E+02  0.13373579962E+02  0.15012425273E+03  0.15231471506E+03  0.41800000000E+01 0. -1.
        -11    1    1    2    0    0 -0.37452348112E+02  0.45952005969E+02  0.92016622850E+02  0.10945923493E+03  0.00000000000E+00 0.  1.
         11    1    1    2    0    0  0.59358105034E+00 -0.33219158537E+02  0.13298170850E+03  0.13706932417E+03  0.00000000000E+00 0. -1.
</event>
<event>
 6    1  0.3056346E-009  0.9449878E+02  0.7561462E-02  0.1292309E+00
         -1   -1    0    0    0  501 -0.00000000000E+00  0.00000000000E+00  0.26784511649E+03  0.26784511649E+03  0.00000000000E+00 0.  1.
          1   -1    0    0  501    0  0.00000000000E+00 -0.00000000000E+00 -0.48428066483E+02  0.48428066483E+02  0.00000000000E+00 0. -1.
          5    1    1    2  502    0 -0.14502744520E+02  0.47845005398E+02  0.13718125385E+03  0.14606725488E+03  0.41800000000E+01 0. -1.
         -5    1    1    2    0  502  0.41416324353E+02 -0.31249312009E+02  0.16384578241E+02  0.54568839350E+02  0.41800000000E+01 0. -1.
        -11    1    1    2    0    0 -0.16145906115E+02 -0.49547022473E+02  0.61640197108E+02  0.80716241363E+02  0.00000000000E+00 0.  1.
         11    1    1    2    0    0 -0.10767673718E+02  0.32951329083E+02  0.42110208092E+01  0.34920847382E+02  0.00000000000E+00 0. -1.
</event>
<event>
 7    1  0.3056346E-009  0.9811437E+02  0.7561462E-02  0.1284312E+00
          1   -1    0    0  501    0  0.00000000000E+00  0.00000000000E+00  0.12225094426E+04  0.12225094426E+04  0.00000000000E+00 0. -1.
         -1   -1    0    0    0  501 -0.00000000000E+00 -0.00000000000E+00 -0.11690770084E+02  0.11690770084E+02  0.00000000000E+00 0.  1.
         25    2    1    2    0    0  0.42378364716E+02 -0.27201433831E+02  0.73087669836E+03  0.74321195055E+03  0.12508961361E+03 0.  0.
          5    1    3    3  502    0  0.95124512437E+01 -0.51977745545E+02  0.65193921327E+03  0.65409050058E+03  0.41800000000E+01 0. -1.
         -5    1    3    3    0  502  0.32865913473E+02  0.24776311714E+02  0.78937485095E+02  0.89121449964E+02  0.41800000000E+01 0. -1.
        -11    1    1    2    0    0  0.24123712667E+02 -0.94623423865E+01  0.87064725995E+02  0.90839176289E+02  0.00000000000E+00 0. -1.
         11    1    1    2    0    0 -0.66502077384E+02  0.36663776217E+02  0.39287724819E+03  0.40014908587E+03  0.00000000000E+00 0.  1.
</event>
<event>
 7    1  0.3056346E-009  0.1478950E+03  0.7561462E-02  0.1203084E+00
          1   -1    0    0  501    0  0.00000000000E+00  0.00000000000E+00  0.19190649181E+03  0.19190649181E+03  0.00000000000E+00 0. -1.
         -1   -1    0    0    0  501 -0.00000000000E+00 -0.00000000000E+00 -0.12812760422E+03  0.12812760422E+03  0.00000000000E+00 0.  1.
         25    2    1    2    0    0  0.76330267262E+02  0.74463190674E+02  0.61390364832E+02  0.17546259092E+03  0.12508903811E+03 0.  0.
          5    1    3    3  502    0  0.84654485918E+02  0.10200883367E+03  0.61945568696E+02  0.14637933602E+03  0.41800000000E+01 0. -1.
         -5    1    3    3    0  502 -0.83242186563E+01 -0.27545642998E+02 -0.55520386398E+00  0.29083254903E+02  0.41800000000E+01 0. -1.
        -11    1    1    2    0    0 -0.86648053637E+02 -0.83527217224E+02  0.20246336499E+02  0.12204341587E+03  0.00000000000E+00 0.  1.
         11    1    1    2    0    0  0.10317786375E+02  0.90640265508E+01 -0.17857813734E+02  0.22528089230E+02  0.00000000000E+00 0. -1.
</event>
<event>
 7    1  0.3056346E-009  0.9308286E+02  0.7561462E-02  0.1295553E+00
         -2   -1    0    0    0  501 -0.00000000000E+00  0.00000000000E+00  0.28360135423E+02  0.28360135423E+02  0.00000000000E+00 0.  1.
          2   -1    0    0  501    0  0.00000000000E+00 -0.00000000000E+00 -0.84758673036E+03  0.84758673036E+03  0.00000000000E+00 0. -1.
         25    2    1    2    0    0  0.58196476512E+02 -0.34611558106E+02 -0.68711887552E+03  0.70168562594E+03  0.12508228782E+03 0.  0.
          5    1    3    3  502    0  0.10747710165E+02  0.53168645181E+01 -0.97890711870E+00  0.12736286007E+02  0.41800000000E+01 0.  1.
         -5    1    3    3    0  502  0.47448766347E+02 -0.39928422625E+02 -0.68613996840E+03  0.68894933994E+03  0.41800000000E+01 0.  1.
        -11    1    1    2    0    0  0.98778877414E+01 -0.21132458148E+02 -0.14809153392E+02  0.27630860967E+02  0.00000000000E+00 0.  1.
         11    1    1    2    0    0 -0.68074364254E+02  0.55744016254E+02 -0.11729856602E+03  0.14663037887E+03  0.00000000000E+00 0. -1.
</event>
<event>
 7    1  0.3056346E-009  0.1906094E+03  0.7561462E-02  0.1157913E+00
         -1   -1    0    0    0  501 -0.00000000000E+00  0.00000000000E+00  0.25014050011E+03  0.25014050011E+03  0.00000000000E+00 0.  1.
          1   -1    0    0  501    0  0.00000000000E+00 -0.00000000000E+00 -0.17484903100E+03  0.17484903100E+03  0.00000000000E+00 0. -1.
         25    2    1    2    0    0 -0.75899385586E+02 -0.14864087575E+03  0.10454656719E+03  0.23330796149E+03  0.12509114080E+03 0.  0.
          5    1    3    3  502    0 -0.10009243288E+03 -0.15160112619E+03  0.10216974388E+03  0.20846468657E+03  0.41800000000E+01 0. -1.
         -5    1    3    3    0  502  0.24193047292E+02  0.29602504361E+01  0.23768233147E+01  0.24843274925E+02  0.41800000000E+01 0. -1.
        -11    1    1    2    0    0 -0.60516836639E+00  0.49728198885E+02 -0.43180286994E+02  0.65861955467E+02  0.00000000000E+00 0. -1.
         11    1    1    2    0    0  0.76504553952E+02  0.98912676865E+02  0.13925188903E+02  0.12581961415E+03  0.00000000000E+00 0.  1.
</event>
<event>
 7    1  0.3056346E-009  0.1089537E+03  0.7561462E-02  0.1262520E+00
         -2   -1    0    0    0  501 -0.00000000000E+00  0.00000000000E+00  0.35308304527E+03  0.35308304527E+03  0.00000000000E+00 0.  1.
          2   -1    0    0  501    0  0.00000000000E+00 -0.00000000000E+00 -0.44955480874E+02  0.44955480874E+02  0.00000000000E+00 0. -1.
         25    2    1    2    0    0  0.45358996065E+02  0.44383244388E+02  0.14499158315E+03  0.20173694483E+03  0.12509166567E+03 0.  0.
          5    1    3    3  502    0 -0.26449885501E+02  0.17486579595E+02  0.11488179172E+03  0.11925047328E+03  0.41800000000E+01 0. -1.
         -5    1    3    3    0  502  0.71808881566E+02  0.26896664792E+02  0.30109791429E+02  0.82486471549E+02  0.41800000000E+01 0. -1.
        -11    1    1    2    0    0 -0.18469399279E+02  0.27078483570E+02  0.51816146288E+02  0.61312935000E+02  0.00000000000E+00 0. -1.
         11    1    1    2    0    0 -0.26889596786E+02 -0.71461727958E+02  0.11131983496E+03  0.13498864631E+03  0.00000000000E+00 0.  1.
</event>
<event>
 7    1  0.3056346E-009  0.9181569E+02  0.7561462E-02  0.1298513E+00
          2   -1    0    0  501    0  0.00000000000E+00  0.00000000000E+00  0.38723220269E+03  0.38723220269E+03  0.00000000000E+00 0.  1.
         -2   -1    0    0    0  501 -0.00000000000E+00 -0.00000000000E+00 -0.37012548495E+02  0.37012548495E+02  0.00000000000E+00 0. -1.
         25    2    1    2    0    0 -0.48607059244E+02  0.28269496749E+01  0.19820031294E+03  0.23937775947E+03  0.12509080632E+03 0.  0.
          5    1    3    3  502    0 -0.13318124386E+02  0.46262814723E+02  0.16967947952E+03  0.17642624134E+03  0.41800000000E+01 0. -1.
         -5    1    3    3    0  502 -0.35288934858E+02 -0.43435865048E+02  0.28520833420E+02  0.62951518130E+02  0.41800000000E+01 0. -1.
        -11    1    1    2    0    0  0.50488457527E+02  0.21437585751E+02  0.34376852239E+02  0.64733471992E+02  0.00000000000E+00 0. -1.
         11    1    1    2    0    0 -0.18813982826E+01 -0.24264535426E+02  0.11764248902E+03  0.12013351972E+03  0.00000000000E+00 0.  1.
</event>
<event>
 7    1  0.3056346E-009  0.1512489E+03  0.7561462E-02  0.1198947E+00
         -1   -1    0    0    0  501 -0.00000000000E+00  0.00000000000E+00  0.45752067636E+03  0.45752067636E+03  0.00000000000E+00 0.  1.
          1   -1    0    0  501    0  0.00000000000E+00 -0.00000000000E+00 -0.65275609405E+02  0.65275609405E+02  0.00000000000E+00 0. -1.
         25    2    1    2    0    0 -0.54498202303E+02  0.10871143540E+03  0.30099459115E+03  0.34790247474E+03  0.12510059068E+03 0.  0.
          5    1    3    3  502    0 -0.11344411611E+02 -0.21835165220E+02  0.10834859895E+03  0.11118615655E+03  0.41800000000E+01 0. -1.
         -5    1    3    3    0  502 -0.43153790692E+02  0.13054660062E+03  0.19264599220E+03  0.23671631819E+03  0.41800000000E+01 0. -1.
        -11    1    1    2    0    0 -0.16266539169E+02 -0.12332677991E+02 -0.54367588052E+01  0.21124715129E+02  0.00000000000E+00 0. -1.
         11    1    1    2    0    0  0.70764741472E+02 -0.96378757411E+02  0.96687234607E+02  0.15376909589E+03  0.00000000000E+00 0.  1.
</event>
<event>
 7    1  0.3056346E-009  0.1100692E+03  0.7561462E-02  0.1260442E+00
         -1   -1    0    0    0  501 -0.00000000000E+00  0.00000000000E+00  0.21161655371E+02  0.21161655371E+02  0.00000000000E+00 0.  1.
          1   -1    0    0  501    0  0.00000000000E+00 -0.00000000000E+00 -0.70692981153E+03  0.70692981153E+03  0.00000000000E+00 0. -1.
         25    2    1    2    0    0  0.20360065539E+02  0.17408923937E+02 -0.53666964822E+03  0.55170589293E+03  0.12508987998E+03 0.  0.
          5    1    3    3  502    0 -0.28671872841E+02  0.57058261966E+02 -0.29956388815E+03  0.30632289669E+03  0.41800000000E+01 0. -1.
         -5    1    3    3    0  502  0.49031938379E+02 -0.39649338029E+02 -0.23710576007E+03  0.24538299625E+03  0.41800000000E+01 0. -1.
        -11    1    1    2    0    0  0.28384371056E+02 -0.31310394259E+02 -0.82472723717E+02  0.92670186501E+02  0.00000000000E+00 0. -1.
         11    1    1    2    0    0 -0.48744436594E+02  0.13901470323E+02 -0.66625784221E+02  0.83715387469E+02  0.00000000000E+00 0.  1.
</event>
<event>
 7    1  0.3056346E-009  0.9122676E+02  0.7561462E-02  0.1299908E+00
         -2   -1    0    0    0  501 -0.00000000000E+00  0.00000000000E+00  0.48249685638E+02  0.48249685638E+02  0.00000000000E+00 0.  1.
          2   -1    0    0  501    0  0.00000000000E+00 -0.00000000000E+00 -0.40581967843E+03  0.40581967843E+03  0.00000000000E+00 0. -1.
         25    2    1    2    0    0 -0.28975868979E+02 -0.72804115582E+02 -0.23799504837E+03  0.28005168035E+03  0.12508900985E+03 0.  0.
          5    1    3    3  502    0  0.93091574944E+01 -0.37947920526E+01  0.12972267503E+02  0.16935553848E+02  0.41800000000E+01 0.  1.
         -5    1    3    3    0  502 -0.38285026473E+02 -0.69009323529E+02 -0.25096731588E+03  0.26311612650E+03  0.41800000000E+01 0.  1.
        -11    1    1    2    0    0 -0.10934031790E+02  0.38137681118E+02 -0.11418364880E+03  0.12087986361E+03  0.00000000000E+00 0. -1.
         11    1    1    2    0    0  0.39909900768E+02  0.34666434464E+02 -0.53912956152E+01  0.53137820111E+02  0.00000000000E+00 0.  1.
</event>
<event>
 7    1  0.3496368E-009  0.2250482E+03  0.7561462E-02  0.1130174E+00
          1   -1    0    0  501    0  0.00000000000E+00  0.00000000000E+00  0.16947318791E+04  0.16947318791E+04  0.00000000000E+00 0. -1.
         -1   -1    0    0    0  501 -0.00000000000E+00 -0.00000000000E+00 -0.34629463640E+02  0.34629463640E+02  0.00000000000E+00 0.  1.
         25    2    1    2    0    0  0.17879638923E+03  0.11690595922E+03  0.97396987998E+03  0.10049407872E+04  0.12511397456E+03 0.  0.
          5    1    3    3  502    0  0.15973014410E+03  0.86396609888E+02  0.54561990077E+03  0.57506229372E+03  0.41800000000E+01 0. -1.
         -5    1    3    3    0  502  0.19066245129E+02  0.30509349329E+02  0.42834997921E+03  0.42987849351E+03  0.41800000000E+01 0.  1.
        -11    1    1    2    0    0 -0.13912275085E+03 -0.38488976166E+02  0.43956815132E+03  0.46266262086E+03  0.00000000000E+00 0. -1.
         11    1    1    2    0    0 -0.39673638381E+02 -0.78416983051E+02  0.24656438414E+03  0.26175793462E+03  0.00000000000E+00 0.  1.
</event>
<event>
 7    1  0.3056346E-009  0.9759202E+02  0.7561462E-02  0.1285443E+00
         -1   -1    0    0    0  501 -0.00000000000E+00  0.00000000000E+00  0.46377724484E+03  0.46377724484E+03  0.00000000000E+00 0.  1.
          1   -1    0    0  501    0  0.00000000000E+00 -0.00000000000E+00 -0.40640232188E+02  0.40640232188E+02  0.00000000000E+00 0. -1.
         25    2    1    2    0    0 -0.57975919281E+02 -0.36999587268E+02  0.15405583798E+03  0.21002998429E+03  0.12509682814E+03 0.  0.
          5    1    3    3  502    0 -0.13299070098E+02  0.12769095621E+02 -0.17555882895E+02  0.25799156821E+02  0.41800000000E+01 0. -1.
         -5    1    3    3    0  502 -0.44676849183E+02 -0.49768682890E+02  0.17161172087E+03  0.18423082747E+03  0.41800000000E+01 0. -1.
        -11    1    1    2    0    0 -0.19989515223E+02 -0.51458250427E+01  0.15641571598E+02  0.25898243112E+02  0.00000000000E+00 0. -1.
         11    1    1    2    0    0  0.77965434504E+02  0.42145412311E+02  0.25343960308E+03  0.26848924963E+03  0.00000000000E+00 0.  1.
</event>
<event>
 7    1  0.3056346E-009  0.1258245E+03  0.7561462E-02  0.1233786E+00
          2   -1    0    0  501    0  0.00000000000E+00  0.00000000000E+00  0.13550302262E+03  0.13550302262E+03  0.00000000000E+00 0.  1.
         -2   -1    0    0    0  501 -0.00000000000E+00 -0.00000000000E+00 -0.12161306706E+03  0.12161306706E+03  0.00000000000E+00 0. -1.
         25    2    1    2    0    0 -0.63308594143E+02  0.25686211928E+02  0.16508142712E+02  0.14348439984E+03  0.12508994622E+03 0.  0.
          5    1    3    3  502    0  0.35808665987E+02  0.12177981034E+02 -0.11077868008E+02  0.39632755915E+02  0.41800000000E+01 0.  1.
         -5    1    3    3    0  502 -0.99117260130E+02  0.13508230894E+02  0.27586010720E+02  0.10385164392E+03  0.41800000000E+01 0.  1.
        -11    1    1    2    0    0  0.63681461903E+02 -0.55008667076E+02  0.40604951710E+00  0.84151333440E+02  0.00000000000E+00 0.  1.
         11    1    1    2    0    0 -0.37286776003E+00  0.29322455148E+02 -0.30242366686E+01  0.29480356404E+02  0.00000000000E+00 0. -1.
</event>
<event>
 7    1  0.3056346E-009  0.9743743E+02  0.7561462E-02  0.1285779E+00
         -2   -1    0    0    0  501 -0.00000000000E+00  0.00000000000E+00  0.20130947053E+02  0.20130947053E+02  0.00000000000E+00 0.  1.
          2   -1    0    0  501    0  0.00000000000E+00 -0.00000000000E+00 -0.80712378512E+03  0.80712378512E+03  0.00000000000E+00 0. -1.
         25    2    1    2    0    0  0.31889820805E+02  0.57578814946E+02 -0.46154403642E+03  0.48270331463E+03  0.12508921533E+03 0.  0.
          5    1    3    3  502    0  0.31816651426E+02  0.76993185015E+01 -0.40827767108E+03  0.40960921366E+03  0.41800000000E+01 0.  1.
         -5    1    3    3    0  502  0.73169379211E-01  0.49879496444E+02 -0.53266365345E+02  0.73094100968E+02  0.41800000000E+01 0.  1.
        -11    1    1    2    0    0  0.23238458693E+02 -0.51321322025E+02 -0.13778107604E+03  0.14885405258E+03  0.00000000000E+00 0.  1.
         11    1    1    2    0    0 -0.55128279498E+02 -0.62574929205E+01 -0.18766772560E+03  0.19569736496E+03  0.00000000000E+00 0. -1.
</event>
<event>
 7    1  0.3056346E-009  0.1011180E+03  0.7561462E-02  0.1277962E+00
          1   -1    0    0  501    0  0.00000000000E+00  0.00000000000E+00  0.21106105040E+03  0.21106105040E+03  0.00000000000E+00 0. -1.
         -1   -1    0    0    0  501 -0.00000000000E+00 -0.00000000000E+00 -0.64697935748E+02  0.64697935748E+02  0.00000000000E+00 0.  1.
         25    2    1    2    0    0  0.10124335227E+02 -0.41003876100E+02  0.61815135256E+02  0.14578130782E+03  0.12508900329E+03 0.  0.
          5    1    3    3  502    0 -0.13618892806E+02 -0.66837819366E+02  0.80673569208E+02  0.10572826258E+03  0.41800000000E+01 0. -1.
         -5    1    3    3    0  502  0.23743228033E+02  0.25833943266E+02 -0.18858433952E+02  0.40053045243E+02  0.41800000000E+01 0. -1.
        -11    1    1    2    0    0 -0.48828773573E+02  0.33285679464E+02  0.47043171554E+02  0.75533076039E+02  0.00000000000E+00 0. -1.
         11    1    1    2    0    0  0.38704438346E+02  0.77181966358E+01  0.37504807841E+02  0.54444602287E+02  0.00000000000E+00 0.  1.
</event>
<event>
 7    1  0.3056346E-009  0.1708310E+03  0.7561462E-02  0.1176984E+00
         -3   -1    0    0    0  501 -0.00000000000E+00  0.00000000000E+00  0.14002698609E+03  0.14002698609E+03  0.00000000000E+00 0.  1.
          3   -1    0    0  501    0  0.00000000000E+00 -0.00000000000E+00 -0.23803782595E+03  0.23803782595E+03  0.00000000000E+00 0. -1.
         25    2    1    2    0    0  0.28416819858E+02  0.13847450705E+03 -0.68950174115E+01  0.18888761729E+03  0.12509310912E+03 0.  0.
          5    1    3    3  502    0 -0.44619456591E+02  0.27547956729E+02 -0.17870908966E+02  0.55557426269E+02  0.41800000000E+01 0.  1.
         -5    1    3    3    0  502  0.73036276449E+02  0.11092655032E+03  0.10975891554E+02  0.13333019102E+03  0.41800000000E+01 0.  1.
        -11    1    1    2    0    0  0.14707315275E+02 -0.90436781990E+02 -0.83874215696E+02  0.12421755398E+03  0.00000000000E+00 0.  1.
         11    1    1    2    0    0 -0.43124135133E+02 -0.48037725056E+02 -0.72416067523E+01  0.64959640762E+02  0.00000000000E+00 0. -1.
</event>
<event>
 7    1  0.3056346E-009  0.8063468E+02  0.7561462E-02  0.1327260E+00
          1   -1    0    0  501    0  0.00000000000E+00  0.00000000000E+00  0.53652942935E+03  0.53652942935E+03  0.00000000000E+00 0. -1.
         -1   -1    0    0    0  501 -0.00000000000E+00 -0.00000000000E+00 -0.34457893219E+02  0.34457893219E+02  0.00000000000E+00 0.  1.
         25    2    1    2    0    0  0.91828062489E+01  0.78845761150E+02  0.23625904599E+03  0.27885858256E+03  0.12507115685E+03 0.  0.
          5    1    3    3  502    0  0.14645641870E+02  0.55639815734E+02  0.19709837871E+02  0.60960922152E+02  0.41800000000E+01 0.  1.
         -5    1    3    3    0  502 -0.54628356212E+01  0.23205945416E+02  0.21654920812E+03  0.21789766041E+03  0.41800000000E+01 0.  1.
        -11    1    1    2    0    0 -0.69180862316E+01 -0.59269552115E+02  0.26580629723E+03  0.27242196566E+03  0.00000000000E+00 0. -1.
         11    1    1    2    0    0 -0.22647200173E+01 -0.19576209035E+02  0.61929123758E-02  0.19706774350E+02  0.00000000000E+00 0.  1.
</event>
<event>
 7    1  0.3767632E-009  0.1036271E+03  0.7561462E-02  0.1272848E+00
         -2   -1    0    0    0  501 -0.00000000000E+00  0.00000000000E+00  0.82102056003E+02  0.82102056003E+02  0.00000000000E+00 0.  1.
          2   -1    0    0  501    0  0.00000000000E+00 -0.00000000000E+00 -0.20071032889E+03  0.20071032889E+03  0.00000000000E+00 0. -1.
         25    2    1    2    0    0  0.43945897128E+02  0.48935333257E+02 -0.42583875975E+02  0.14760139303E+03  0.12508747346E+03 0.  0.
          5    1    3    3  502    0 -0.26145173559E+02  0.64218913945E+02 -0.21357982991E+02  0.72672380215E+02  0.41800000000E+01 0. -1.
         -5    1    3    3    0  502  0.70091070687E+02 -0.15283580688E+02 -0.21225892984E+02  0.74929012817E+02  0.41800000000E+01 0. -1.
        -11    1    1    2    0    0 -0.19741725229E+02 -0.25414636582E+02 -0.92294351509E+02  0.97743985943E+02  0.00000000000E+00 0. -1.
         11    1    1    2    0    0 -0.24204171899E+02 -0.23520696675E+02  0.16269954601E+02  0.37467005913E+02  0.00000000000E+00 0.  1.
</event>
<event>
 7    1  0.3056346E-009  0.1154275E+03  0.7561462E-02  0.1250837E+00
          1   -1    0    0  501    0  0.00000000000E+00  0.00000000000E+00  0.32440535962E+03  0.32440535962E+03  0.00000000000E+00 0. -1.
         -1   -1    0    0    0  501 -0.00000000000E+00 -0.00000000000E+00 -0.70496452055E+02  0.70496452055E+02  0.00000000000E+00 0.  1.
         25    2    1    2    0    0  0.36566273580E+02 -0.18561187504E+02  0.11365487806E+02  0.13213153330E+03  0.12509179723E+03 0.  0.
          5    1    3    3  502    0 -0.43231678392E+02  0.12032210712E+02  0.11716415658E+02  0.46567144073E+02  0.41800000000E+01 0. -1.
         -5    1    3    3    0  502  0.79797951973E+02 -0.30593398216E+02 -0.35092785114E+00  0.85564389227E+02  0.41800000000E+01 0. -1.
        -11    1    1    2    0    0 -0.55242513744E+02 -0.18881478833E+02  0.12390919143E+03  0.13697347659E+03  0.00000000000E+00 0.  1.
         11    1    1    2    0    0  0.18676240163E+02  0.37442666337E+02  0.11863422833E+03  0.12579680179E+03  0.00000000000E+00 0. -1.
</event>
<event>
 7    1  0.3056346E-009  0.1166761E+03  0.7561462E-02  0.1248683E+00
          2   -1    0    0  501    0  0.00000000000E+00  0.00000000000E+00  0.24673516845E+03  0.24673516845E+03  0.00000000000E+00 0. -1.
         -2   -1    0    0    0  501 -0.00000000000E+00 -0.00000000000E+00 -0.71407892994E+02  0.71407892994E+02  0.00000000000E+00 0.  1.
         25    2    1    2    0    0 -0.71345535662E+02 -0.15782873932E+02  0.12312348703E+03  0.19012160667E+03  0.12509015827E+03 0.  0.
          5    1    3    3  502    0  0.14066603820E+02 -0.27378198040E+02 -0.89747293733E+01  0.32333469320E+02  0.41800000000E+01 0.  1.
         -5    1    3    3    0  502 -0.85412139481E+02  0.11595324108E+02  0.13209821640E+03  0.15778813735E+03  0.41800000000E+01 0.  1.
        -11    1    1    2    0    0  0.66676909642E+02  0.48812417587E+02  0.44216575251E+02  0.93720690976E+02  0.00000000000E+00 0.  1.
         11    1    1    2    0    0  0.46686260199E+01 -0.33029543655E+02  0.79872131803E+01  0.34300763801E+02  0.00000000000E+00 0. -1.
</event>
<event>
 7    1  0.3056346E-009  0.1800239E+03  0.7561462E-02  0.1167780E+00
         -2   -1    0    0    0  501 -0.00000000000E+00  0.00000000000E+00  0.74918118908E+02  0.74918118908E+02  0.00000000000E+00 0.  1.
          2   -1    0    0  501    0  0.00000000000E+00 -0.00000000000E+00 -0.47499476399E+03  0.47499476399E+03  0.00000000000E+00 0. -1.
         25    2    1    2    0    0 -0.50519137238E+02 -0.14243674915E+03 -0.17400010651E+03  0.26222448830E+03  0.12508091167E+03 0.  0.
          5    1    3    3  502    0 -0.76474559689E+02 -0.61056737191E+02 -0.13848388718E+03  0.16962176406E+03  0.41800000000E+01 0.  1.
         -5    1    3    3    0  502  0.25955422451E+02 -0.81380011957E+02 -0.35516219335E+02  0.92602724240E+02  0.41800000000E+01 0.  1.
        -11    1    1    2    0    0 -0.60360765613E+01  0.11236259950E+03 -0.16053730165E+03  0.19604594668E+03  0.00000000000E+00 0.  1.
         11    1    1    2    0    0  0.56555213799E+02  0.30074149649E+02 -0.65539236921E+02  0.91642447922E+02  0.00000000000E+00 0. -1.
</event>
<event>
 7    1  0.3168165E-009  0.1491112E+03  0.7561462E-02  0.1201569E+00
          2   -1    0    0  501    0  0.00000000000E+00  0.00000000000E+00  0.16535266400E+03  0.16535266400E+03  0.00000000000E+00 0. -1.
         -2   -1    0    0    0  501 -0.00000000000E+00 -0.00000000000E+00 -0.19127195719E+03  0.19127195719E+03  0.00000000000E+00 0.  1.
         25    2    1    2    0    0  0.11388070139E+03 -0.57986982823E+02 -0.72543508948E+02  0.19298161301E+03  0.12509211783E+03 0.  0.
          5    1    3    3  502    0  0.24617779814E+01 -0.50617958184E+02  0.12731230369E+02  0.52419411178E+02  0.41800000000E+01 0. -1.
         -5    1    3    3    0  502  0.11141892341E+03 -0.73690246392E+01 -0.85274739318E+02  0.14056220183E+03  0.41800000000E+01 0. -1.
        -11    1    1    2    0    0 -0.63575847559E+02  0.56892898784E+02 -0.12257060158E+02  0.86191216772E+02  0.00000000000E+00 0.  1.
         11    1    1    2    0    0 -0.50304853834E+02  0.10940840392E+01  0.58881275921E+02  0.77451791414E+02  0.00000000000E+00 0. -1.
</event>
<event>
 7    1  0.3056346E-009  0.1104386E+03  0.7561462E-02  0.1259760E+00
         -2   -1    0    0    0  501 -0.00000000000E+00  0.00000000000E+00  0.72227804335E+02  0.72227804335E+02  0.00000000000E+00 0.  1.
          2   -1    0    0  501    0  0.00000000000E+00 -0.00000000000E+00 -0.19548049588E+03  0.19548049588E+03  0.00000000000E+00 0. -1.
         25    2    1    2    0    0 -0.44155334297E+02  0.11943493617E+02 -0.88236939894E+02  0.15976669040E+03  0.12508915706E+03 0.  0.
          5    1    3    3  502    0  0.43628111369E+02 -0.15621597330E+01 -0.23275628982E+02  0.49649569476E+02  0.41800000000E+01 0. -1.
         -5    1    3    3    0  502 -0.87783445666E+02  0.13505653350E+02 -0.64961310912E+02  0.11011712092E+03  0.41800000000E+01 0. -1.
        -11    1    1    2    0    0 -0.21219033065E+02  0.18283873254E+01 -0.35188978386E+02  0.41132159733E+02  0.00000000000E+00 0. -1.
         11    1    1    2    0    0  0.65374367362E+02 -0.13771880942E+02  0.17322673506E+00  0.66809450082E+02  0.00000000000E+00 0.  1.
</event>
<event>
 7    1  0.3056346E-009  0.1132066E+03  0.7561462E-02  0.1254744E+00
          1   -1    0    0  501    0  0.00000000000E+00  0.00000000000E+00  0.12793020599E+03  0.12793020599E+03  0.00000000000E+00 0. -1.
         -1   -1    0    0    0  501 -0.00000000000E+00 -0.00000000000E+00 -0.10487930214E+03  0.10487930214E+03  0.00000000000E+00 0.  1.
         25    2    1    2    0    0 -0.25089252475E+02  0.39344301014E+02 -0.81312206817E+01  0.13375441306E+03  0.12508669654E+03 0.  0.
          5    1    3    3  502    0 -0.74334475971E+02  0.10372663674E+02  0.36817645806E+01  0.75261107220E+02  0.41800000000E+01 0.  1.
         -5    1    3    3    0  502  0.49245223496E+02  0.28971637340E+02 -0.11812985262E+02  0.58493305841E+02  0.41800000000E+01 0.  1.
        -11    1    1    2    0    0 -0.65439932145E+01 -0.57237898700E+02  0.17323097309E+02  0.60158877941E+02  0.00000000000E+00 0.  1.
         11    1    1    2    0    0  0.31633245689E+02  0.17893597685E+02  0.13859027219E+02  0.38896217122E+02  0.00000000000E+00 0. -1.
</event>
<event>
 7    1  0.3056346E-009  0.1496085E+03  0.7561462E-02  0.1200955E+00
          2   -1    0    0  501    0  0.00000000000E+00  0.00000000000E+00  0.91621700419E+03  0.91621700419E+03  0.00000000000E+00 0. -1.
         -2   -1    0    0    0  501 -0.00000000000E+00 -0.00000000000E+00 -0.32389761005E+02  0.32389761005E+02  0.00000000000E+00 0.  1.
         25    2    1    2    0    0  0.75904980965E+02  0.99038896673E+02  0.56489702735E+03  0.59188145999E+03  0.12507894303E+03 0.  0.
          5    1    3    3  502    0  0.97618022005E+02  0.75273636608E+02  0.53024064639E+03  0.54439692695E+03  0.41800000000E+01 0. -1.
         -5    1    3    3    0  502 -0.21713041040E+02  0.23765260066E+02  0.34656380952E+02  0.47484533039E+02  0.41800000000E+01 0. -1.
        -11    1    1    2    0    0 -0.88755347500E+02 -0.75182242068E+02  0.30463901839E+03  0.32609019114E+03  0.00000000000E+00 0. -1.
         11    1    1    2    0    0  0.12850366535E+02 -0.23856654605E+02  0.14291197445E+02  0.30635114060E+02  0.00000000000E+00 0.  1.
</event>
<event>
 7    1  0.3056346E-009  0.1055416E+03  0.7561462E-02  0.1269056E+00
         -3   -1    0    0    0  501 -0.00000000000E+00  0.00000000000E+00  0.38888508357E+03  0.38888508357E+03  0.00000000000E+00 0.  1.
          3   -1    0    0  501    0  0.00000000000E+00 -0.00000000000E+00 -0.50705269091E+02  0.50705269091E+02  0.00000000000E+00 0. -1.
         25    2    1    2    0    0  0.64039164418E+02 -0.53366363404E+02  0.21529214188E+03  0.26257787868E+03  0.12508977853E+03 0.  0.
          5    1    3    3  502    0  0.51458699657E+02 -0.58197332657E+02  0.41424099391E+02  0.88138276073E+02  0.41800000000E+01 0.  1.
         -5    1    3    3    0  502  0.12580464761E+02  0.48309692530E+01  0.17386804249E+03  0.17443960261E+03  0.41800000000E+01 0.  1.
        -11    1    1    2    0    0 -0.53407006032E+02 -0.10501522127E+02  0.25600658860E+02  0.60149679919E+02  0.00000000000E+00 0.  1.
         11    1    1    2    0    0 -0.10632158386E+02  0.63867885530E+02  0.97287013732E+02  0.11686279406E+03  0.00000000000E+00 0. -1.
</event>
<event>
 6    1  0.3056346E-009  0.1345101E+03  0.7561462E-02  0.1220913E+00
          3   -1    0    0  501    0  0.00000000000E+00  0.00000000000E+00  0.79805860868E+02  0.79805860868E+02  0.00000000000E+00 0. -1.
         -3   -1    0    0    0  501 -0.00000000000E+00 -0.00000000000E+00 -0.37932557521E+03  0.37932557521E+03  0.00000000000E+00 0.  1.
          5    1    1    2  502    0 -0.68066731396E+02 -0.44578673962E+02 -0.19539866320E+03  0.21170367988E+03  0.41800000000E+01 0. -1.
         -5    1    1    2    0  502  0.45765709673E+02  0.10966112672E+02 -0.69384492819E+02  0.83943052439E+02  0.41800000000E+01 0. -1.
        -11    1    1    2    0    0  0.78476072847E+02  0.90695560141E+01  0.19791823690E+02  0.81439960344E+02  0.00000000000E+00 0. -1.
         11    1    1    2    0    0 -0.56175051124E+02  0.24543005276E+02 -0.54528382011E+02  0.82044743412E+02  0.00000000000E+00 0.  1.
</event>
<event>
 7    1  0.3056346E-009  0.8736970E+02  0.7561462E-02  0.1309349E+00
          1   -1    0    0  501    0  0.00000000000E+00  0.00000000000E+00  0.14300394680E+03  0.14300394680E+03  0.00000000000E+00 0. -1.
         -1   -1    0    0    0  501 -0.00000000000E+00 -0.00000000000E+00 -0.91171450476E+02  0.91171450476E+02  0.00000000000E+00 0.  1.
         25    2    1    2    0    0  0.22030589512E+02  0.29884339575E+02  0.17893374138E+02  0.13170561330E+03  0.12509106727E+03 0.  0.
          5    1    3    3  502    0 -0.24152402481E+02  0.21391198873E+02  0.60157593667E+02  0.68391011183E+02  0.41800000000E+01 0. -1.
         -5    1    3    3    0  502  0.46182991993E+02  0.84931407017E+01 -0.42264219529E+02  0.63314602113E+02  0.41800000000E+01 0. -1.
        -11    1    1    2    0    0 -0.24309671430E+02 -0.60064391137E+02  0.14197480543E+02  0.66334453050E+02  0.00000000000E+00 0.  1.
         11    1    1    2    0    0  0.22790819177E+01  0.30180051562E+02  0.19741641643E+02  0.36135330930E+02  0.00000000000E+00 0. -1.
</event>
<event>
 7    1  0.3056346E-009  0.1012905E+03  0.7561462E-02  0.1277605E+00
         -3   -1    0    0    0  501 -0.00000000000E+00  0.00000000000E+00  0.55421466868E+02  0.55421466868E+02  0.00000000000E+00 0.  1.
          3   -1    0    0  501    0  0.00000000000E+00 -0.00000000000E+00 -0.30109223082E+03  0.30109223082E+03  0.00000000000E+00 0. -1.
         25    2    1    2    0    0 -0.39519506158E+02 -0.53783634150E+02 -0.17164205006E+03  0.22264398170E+03  0.12511945719E+03 0.  0.
          5    1    3    3  502    0  0.22314489035E+02  0.18554369852E+02 -0.97852593737E+02  0.10215088625E+03  0.41800000000E+01 0. -1.
         -5    1    3    3    0  502 -0.61833995193E+02 -0.72338004002E+02 -0.73789456324E+02  0.12049309544E+03  0.41800000000E+01 0. -1.
        -11    1    1    2    0    0  0.36788500732E+02  0.15990866724E+02  0.10303794764E+02  0.41415815714E+02  0.00000000000E+00 0. -1.
         11    1    1    2    0    0  0.27310054256E+01  0.37792767427E+02 -0.84332508653E+02  0.92453900275E+02  0.00000000000E+00 0.  1.
</event>
<event>
 7    1  0.3056346E-009  0.1122604E+03  0.7561462E-02  0.1256440E+00
         -4   -1    0    0    0  501 -0.00000000000E+00  0.00000000000E+00  0.20763164822E+04  0.20763164822E+04  0.00000000000E+00 0.  1.
          4   -1    0    0  501    0  0.00000000000E+00 -0.00000000000E+00 -0.10130642389E+02  0.10130642389E+02  0.00000000000E+00 0. -1.
         25    2    1    2    0    0 -0.82093701972E+02 -0.19307393542E+02  0.14752732134E+04  0.14829669275E+04  0.12509077751E+03 0.  0.
          5    1    3    3  502    0 -0.85602010654E+02 -0.34858618086E+01  0.14507125340E+04  0.14532460852E+04  0.41800000000E+01 0.  1.
         -5    1    3    3    0  502  0.35083086826E+01 -0.15821531734E+02  0.24560679441E+02  0.29720842364E+02  0.41800000000E+01 0.  1.
        -11    1    1    2    0    0  0.13518876157E+02 -0.33065815555E+02  0.14901945446E+03  0.15324133247E+03  0.00000000000E+00 0.  1.
         11    1    1    2    0    0  0.68574825814E+02  0.52373209098E+02  0.44189317192E+03  0.45023886456E+03  0.00000000000E+00 0. -1.
</event>
<event>
 7    1  0.3056346E-009  0.2030614E+03  0.7561462E-02  0.1147181E+00
         -1   -1    0    0    0  501 -0.00000000000E+00  0.00000000000E+00  0.66360365629E+02  0.66360365629E+02  0.00000000000E+00 0.  1.
          1   -1    0    0  501    0  0.00000000000E+00 -0.00000000000E+00 -0.11229786037E+04  0.11229786037E+04  0.00000000000E+00 0. -1.
         25    2    1    2    0    0  0.19521472617E+02  0.17422849369E+03 -0.93260050210E+03  0.95714558903E+03  0.12508927287E+03 0.  0.
          5    1    3    3  502    0  0.67092505065E+02  0.12223197927E+03 -0.51209597033E+03  0.53075589136E+03  0.41800000000E+01 0. -1.
         -5    1    3    3    0  502 -0.47571032448E+02  0.51996514424E+02 -0.42050453177E+03  0.42638969767E+03  0.41800000000E+01 0. -1.
        -11    1    1    2    0    0 -0.35857875313E+02 -0.20242425585E+02 -0.21169528688E+02  0.46300021170E+02  0.00000000000E+00 0.  1.
         11    1    1    2    0    0  0.16336402696E+02 -0.15398606811E+03 -0.10284820728E+03  0.18589335912E+03  0.00000000000E+00 0. -1.
</event>
<event>
 7    1  0.3056346E-009  0.1087766E+03  0.7561462E-02  0.1262852E+00
         -2   -1    0    0    0  501 -0.00000000000E+00  0.00000000000E+00  0.19284682672E+03  0.19284682672E+03  0.00000000000E+00 0.  1.
          2   -1    0    0  501    0  0.00000000000E+00 -0.00000000000E+00 -0.70870845735E+02  0.70870845735E+02  0.00000000000E+00 0. -1.
         25    2    1    2    0    0  0.42837402254E+02 -0.12426301139E+02  0.72704749923E+02  0.15140399645E+03  0.12509090090E+03 0.  0.
          5    1    3    3  502    0 -0.17072359093E+02 -0.55122053376E+02  0.21719958593E+02  0.61799152217E+02  0.41800000000E+01 0. -1.
         -5    1    3    3    0  502  0.59909761347E+02  0.42695752237E+02  0.50984791330E+02  0.89604844237E+02  0.41800000000E+01 0. -1.
        -11    1    1    2    0    0 -0.36484577393E+02  0.42074379245E+02  0.14730450509E+01  0.55709493250E+02  0.00000000000E+00 0. -1.
         11    1    1    2    0    0 -0.63528248605E+01 -0.29648078106E+02  0.47798186012E+02  0.56604182753E+02  0.00000000000E+00 0.  1.
</event>
<event>
 7    1  0.3056346E-009  0.1150830E+03  0.7561462E-02  0.1251436E+00
          2   -1    0    0  501    0  0.00000000000E+00  0.00000000000E+00  0.13979058692E+03  0.13979058692E+03  0.00000000000E+00 0. -1.
         -2   -1    0    0    0  501 -0.00000000000E+00 -0.00000000000E+00 -0.13142896752E+03  0.13142896752E+03  0.00000000000E+00 0.  1.
         25    2    1    2    0    0 -0.48789140930E+02 -0.28736757873E+02 -0.53871540777E+02  0.14750934393E+03  0.12510268629E+03 0.  0.
          5    1    3    3  502    0 -0.57720437949E+02  0.32782461577E+02 -0.21702394309E+01  0.66547134298E+02  0.41800000000E+01 0. -1.
         -5    1    3    3    0  502  0.89312970184E+01 -0.61519219450E+02 -0.51701301346E+02  0.80962209635E+02  0.41800000000E+01 0. -1.
        -11    1    1    2    0    0 -0.23653386189E+02  0.67829702530E+00  0.33212693964E+02  0.40780213406E+02  0.00000000000E+00 0.  1.
         11    1    1    2    0    0  0.72442527120E+02  0.28058460848E+02  0.29020466214E+02  0.82929997105E+02  0.00000000000E+00 0. -1.
</event>
<event>
 7    1  0.3056346E-009  0.1466097E+03  0.7561462E-02  0.1204702E+00
          2   -1    0    0  501    0  0.00000000000E+00  0.00000000000E+00  0.57785526425E+02  0.57785526425E+02  0.00000000000E+00 0. -1.
         -2   -1    0    0    0  501 -0.00000000000E+00 -0.00000000000E+00 -0.48030715322E+03  0.48030715322E+03  0.00000000000E+00 0.  1.
         25    2    1    2    0    0  0.10057089718E+03 -0.29320385737E+02 -0.11289874745E+03  0.19841007459E+03  0.12508493173E+03 0.  0.
          5    1    3    3  502    0  0.12331855903E+03 -0.48767744749E+02 -0.87463528085E+02  0.15891224331E+03  0.41800000000E+01 0.  1.
         -5    1    3    3    0  502 -0.22747661848E+02  0.19447359012E+02 -0.25435219364E+02  0.39497831285E+02  0.41800000000E+01 0.  1.
        -11    1    1    2    0    0 -0.99832009012E+01 -0.23450272336E+02 -0.12315003532E+03  0.12575973430E+03  0.00000000000E+00 0.  1.
         11    1    1    2    0    0 -0.90587696277E+02  0.52770658073E+02 -0.18647284403E+03  0.21392287075E+03  0.00000000000E+00 0. -1.
</event>
<event>
 7    1  0.3056346E-009  0.1003328E+03  0.7561462E-02  0.1279598E+00
         -3   -1    0    0    0  501 -0.00000000000E+00  0.00000000000E+00  0.67663462269E+02  0.67663462269E+02  0.00000000000E+00 0.  1.
          3   -1    0    0  501    0  0.00000000000E+00 -0.00000000000E+00 -0.20736082739E+03  0.20736082739E+03  0.00000000000E+00 0. -1.
         25    2    1    2    0    0  0.49475236647E+02 -0.37021302697E+02 -0.10111523525E+03  0.17230779961E+03  0.12508921261E+03 0.  0.
          5    1    3    3  502    0  0.65837505797E+02 -0.73349264554E+02 -0.80060346729E+02  0.12705047540E+03  0.41800000000E+01 0. -1.
         -5    1    3    3    0  502 -0.16362269150E+02  0.36327961857E+02 -0.21054888520E+02  0.45257324214E+02  0.41800000000E+01 0. -1.
        -11    1    1    2    0    0 -0.25719371523E+02  0.16471359364E+02  0.19815856923E+02  0.36406866611E+02  0.00000000000E+00 0.  1.
         11    1    1    2    0    0 -0.23755865124E+02  0.20549943333E+02 -0.58397986791E+02  0.66309623434E+02  0.00000000000E+00 0. -1.
</event>
<event>
 7    1  0.3056346E-009  0.7341000E+02  0.7561462E-02  0.1348867E+00
          1   -1    0    0  501    0  0.00000000000E+00  0.00000000000E+00  0.10328033389E+03  0.10328033389E+03  0.00000000000E+00 0. -1.
         -1   -1    0    0    0  501 -0.00000000000E+00 -0.00000000000E+00 -0.10355678341E+03  0.10355678341E+03  0.00000000000E+00 0.  1.
         25    2    1    2    0    0 -0.32552077733E+02  0.36504084979E+02 -0.17729456891E+02  0.13547392058E+03  0.12508662411E+03 0.  0.
          5    1    3    3  502    0 -0.58295058741E+02  0.29547383332E+02  0.36445308217E+02  0.74947278979E+02  0.41800000000E+01 0.  1.
         -5    1    3    3    0  502  0.25742981008E+02  0.69567016477E+01 -0.54174765107E+02  0.60526641600E+02  0.41800000000E+01 0.  1.
        -11    1    1    2    0    0  0.25903447263E+02 -0.11279504025E+02  0.31021852996E+02  0.41959160555E+02  0.00000000000E+00 0. -1.
         11    1    1    2    0    0  0.66486304700E+01 -0.25224580954E+02 -0.13568845626E+02  0.29404036169E+02  0.00000000000E+00 0.  1.
</event>
<event>
 7    1  0.3056346E-009  0.1885651E+03  0.7561462E-02  0.1159762E+00
          2   -1    0    0  501    0  0.00000000000E+00  0.00000000000E+00  0.34380023732E+04  0.34380023732E+04  0.00000000000E+00 0. -1.
         -2   -1    0    0    0  501 -0.00000000000E+00 -0.00000000000E+00 -0.15051714323E+02  0.15051714323E+02  0.00000000000E+00 0.  1.
         25    2    1    2    0    0  0.17085619166E+03  0.64062031550E+02  0.23421481621E+04  0.23525727421E+04  0.12507882129E+03 0.  0.
          5    1    3    3  502    0  0.13600269277E+03  0.58817545765E+02  0.22304654074E+04  0.22353857927E+04  0.41800000000E+01 0. -1.
         -5    1    3    3    0  502  0.34853498899E+02  0.52444857853E+01  0.11168275474E+03  0.11718694946E+03  0.41800000000E+01 0. -1.
        -11    1    1    2    0    0  0.19618655883E+01 -0.13072415149E+02  0.17036826868E+02  0.21563636617E+02  0.00000000000E+00 0.  1.
         11    1    1    2    0    0 -0.17281805725E+03 -0.50989616402E+02  0.10637656699E+04  0.10789177088E+04  0.00000000000E+00 0. -1.
</event>
<event>
 7    1  0.3056346E-009  0.1295063E+03  0.7561462E-02  0.1228190E+00
         -1   -1    0    0    0  501 -0.00000000000E+00  0.00000000000E+00  0.92207374448E+02  0.92207374448E+02  0.00000000000E+00 0.  1.
          1   -1    0    0  501    0  0.00000000000E+00 -0.00000000000E+00 -0.25457471034E+03  0.25457471034E+03  0.00000000000E+00 0. -1.
         25    2    1    2    0    0  0.37299575720E+02 -0.77065187040E+02 -0.88389064677E+01  0.15184292975E+03  0.12509135720E+03 0.  0.
          5    1    3    3  502    0  0.27709726946E+01 -0.10363434776E+03 -0.22154354836E+02  0.10609450581E+03  0.41800000000E+01 0. -1.
         -5    1    3    3    0  502  0.34528603026E+02  0.26569160718E+02  0.13315448368E+02  0.45748423944E+02  0.41800000000E+01 0. -1.
        -11    1    1    2    0    0 -0.54066549662E+02  0.30675729222E+02 -0.12045997041E+03  0.13555366696E+03  0.00000000000E+00 0. -1.
         11    1    1    2    0    0  0.16766973942E+02  0.46389457819E+02 -0.33068459014E+02  0.59385488071E+02  0.00000000000E+00 0.  1.
</event>
<event>
 7    1  0.3056346E-009  0.1460005E+03  0.7561462E-02  0.1205475E+00
         -2   -1    0    0    0  501 -0.00000000000E+00  0.00000000000E+00  0.13000739871E+02  0.13000739871E+02  0.00000000000E+00 0. -1.
          2   -1    0    0  501    0  0.00000000000E+00 -0.00000000000E+00 -0.16681329819E+04  0.16681329819E+04  0.00000000000E+00 0.  1.
         25    2    1    2    0    0 -0.16817421454E+02 -0.96742385772E+02 -0.93245057220E+03  0.94591418527E+03  0.12509061291E+03 0.  0.
          5    1    3    3  502    0  0.51613171211E+02 -0.23637090908E+02 -0.27096937239E+03  0.27688355799E+03  0.41800000000E+01 0. -1.
         -5    1    3    3    0  502 -0.68430592665E+02 -0.73105294864E+02 -0.66148119981E+03  0.66903062729E+03  0.41800000000E+01 0. -1.
        -11    1    1    2    0    0  0.41473011524E+02  0.10158944993E+03 -0.60729862990E+03  0.61713211949E+03  0.00000000000E+00 0.  1.
         11    1    1    2    0    0 -0.24655590070E+02 -0.48470641601E+01 -0.11538303990E+03  0.11808741698E+03  0.00000000000E+00 0. -1.
</event>
<event>
 7    1  0.3056346E-009  0.1072920E+03  0.7561462E-02  0.1265669E+00
         -1   -1    0    0    0  501 -0.00000000000E+00  0.00000000000E+00  0.44953912215E+02  0.44953912215E+02  0.00000000000E+00 0.  1.
          1   -1    0    0  501    0  0.00000000000E+00 -0.00000000000E+00 -0.77951839866E+03  0.77951839866E+03  0.00000000000E+00 0. -1.
         25    2    1    2    0    0  0.64550811720E+01 -0.22960464453E+02 -0.71370599558E+03  0.72497760285E+03  0.12508966987E+03 0.  0.
          5    1    3    3  502    0 -0.45004314705E+02  0.21656531787E+02 -0.17725674865E+03  0.18420592024E+03  0.41800000000E+01 0. -1.
         -5    1    3    3    0  502  0.51459395877E+02 -0.44616996240E+02 -0.53644924693E+03  0.54077168261E+03  0.41800000000E+01 0. -1.
        -11    1    1    2    0    0 -0.45595215710E+02  0.32439253648E+02 -0.48824423864E+01  0.56169984124E+02  0.00000000000E+00 0.  1.
         11    1    1    2    0    0  0.39140134538E+02 -0.94787891949E+01 -0.15976048484E+02  0.43324723904E+02  0.00000000000E+00 0. -1.
</event>
<event>
 7    1  0.3056346E-009  0.1631375E+03  0.7561462E-02  0.1185199E+00
          2   -1    0    0  501    0  0.00000000000E+00  0.00000000000E+00  0.35015052993E+03  0.35015052993E+03  0.00000000000E+00 0. -1.
         -2   -1    0    0    0  501 -0.00000000000E+00 -0.00000000000E+00 -0.10104855734E+03  0.10104855734E+03  0.00000000000E+00 0.  1.
         25    2    1    2    0    0 -0.11446865280E+03  0.89594572323E+02  0.72402826403E+02  0.20498873128E+03  0.12509176958E+03 0.  0.
          5    1    3    3  502    0 -0.64277867788E+02  0.96403616916E+02  0.94494036446E+02  0.14957238036E+03  0.41800000000E+01 0.  1.
         -5    1    3    3    0  502 -0.50190785016E+02 -0.68090445922E+01 -0.22091210043E+02  0.55416350926E+02  0.41800000000E+01 0.  1.
        -11    1    1    2    0    0  0.68004786215E+02 -0.11983184078E+02  0.12288259088E+03  0.14095523683E+03  0.00000000000E+00 0.  1.
         11    1    1    2    0    0  0.46463866589E+02 -0.77611388245E+02  0.53816555308E+02  0.10525511916E+03  0.00000000000E+00 0. -1.
</event>
<event>
 7    1  0.3056346E-009  0.1450338E+03  0.7561462E-02  0.1206712E+00
         -2   -1    0    0    0  501 -0.00000000000E+00  0.00000000000E+00  0.90653316433E+02  0.90653316433E+02  0.00000000000E+00 0. -1.
          2   -1    0    0  501    0  0.00000000000E+00 -0.00000000000E+00 -0.28938735908E+03  0.28938735908E+03  0.00000000000E+00 0.  1.
         25    2    1    2    0    0  0.86465499463E+02 -0.52827515607E+02 -0.31439018389E+02  0.16401919753E+03  0.12508739456E+03 0.  0.
          5    1    3    3  502    0  0.35061756849E+02  0.36526490331E+02 -0.33455905589E+02  0.60829937596E+02  0.41800000000E+01 0. -1.
         -5    1    3    3    0  502  0.51403742614E+02 -0.89354005938E+02  0.20168871999E+01  0.10318925993E+03  0.41800000000E+01 0. -1.
        -11    1    1    2    0    0  0.17657611849E+02  0.20526469214E+02 -0.25806125110E+02  0.37404321780E+02  0.00000000000E+00 0.  1.
         11    1    1    2    0    0 -0.10412311131E+03  0.32301046394E+02 -0.14148889915E+03  0.17861715620E+03  0.00000000000E+00 0. -1.
</event>
<event>
 7    1  0.3056346E-009  0.1057102E+03  0.7561462E-02  0.1268727E+00
         -2   -1    0    0    0  501 -0.00000000000E+00  0.00000000000E+00  0.50568692939E+02  0.50568692939E+02  0.00000000000E+00 0.  1.
          2   -1    0    0  501    0  0.00000000000E+00 -0.00000000000E+00 -0.26228965258E+03  0.26228965258E+03  0.00000000000E+00 0. -1.
         25    2    1    2    0    0  0.30188941066E+02  0.14662756829E+02 -0.12184478302E+03  0.17781941989E+03  0.12508887376E+03 0.  0.
          5    1    3    3  502    0  0.94208552736E+01  0.60346941623E+02 -0.20342257409E+02  0.64511903660E+02  0.41800000000E+01 0. -1.
         -5    1    3    3    0  502  0.20768085793E+02 -0.45684184795E+02 -0.10150252561E+03  0.11330751623E+03  0.41800000000E+01 0. -1.
        -11    1    1    2    0    0  0.34191787513E+02 -0.80234728981E+01 -0.40671695933E+02  0.53736777916E+02  0.00000000000E+00 0. -1.
         11    1    1    2    0    0 -0.64380728580E+02 -0.66392839304E+01 -0.49204480686E+02  0.81302147715E+02  0.00000000000E+00 0.  1.
</event>
<event>
 7    1  0.3056346E-009  0.1054518E+03  0.7561462E-02  0.1269232E+00
          2   -1    0    0  501    0  0.00000000000E+00  0.00000000000E+00  0.22920407337E+03  0.22920407337E+03  0.00000000000E+00 0. -1.
         -2   -1    0    0    0  501 -0.00000000000E+00 -0.00000000000E+00 -0.11230387604E+03  0.11230387604E+03  0.00000000000E+00 0.  1.
         25    2    1    2    0    0  0.57189753328E+02 -0.86149060502E+02  0.12300211017E+03  0.20363943311E+03  0.12508865296E+03 0.  0.
          5    1    3    3  502    0  0.34188123954E+02 -0.27438328078E+02  0.13259975456E+03  0.13972063905E+03  0.41800000000E+01 0. -1.
         -5    1    3    3    0  502  0.23001629374E+02 -0.58710732423E+02 -0.95976443910E+01  0.63918794055E+02  0.41800000000E+01 0. -1.
        -11    1    1    2    0    0 -0.25469357692E+02  0.45123117129E+02 -0.48433161729E+02  0.70926405772E+02  0.00000000000E+00 0.  1.
         11    1    1    2    0    0 -0.31720395636E+02  0.41025943373E+02  0.42331248889E+02  0.66942110524E+02  0.00000000000E+00 0. -1.
</event>
<event>
 7    1  0.3056346E-009  0.2444812E+03  0.7561462E-02  0.1116843E+00
         -2   -1    0    0    0  501 -0.00000000000E+00  0.00000000000E+00  0.65219654484E+02  0.65219654484E+02  0.00000000000E+00 0.  1.
          2   -1    0    0  501    0  0.00000000000E+00 -0.00000000000E+00 -0.11646549872E+04  0.11646549872E+04  0.00000000000E+00 0. -1.
         25    2    1    2    0    0 -0.18592604083E+03 -0.14445719322E+03 -0.77247482835E+03  0.81719116101E+03  0.12509060662E+03 0.  0.
          5    1    3    3  502    0 -0.17815195709E+03 -0.12838999131E+03 -0.52570653106E+03  0.56974287085E+03  0.41800000000E+01 0.  1.
         -5    1    3    3    0  502 -0.77740837334E+01 -0.16067201909E+02 -0.24676829729E+03  0.24744829016E+03  0.41800000000E+01 0.  1.
        -11    1    1    2    0    0  0.18309908014E+03  0.10426680192E+03 -0.28591985967E+03  0.35517179686E+03  0.00000000000E+00 0.  1.
         11    1    1    2    0    0  0.28269606888E+01  0.40190391299E+02 -0.41040644728E+02  0.57511683850E+02  0.00000000000E+00 0. -1.
</event>
<event>
 7    1  0.3056346E-009  0.4773029E+02  0.7561462E-02  0.1457983E+00
         -1   -1    0    0    0  501 -0.00000000000E+00  0.00000000000E+00  0.47985501737E+03  0.47985501737E+03  0.00000000000E+00 0.  1.
          1   -1    0    0  501    0  0.00000000000E+00 -0.00000000000E+00 -0.23671654694E+02  0.23671654694E+02  0.00000000000E+00 0. -1.
         25    2    1    2    0    0 -0.17681730085E+02  0.46789542475E+01  0.33852158500E+03  0.36135778867E+03  0.12509217294E+03 0.  0.
          5    1    3    3  502    0  0.72126667298E+01 -0.14784292761E+02 -0.39334906782E+01  0.17422474644E+02  0.41800000000E+01 0.  1.
         -5    1    3    3    0  502 -0.24894396815E+02  0.19463247009E+02  0.34245507568E+03  0.34393531403E+03  0.41800000000E+01 0.  1.
        -11    1    1    2    0    0  0.27554844480E+02  0.96638844553E+01  0.12097045427E+03  0.12444481076E+03  0.00000000000E+00 0.  1.
         11    1    1    2    0    0 -0.98731143948E+01 -0.14342838703E+02 -0.33086766004E+01  0.17724072635E+02  0.00000000000E+00 0. -1.
</event>
<event>
 7    1  0.3056346E-009  0.1435308E+03  0.7561462E-02  0.1208655E+00
         -2   -1    0    0    0  501 -0.00000000000E+00  0.00000000000E+00  0.70847586995E+02  0.70847586995E+02  0.00000000000E+00 0.  1.
          2   -1    0    0  501    0  0.00000000000E+00 -0.00000000000E+00 -0.33498490430E+03  0.33498490430E+03  0.00000000000E+00 0. -1.
         25    2    1    2    0    0  0.95984063754E+02  0.47213828749E+02 -0.11655189993E+03  0.20167733726E+03  0.12508923561E+03 0.  0.
          5    1    3    3  502    0  0.12281829131E+03  0.28045049796E+02 -0.11103858209E+03  0.16798183417E+03  0.41800000000E+01 0.  1.
         -5    1    3    3    0  502 -0.26834227554E+02  0.19168778953E+02 -0.55133178448E+01  0.33695503092E+02  0.41800000000E+01 0.  1.
        -11    1    1    2    0    0 -0.11329981961E+02 -0.41394930313E+02 -0.12624910729E+02  0.44735859416E+02  0.00000000000E+00 0.  1.
         11    1    1    2    0    0 -0.84654081793E+02 -0.58188984364E+01 -0.13496050664E+03  0.15941929462E+03  0.00000000000E+00 0. -1.
</event>
<event>
 7    1  0.3056346E-009  0.3841473E+03  0.7561462E-02  0.1049411E+00
          1   -1    0    0  501    0  0.00000000000E+00  0.00000000000E+00  0.83830320288E+03  0.83830320288E+03  0.00000000000E+00 0. -1.
         -1   -1    0    0    0  501 -0.00000000000E+00 -0.00000000000E+00 -0.20021890699E+03  0.20021890699E+03  0.00000000000E+00 0.  1.
         25    2    1    2    0    0 -0.36726061076E+03 -0.92963436407E+02  0.46284416363E+03  0.61105818945E+03  0.12507931228E+03 0.  0.
          5    1    3    3  502    0 -0.72648909338E+02 -0.20301897769E+02  0.18410896895E+03  0.19900657258E+03  0.41800000000E+01 0. -1.
         -5    1    3    3    0  502 -0.29461170142E+03 -0.72661538638E+02  0.27873519468E+03  0.41205161687E+03  0.41800000000E+01 0. -1.
        -11    1    1    2    0    0  0.10059375435E+03  0.68051494685E+02  0.43657315997E+02  0.12905839990E+03  0.00000000000E+00 0. -1.
         11    1    1    2    0    0  0.26666685640E+03  0.24911941722E+02  0.13158281626E+03  0.29840552052E+03  0.00000000000E+00 0.  1.
</event>
<event>
 7    1  0.3056346E-009  0.1173154E+03  0.7561462E-02  0.1247593E+00
          2   -1    0    0  501    0  0.00000000000E+00  0.00000000000E+00  0.17496118614E+03  0.17496118614E+03  0.00000000000E+00 0. -1.
         -2   -1    0    0    0  501 -0.00000000000E+00 -0.00000000000E+00 -0.12622790617E+03  0.12622790617E+03  0.00000000000E+00 0.  1.
         25    2    1    2    0    0 -0.33851628078E+02 -0.75190357837E+02  0.82151044281E+02  0.17086613875E+03  0.12508765190E+03 0.  0.
          5    1    3    3  502    0 -0.41855795190E+01  0.23711660114E+02 -0.15293163201E+02  0.28829067657E+02  0.41800000000E+01 0. -1.
         -5    1    3    3    0  502 -0.29666048559E+02 -0.98902017951E+02  0.97444207482E+02  0.14203707109E+03  0.41800000000E+01 0. -1.
        -11    1    1    2    0    0  0.54601161859E+02  0.60077571653E+02 -0.53931058241E+02  0.97463636989E+02  0.00000000000E+00 0. -1.
         11    1    1    2    0    0 -0.20749533780E+02  0.15112786184E+02  0.20513293928E+02  0.32859316580E+02  0.00000000000E+00 0.  1.
</event>
<event>
 7    1  0.3056346E-009  0.1187327E+03  0.7561462E-02  0.1245202E+00
          2   -1    0    0  501    0  0.00000000000E+00  0.00000000000E+00  0.56772011277E+03  0.56772011277E+03  0.00000000000E+00 0. -1.
         -2   -1    0    0    0  501 -0.00000000000E+00 -0.00000000000E+00 -0.32327646738E+02  0.32327646738E+02  0.00000000000E+00 0.  1.
         25    2    1    2    0    0  0.33710889350E+02 -0.34291260295E+02  0.43647274163E+03  0.45658323299E+03  0.12508988718E+03 0.  0.
          5    1    3    3  502    0 -0.19458330318E+02  0.38541381400E+02  0.15786105518E+03  0.16371209437E+03  0.41800000000E+01 0. -1.
         -5    1    3    3    0  502  0.53169219668E+02 -0.72832641695E+02  0.27861168644E+03  0.29287113862E+03  0.41800000000E+01 0. -1.
        -11    1    1    2    0    0 -0.13545744337E+02  0.65375760309E+02  0.60703147845E+02  0.90234967634E+02  0.00000000000E+00 0.  1.
         11    1    1    2    0    0 -0.20165145013E+02 -0.31084500014E+02  0.38216576558E+02  0.53229558878E+02  0.00000000000E+00 0. -1.
</event>
<event>
 7    1  0.3056346E-009  0.1258595E+03  0.7561462E-02  0.1233732E+00
          2   -1    0    0  501    0  0.00000000000E+00  0.00000000000E+00  0.58828901003E+03  0.58828901003E+03  0.00000000000E+00 0. -1.
         -2   -1    0    0    0  501 -0.00000000000E+00 -0.00000000000E+00 -0.30822125408E+02  0.30822125408E+02  0.00000000000E+00 0.  1.
         25    2    1    2    0    0 -0.14937458447E+02 -0.76822196632E+02  0.27238906972E+03  0.30978633981E+03  0.12508794294E+03 0.  0.
          5    1    3    3  502    0  0.27682689417E+02  0.14535408085E+02  0.13900630802E+03  0.14254064491E+03  0.41800000000E+01 0. -1.
         -5    1    3    3    0  502 -0.42620147865E+02 -0.91357604717E+02  0.13338276170E+03  0.16724569490E+03  0.41800000000E+01 0. -1.
        -11    1    1    2    0    0  0.41234230291E+02  0.82629802232E+02  0.23441566228E+03  0.25194969475E+03  0.00000000000E+00 0. -1.
         11    1    1    2    0    0 -0.26296771844E+02 -0.58076055996E+01  0.50662152616E+02  0.57375100871E+02  0.00000000000E+00 0.  1.
</event>
<event>
 7    1  0.3056346E-009  0.1308417E+03  0.7561462E-02  0.1226212E+00
         -1   -1    0    0    0  501 -0.00000000000E+00  0.00000000000E+00  0.64204017024E+02  0.64204017024E+02  0.00000000000E+00 0.  1.
          1   -1    0    0  501    0  0.00000000000E+00 -0.00000000000E+00 -0.38639836192E+03  0.38639836192E+03  0.00000000000E+00 0. -1.
         25    2    1    2    0    0  0.89796939433E+02  0.61248903861E+02 -0.13863663407E+03  0.21606078557E+03  0.12508888119E+03 0.  0.
          5    1    3    3  502    0  0.65321504630E+02  0.63598086812E+02 -0.15935413004E+03  0.18363775966E+03  0.41800000000E+01 0.  1.
         -5    1    3    3    0  502  0.24475434803E+02 -0.23491829519E+01  0.20717495971E+02  0.32423025902E+02  0.41800000000E+01 0.  1.
        -11    1    1    2    0    0 -0.66863068369E+02  0.12697251461E+02 -0.95803630235E+02  0.11751691654E+03  0.00000000000E+00 0.  1.
         11    1    1    2    0    0 -0.22933871064E+02 -0.73946155322E+02 -0.87754080588E+02  0.11702467684E+03  0.00000000000E+00 0. -1.
</event>
<event>
 7    1  0.3056346E-009  0.8018767E+02  0.7561462E-02  0.1328520E+00
         -4   -1    0    0    0  501 -0.00000000000E+00  0.00000000000E+00  0.11677359529E+03  0.11677359529E+03  0.00000000000E+00 0.  1.
          4   -1    0    0  501    0  0.00000000000E+00 -0.00000000000E+00 -0.18822915669E+03  0.18822915669E+03  0.00000000000E+00 0. -1.
         25    2    1    2    0    0  0.60581374054E+02  0.48056330135E+02  0.27495995897E+02  0.14960872510E+03  0.12508887676E+03 0.  0.
          5    1    3    3  502    0  0.44700640003E+02  0.19935641970E+02  0.76414972787E+02  0.90842157083E+02  0.41800000000E+01 0. -1.
         -5    1    3    3    0  502  0.15880734051E+02  0.28120688166E+02 -0.48918976890E+02  0.58766568020E+02  0.41800000000E+01 0. -1.
        -11    1    1    2    0    0 -0.33095815752E+02 -0.16968639493E+02 -0.10686351536E+03  0.11315069006E+03  0.00000000000E+00 0. -1.
         11    1    1    2    0    0 -0.27485558302E+02 -0.31087690642E+02  0.79119580696E+01  0.42243336813E+02  0.00000000000E+00 0.  1.
</event>
<event>
 7    1  0.3056346E-009  0.1066493E+03  0.7561462E-02  0.1266904E+00
         -2   -1    0    0    0  501 -0.00000000000E+00  0.00000000000E+00  0.80396495308E+01  0.80396495308E+01  0.00000000000E+00 0. -1.
          2   -1    0    0  501    0  0.00000000000E+00 -0.00000000000E+00 -0.19725504621E+04  0.19725504621E+04  0.00000000000E+00 0.  1.
         25    2    1    2    0    0  0.13562582137E+02 -0.19102670668E+02 -0.15627343745E+04  0.15679076155E+04  0.12508680864E+03 0.  0.
          5    1    3    3  502    0  0.31539832094E+02  0.46861343518E+02 -0.85176894904E+03  0.85365013998E+03  0.41800000000E+01 0. -1.
         -5    1    3    3    0  502 -0.17977249958E+02 -0.65964014185E+02 -0.71096542548E+03  0.71425747550E+03  0.41800000000E+01 0. -1.
        -11    1    1    2    0    0 -0.25404570758E+02  0.49444485631E+02 -0.31752767861E+03  0.32235690788E+03  0.00000000000E+00 0.  1.
         11    1    1    2    0    0  0.11841988621E+02 -0.30341814964E+02 -0.84248759390E+02  0.90325588227E+02  0.00000000000E+00 0. -1.
</event>
<event>
 7    1  0.3056346E-009  0.9573546E+02  0.7561462E-02  0.1289528E+00
         -2   -1    0    0    0  501 -0.00000000000E+00  0.00000000000E+00  0.97211114559E+02  0.97211114559E+02  0.00000000000E+00 0.  1.
          2   -1    0    0  501    0  0.00000000000E+00 -0.00000000000E+00 -0.17173403175E+03  0.17173403175E+03  0.00000000000E+00 0. -1.
         25    2    1    2    0    0 -0.69020315828E+02  0.20912209416E+02 -0.48886414461E+02  0.15244393321E+03  0.12509255275E+03 0.  0.
          5    1    3    3  502    0 -0.42811214384E+02  0.53034852842E+02 -0.76432625343E+02  0.10249348423E+03  0.41800000000E+01 0.  1.
         -5    1    3    3    0  502 -0.26209101445E+02 -0.32122643426E+02  0.27546210883E+02  0.49950448979E+02  0.41800000000E+01 0.  1.
        -11    1    1    2    0    0  0.30967874072E+02 -0.29209595781E+02 -0.53678410983E+02  0.68509718405E+02  0.00000000000E+00 0. -1.
         11    1    1    2    0    0  0.38052441756E+02  0.82973863648E+01  0.28041908255E+02  0.47991494691E+02  0.00000000000E+00 0.  1.
</event>
<event>
 7    1  0.3056346E-009  0.1001003E+03  0.7561462E-02  0.1280085E+00
          1   -1    0    0  501    0  0.00000000000E+00  0.00000000000E+00  0.61465438994E+03  0.61465438994E+03  0.00000000000E+00 0. -1.
         -1   -1    0    0    0  501 -0.00000000000E+00 -0.00000000000E+00 -0.26471511009E+02  0.26471511009E+02  0.00000000000E+00 0.  1.
         25    2    1    2    0    0 -0.39991900578E+02  0.31557224012E+02  0.43286928560E+03  0.45345163410E+03  0.12508939025E+03 0.  0.
          5    1    3    3  502    0  0.17573063970E+02  0.57549748741E+02  0.12073597973E+03  0.13496457076E+03  0.41800000000E+01 0.  1.
         -5    1    3    3    0  502 -0.57564964548E+02 -0.25992524729E+02  0.31213330586E+03  0.31848706334E+03  0.41800000000E+01 0.  1.
        -11    1    1    2    0    0  0.19791139478E+02  0.15652753651E+02  0.12609140024E+03  0.12859136485E+03  0.00000000000E+00 0. -1.
         11    1    1    2    0    0  0.20200761100E+02 -0.47209977663E+02  0.29222193091E+02  0.59082902002E+02  0.00000000000E+00 0.  1.
</event>
<event>
 7    1  0.3056346E-009  0.1114344E+03  0.7561462E-02  0.1257936E+00
         -1   -1    0    0    0  501 -0.00000000000E+00  0.00000000000E+00  0.32435653231E+02  0.32435653231E+02  0.00000000000E+00 0.  1.
          1   -1    0    0  501    0  0.00000000000E+00 -0.00000000000E+00 -0.49254817781E+03  0.49254817781E+03  0.00000000000E+00 0. -1.
         25    2    1    2    0    0  0.15685624609E+02 -0.62918805604E+02 -0.26188347762E+03  0.29737850387E+03  0.12508478643E+03 0.  0.
          5    1    3    3  502    0 -0.38554706804E+02 -0.20663178202E+02 -0.20002935978E+03  0.20479904669E+03  0.41800000000E+01 0. -1.
         -5    1    3    3    0  502  0.54240331412E+02 -0.42255627402E+02 -0.61854117837E+02  0.92579457183E+02  0.41800000000E+01 0. -1.
        -11    1    1    2    0    0 -0.44072562274E+02  0.35245050799E+01 -0.10023542950E+03  0.10955343084E+03  0.00000000000E+00 0.  1.
         11    1    1    2    0    0  0.28386937665E+02  0.59394300524E+02 -0.97993617466E+02  0.11805189634E+03  0.00000000000E+00 0. -1.
</event>
<event>
 7    1  0.3056346E-009  0.1752991E+03  0.7561462E-02  0.1172432E+00
         -2   -1    0    0    0  501 -0.00000000000E+00  0.00000000000E+00  0.34786729358E+03  0.34786729358E+03  0.00000000000E+00 0.  1.
          2   -1    0    0  501    0  0.00000000000E+00 -0.00000000000E+00 -0.10467038349E+03  0.10467038349E+03  0.00000000000E+00 0. -1.
         25    2    1    2    0    0 -0.13673986079E+03 -0.72310421273E+02  0.16178422666E+03  0.25641504506E+03  0.12509177744E+03 0.  0.
          5    1    3    3  502    0 -0.62593046093E+02 -0.78966580329E+02  0.30376351827E+02  0.10532713505E+03  0.41800000000E+01 0. -1.
         -5    1    3    3    0  502 -0.74146814698E+02  0.66561590553E+01  0.13140787483E+03  0.15108791001E+03  0.41800000000E+01 0. -1.
        -11    1    1    2    0    0  0.74770096440E+02 -0.63574992520E+01  0.53507359175E+02  0.92163021892E+02  0.00000000000E+00 0.  1.
         11    1    1    2    0    0  0.61969764351E+02  0.78667920525E+02  0.27905324252E+02  0.10395961011E+03  0.00000000000E+00 0. -1.
</event>
<event>
 7    1  0.3056346E-009  0.5374773E+02  0.7561462E-02  0.1426115E+00
          1   -1    0    0  501    0  0.00000000000E+00  0.00000000000E+00  0.26118088841E+03  0.26118088841E+03  0.00000000000E+00 0. -1.
         -1   -1    0    0    0  501 -0.00000000000E+00 -0.00000000000E+00 -0.95818582102E+02  0.95818582102E+02  0.00000000000E+00 0.  1.
         25    2    1    2    0    0 -0.69416393022E+01  0.37890953404E+02  0.20946910100E+03  0.24700583268E+03  0.12510262346E+03 0.  0.
          5    1    3    3  502    0 -0.77052330112E+01 -0.29890186716E+00  0.20838037880E+03  0.20856489308E+03  0.41800000000E+01 0. -1.
         -5    1    3    3    0  502  0.76359370895E+00  0.38189855271E+02  0.10887222040E+01  0.38440939596E+02  0.41800000000E+01 0. -1.
        -11    1    1    2    0    0  0.26810452322E+02 -0.24667386695E+02 -0.67417549603E+02  0.76631627378E+02  0.00000000000E+00 0.  1.
         11    1    1    2    0    0 -0.19868813020E+02 -0.13223566709E+02  0.23310754913E+02  0.33362010460E+02  0.00000000000E+00 0. -1.
</event>
<event>
 7    1  0.3570826E-009  0.1321310E+03  0.7561462E-02  0.1224328E+00
         -2   -1    0    0    0  501 -0.00000000000E+00  0.00000000000E+00  0.33540816295E+03  0.33540816295E+03  0.00000000000E+00 0.  1.
          2   -1    0    0  501    0  0.00000000000E+00 -0.00000000000E+00 -0.83737056825E+02  0.83737056825E+02  0.00000000000E+00 0. -1.
         25    2    1    2    0    0  0.64127505125E+02 -0.53238500997E+02  0.13912284524E+02  0.15095849042E+03  0.12509292253E+03 0.  0.
          5    1    3    3  502    0 -0.32651597630E+02 -0.14416056163E+02  0.28127868900E+02  0.45635500566E+02  0.41800000000E+01 0. -1.
         -5    1    3    3    0  502  0.96779102755E+02 -0.38822444834E+02 -0.14215584376E+02  0.10532298986E+03  0.41800000000E+01 0. -1.
        -11    1    1    2    0    0 -0.54946424234E+02 -0.13515241507E+02  0.10292687442E+03  0.11745515215E+03  0.00000000000E+00 0.  1.
         11    1    1    2    0    0 -0.91810808910E+01  0.66753742504E+02  0.13483194718E+03  0.15073157720E+03  0.00000000000E+00 0. -1.
</event>
<event>
 7    1  0.3056346E-009  0.8400694E+02  0.7561462E-02  0.1318050E+00
          2   -1    0    0  501    0  0.00000000000E+00  0.00000000000E+00  0.91033117263E+03  0.91033117263E+03  0.00000000000E+00 0.  1.
         -2   -1    0    0    0  501 -0.00000000000E+00 -0.00000000000E+00 -0.12929194169E+02  0.12929194169E+02  0.00000000000E+00 0. -1.
         25    2    1    2    0    0 -0.80925058686E+01 -0.76157906501E+01  0.49741352826E+03  0.51302351356E+03  0.12509763568E+03 0.  0.
          5    1    3    3  502    0  0.30540449908E+02 -0.19309392760E+02  0.44620777775E+03  0.44768786565E+03  0.41800000000E+01 0. -1.
         -5    1    3    3    0  502 -0.38632955776E+02  0.11693602109E+02  0.51205750512E+02  0.65335647910E+02  0.41800000000E+01 0. -1.
        -11    1    1    2    0    0  0.23254443472E+02 -0.37132568926E+02  0.20009539436E+03  0.20483594328E+03  0.00000000000E+00 0. -1.
         11    1    1    2    0    0 -0.15161937603E+02  0.44748359576E+02  0.19989305584E+03  0.20540090995E+03  0.00000000000E+00 0.  1.
</event>
<event>
 7    1  0.3056346E-009  0.8904880E+02  0.7561462E-02  0.1305172E+00
         -2   -1    0    0    0  501 -0.00000000000E+00  0.00000000000E+00  0.33022072565E+02  0.33022072565E+02  0.00000000000E+00 0. -1.
          2   -1    0    0  501    0  0.00000000000E+00 -0.00000000000E+00 -0.37818537393E+03  0.37818537393E+03  0.00000000000E+00 0.  1.
         25    2    1    2    0    0 -0.22625879580E+02 -0.24207114766E+02 -0.18269133212E+03  0.22387840764E+03  0.12508998259E+03 0.  0.
          5    1    3    3  502    0  0.34020143947E+02 -0.15185600236E+02 -0.15605992460E+03  0.16049967326E+03  0.41800000000E+01 0. -1.
         -5    1    3    3    0  502 -0.56646023527E+02 -0.90215145304E+01 -0.26631407521E+02  0.63378734386E+02  0.41800000000E+01 0. -1.
        -11    1    1    2    0    0  0.32194417196E+02 -0.19976459495E+02 -0.11792064721E+03  0.12385805776E+03  0.00000000000E+00 0.  1.
         11    1    1    2    0    0 -0.95685376158E+01  0.44183574262E+02 -0.44551322030E+02  0.63470981096E+02  0.00000000000E+00 0. -1.
</event>
<event>
 7    1  0.3837178E-009  0.1449379E+03  0.7561462E-02  0.1206835E+00
          1   -1    0    0  501    0  0.00000000000E+00  0.00000000000E+00  0.64309050104E+03  0.64309050104E+03  0.00000000000E+00 0. -1.
         -1   -1    0    0    0  501 -0.00000000000E+00 -0.00000000000E+00 -0.35228080256E+02  0.35228080256E+02  0.00000000000E+00 0.  1.
         25    2    1    2    0    0  0.46429006912E+02  0.92986555328E+02  0.33677379244E+03  0.37398632533E+03  0.12508809737E+03 0.  0.
          5    1    3    3  502    0 -0.38029788790E+02  0.58195285947E+02  0.12053360008E+03  0.13920767684E+03  0.41800000000E+01 0.  1.
         -5    1    3    3    0  502  0.84458795702E+02  0.34791269381E+02  0.21624019236E+03  0.23477864850E+03  0.41800000000E+01 0.  1.
        -11    1    1    2    0    0 -0.51444894133E+02 -0.19318394002E+02  0.63359646579E+02  0.83870270620E+02  0.00000000000E+00 0.  1.
         11    1    1    2    0    0  0.50158872211E+01 -0.73668161325E+02  0.20772898176E+03  0.22046198534E+03  0.00000000000E+00 0. -1.
</event>
<event>
 7    1  0.3056346E-009  0.3254186E+03  0.7561462E-02  0.1073182E+00
          2   -1    0    0  501    0  0.00000000000E+00  0.00000000000E+00  0.79352104002E+03  0.79352104002E+03  0.00000000000E+00 0. -1.
         -2   -1    0    0    0  501 -0.00000000000E+00 -0.00000000000E+00 -0.14580063892E+03  0.14580063892E+03  0.00000000000E+00 0.  1.
         25    2    1    2    0    0  0.30146683762E+03 -0.87895730722E+02  0.43076121568E+03  0.54754965998E+03  0.12508993382E+03 0.  0.
          5    1    3    3  502    0  0.95543631929E+02  0.29067976624E+02  0.14955251560E+03  0.17988040524E+03  0.41800000000E+01 0.  1.
         -5    1    3    3    0  502  0.20592320569E+03 -0.11696370735E+03  0.28120870008E+03  0.36766925473E+03  0.41800000000E+01 0.  1.
        -11    1    1    2    0    0 -0.98763309243E+02  0.28032334536E+02  0.23669872307E+02  0.10535779937E+03  0.00000000000E+00 0.  1.
         11    1    1    2    0    0 -0.20270352838E+03  0.59863396186E+02  0.19328931312E+03  0.28641421959E+03  0.00000000000E+00 0. -1.
</event>
<event>
 7    1  0.3056346E-009  0.1228027E+03  0.7561462E-02  0.1238544E+00
         -1   -1    0    0    0  501 -0.00000000000E+00  0.00000000000E+00  0.29643406755E+03  0.29643406755E+03  0.00000000000E+00 0.  1.
          1   -1    0    0  501    0  0.00000000000E+00 -0.00000000000E+00 -0.56652867234E+02  0.56652867234E+02  0.00000000000E+00 0. -1.
         25    2    1    2    0    0  0.34612780222E+02 -0.53836378859E+02  0.90327123525E+02  0.16703961215E+03  0.12508733964E+03 0.  0.
          5    1    3    3  502    0  0.65872956413E+02  0.10176179882E+02  0.58969413426E+02  0.89093575208E+02  0.41800000000E+01 0. -1.
         -5    1    3    3    0  502 -0.31260176192E+02 -0.64012558741E+02  0.31357710099E+02  0.77946036941E+02  0.41800000000E+01 0. -1.
        -11    1    1    2    0    0  0.29104899585E+02  0.20010439179E+02  0.72030723506E+02  0.80224297970E+02  0.00000000000E+00 0.  1.
         11    1    1    2    0    0 -0.63717679807E+02  0.33825939681E+02  0.77423353287E+02  0.10582302467E+03  0.00000000000E+00 0. -1.
</event>
<event>
 7    1  0.3056346E-009  0.1096771E+03  0.7561462E-02  0.1261169E+00
          1   -1    0    0  501    0  0.00000000000E+00  0.00000000000E+00  0.52063419727E+03  0.52063419727E+03  0.00000000000E+00 0. -1.
         -1   -1    0    0    0  501 -0.00000000000E+00 -0.00000000000E+00 -0.41802736151E+02  0.41802736151E+02  0.00000000000E+00 0.  1.
         25    2    1    2    0    0  0.21902664706E+02  0.72040286732E+02  0.13602972572E+03  0.19955345117E+03  0.12509182212E+03 0.  0.
          5    1    3    3  502    0 -0.13406735722E+02  0.73592443914E+02  0.19084845519E+02  0.77312949061E+02  0.41800000000E+01 0.  1.
         -5    1    3    3    0  502  0.35309400429E+02 -0.15521571814E+01  0.11694488020E+03  0.12224050211E+03  0.41800000000E+01 0.  1.
        -11    1    1    2    0    0 -0.43075812962E+02 -0.11320371343E+02  0.21784050677E+03  0.22234694255E+03  0.00000000000E+00 0. -1.
         11    1    1    2    0    0  0.21173148256E+02 -0.60719915390E+02  0.12496122863E+03  0.14053653971E+03  0.00000000000E+00 0.  1.
</event>
<event>
 7    1  0.3056346E-009  0.1673062E+03  0.7561462E-02  0.1180687E+00
          1   -1    0    0  501    0  0.00000000000E+00  0.00000000000E+00  0.58796297689E+03  0.58796297689E+03  0.00000000000E+00 0. -1.
         -1   -1    0    0    0  501 -0.00000000000E+00 -0.00000000000E+00 -0.56151645160E+02  0.56151645160E+02  0.00000000000E+00 0.  1.
         25    2    1    2    0    0  0.46095131668E+02  0.14170438283E+03  0.32417416290E+03  0.37807488164E+03  0.12508730937E+03 0.  0.
          5    1    3    3  502    0  0.27249544191E+02  0.15207085461E+03  0.32055547334E+03  0.35586706278E+03  0.41800000000E+01 0. -1.
         -5    1    3    3    0  502  0.18845587477E+02 -0.10366471783E+02  0.36186895517E+01  0.22207818864E+02  0.41800000000E+01 0. -1.
        -11    1    1    2    0    0 -0.42913233233E+02 -0.47970394255E+02  0.45819086356E+02  0.79006917330E+02  0.00000000000E+00 0.  1.
         11    1    1    2    0    0 -0.31818984349E+01 -0.93733988572E+02  0.16181808247E+03  0.18703282307E+03  0.00000000000E+00 0. -1.
</event>
<event>
 7    1  0.3056346E-009  0.1164922E+03  0.7561462E-02  0.1248999E+00
         -1   -1    0    0    0  501 -0.00000000000E+00  0.00000000000E+00  0.11260883252E+03  0.11260883252E+03  0.00000000000E+00 0.  1.
          1   -1    0    0  501    0  0.00000000000E+00 -0.00000000000E+00 -0.16492935630E+03  0.16492935630E+03  0.00000000000E+00 0. -1.
         25    2    1    2    0    0 -0.46941223015E+02  0.26931346675E+02 -0.90560918508E+02  0.16363586921E+03  0.12508653757E+03 0.  0.
          5    1    3    3  502    0  0.40256591816E+02 -0.24946934091E+01 -0.45934588189E+02  0.61272142707E+02  0.41800000000E+01 0.  1.
         -5    1    3    3    0  502 -0.87197814831E+02  0.29426040084E+02 -0.44626330318E+02  0.10236372651E+03  0.41800000000E+01 0.  1.
        -11    1    1    2    0    0  0.32767669249E+02  0.28295648677E+02 -0.32071253053E+01  0.43412550429E+02  0.00000000000E+00 0. -1.
         11    1    1    2    0    0  0.14173553767E+02 -0.55226995352E+02  0.41447520031E+02  0.70489769178E+02  0.00000000000E+00 0.  1.
</event>
<event>
 7    1  0.3056346E-009  0.1761345E+03  0.7561462E-02  0.1171597E+00
          2   -1    0    0  501    0  0.00000000000E+00  0.00000000000E+00  0.54101870317E+03  0.54101870317E+03  0.00000000000E+00 0. -1.
         -2   -1    0    0    0  501 -0.00000000000E+00 -0.00000000000E+00 -0.10041984927E+03  0.10041984927E+03  0.00000000000E+00 0.  1.
         25    2    1    2    0    0  0.11669298546E+02 -0.15485232991E+03  0.41680809258E+02  0.20371391654E+03  0.12508658332E+03 0.  0.
          5    1    3    3  502    0  0.48843928134E+02 -0.32940590706E+02 -0.19603570916E+02  0.62230090987E+02  0.41800000000E+01 0.  1.
         -5    1    3    3    0  502 -0.37174629587E+02 -0.12191173920E+03  0.61284380174E+02  0.14148382555E+03  0.41800000000E+01 0.  1.
        -11    1    1    2    0    0 -0.34720962149E+02  0.10845070502E+03  0.34338815210E+03  0.36177689759E+03  0.00000000000E+00 0. -1.
         11    1    1    2    0    0  0.23051663603E+02  0.46401624890E+02  0.55529892546E+02  0.75947738303E+02  0.00000000000E+00 0.  1.
</event>
<event>
 7    1  0.3056346E-009  0.1473816E+03  0.7561462E-02  0.1203728E+00
          2   -1    0    0  501    0  0.00000000000E+00  0.00000000000E+00  0.53584081427E+03  0.53584081427E+03  0.00000000000E+00 0. -1.
         -2   -1    0    0    0  501 -0.00000000000E+00 -0.00000000000E+00 -0.50285432804E+02  0.50285432804E+02  0.00000000000E+00 0.  1.
         25    2    1    2    0    0  0.11705684829E+03 -0.35859927905E+01  0.33784555755E+03  0.37881721950E+03  0.12509076688E+03 0.  0.
          5    1    3    3  502    0 -0.20231033466E+02 -0.24402104852E+02  0.74658970694E+02  0.81216942453E+02  0.41800000000E+01 0. -1.
         -5    1    3    3    0  502  0.13728788175E+03  0.20816112062E+02  0.26318658685E+03  0.29760027705E+03  0.41800000000E+01 0. -1.
        -11    1    1    2    0    0 -0.72768012610E+02 -0.17463895288E+02  0.31531620998E+02  0.81205999905E+02  0.00000000000E+00 0.  1.
         11    1    1    2    0    0 -0.44288835677E+02  0.21049888078E+02  0.11617820292E+03  0.12610302767E+03  0.00000000000E+00 0. -1.
</event>
<event>
 7    1  0.3056346E-009  0.9693106E+02  0.7561462E-02  0.1286885E+00
          2   -1    0    0  501    0  0.00000000000E+00  0.00000000000E+00  0.17790213773E+02  0.17790213773E+02  0.00000000000E+00 0. -1.
         -2   -1    0    0    0  501 -0.00000000000E+00 -0.00000000000E+00 -0.89385076155E+03  0.89385076155E+03  0.00000000000E+00 0.  1.
         25    2    1    2    0    0 -0.21285104664E+02 -0.55787272698E+02 -0.58442314989E+03  0.60063627186E+03  0.12509291536E+03 0.  0.
          5    1    3    3  502    0  0.18051031478E+02 -0.44647012768E+02 -0.53119237538E+03  0.53338729601E+03  0.41800000000E+01 0. -1.
         -5    1    3    3    0  502 -0.39336136142E+02 -0.11140259930E+02 -0.53230774514E+02  0.67248975853E+02  0.41800000000E+01 0. -1.
        -11    1    1    2    0    0  0.33620840943E+02 -0.11869499788E+02 -0.14054605862E+03  0.14499807089E+03  0.00000000000E+00 0.  1.
         11    1    1    2    0    0 -0.12335736279E+02  0.67656772486E+02 -0.15109133927E+03  0.16600663256E+03  0.00000000000E+00 0. -1.
</event>
<event>
 7    1  0.3056346E-009  0.2267094E+03  0.7561462E-02  0.1128978E+00
         -1   -1    0    0    0  501 -0.00000000000E+00  0.00000000000E+00  0.13331169946E+03  0.13331169946E+03  0.00000000000E+00 0.  1.
          1   -1    0    0  501    0  0.00000000000E+00 -0.00000000000E+00 -0.43754265062E+03  0.43754265062E+03  0.00000000000E+00 0. -1.
         25    2    1    2    0    0 -0.20988338667E+03 -0.25620386859E+02 -0.10714313464E+03  0.26803774213E+03  0.12512849271E+03 0.  0.
          5    1    3    3  502    0 -0.78998922080E+02  0.26782272264E+02 -0.94963234530E+02  0.12646583772E+03  0.41800000000E+01 0. -1.
         -5    1    3    3    0  502 -0.13088446459E+03 -0.52402659123E+02 -0.12179900105E+02  0.14157190442E+03  0.41800000000E+01 0. -1.
        -11    1    1    2    0    0  0.80652350137E+02 -0.32752314980E+02 -0.61150635203E+02  0.10638099410E+03  0.00000000000E+00 0.  1.
         11    1    1    2    0    0  0.12923103653E+03  0.58372701839E+02 -0.13593718132E+03  0.19643561385E+03  0.00000000000E+00 0. -1.
</event>
<event>
 7    1  0.3056346E-009  0.1571165E+03  0.7561462E-02  0.1191991E+00
         -1   -1    0    0    0  501 -0.00000000000E+00  0.00000000000E+00  0.64145547063E+03  0.64145547063E+03  0.00000000000E+00 0.  1.
          1   -1    0    0  501    0  0.00000000000E+00 -0.00000000000E+00 -0.59118864681E+02  0.59118864681E+02  0.00000000000E+00 0. -1.
         25    2    1    2    0    0 -0.91118892566E+02 -0.11993554397E+03  0.19606667187E+03  0.27708598559E+03  0.12508923337E+03 0.  0.
          5    1    3    3  502    0 -0.88462728338E+02 -0.72984318418E+02  0.19906910399E+03  0.22977890591E+03  0.41800000000E+01 0.  1.
         -5    1    3    3    0  502 -0.26561642281E+01 -0.46951225552E+02 -0.30024321225E+01  0.47307079681E+02  0.41800000000E+01 0.  1.
        -11    1    1    2    0    0  0.38497754314E+02  0.69072376520E+02  0.30053973464E+03  0.31076872813E+03  0.00000000000E+00 0.  1.
         11    1    1    2    0    0  0.52621138252E+02  0.50863167450E+02  0.85730199437E+02  0.11271962158E+03  0.00000000000E+00 0. -1.
</event>
<event>
 7    1  0.3222438E-009  0.1379362E+03  0.7561462E-02  0.1216133E+00
          2   -1    0    0  501    0  0.00000000000E+00  0.00000000000E+00  0.22929291341E+03  0.22929291341E+03  0.00000000000E+00 0. -1.
         -2   -1    0    0    0  501 -0.00000000000E+00 -0.00000000000E+00 -0.12536168763E+03  0.12536168763E+03  0.00000000000E+00 0.  1.
         25    2    1    2    0    0  0.78565475588E+02  0.57795654692E+02  0.14485562427E+03  0.21480631166E+03  0.12508288448E+03 0.  0.
          5    1    3    3  502    0 -0.30731743644E+02 -0.65020471500E+01  0.31123963572E+02  0.44417228560E+02  0.41800000000E+01 0.  1.
         -5    1    3    3    0  502  0.10929721923E+03  0.64297701842E+02  0.11373166070E+03  0.17038908310E+03  0.41800000000E+01 0.  1.
        -11    1    1    2    0    0 -0.85009798209E+01  0.14387878905E+02 -0.35346581238E+02  0.39098062900E+02  0.00000000000E+00 0.  1.
         11    1    1    2    0    0 -0.70064495767E+02 -0.72183533597E+02 -0.55778172643E+01  0.10075022648E+03  0.00000000000E+00 0. -1.
</event>
<event>
 7    1  0.3056346E-009  0.1694197E+03  0.7561462E-02  0.1178454E+00
         -1   -1    0    0    0  501 -0.00000000000E+00  0.00000000000E+00  0.50244245253E+03  0.50244245253E+03  0.00000000000E+00 0.  1.
          1   -1    0    0  501    0  0.00000000000E+00 -0.00000000000E+00 -0.88378797981E+02  0.88378797981E+02  0.00000000000E+00 0. -1.
         25    2    1    2    0    0  0.62873144113E+02  0.13184309506E+03  0.67066068741E+02  0.20366943916E+03  0.12509096252E+03 0.  0.
          5    1    3    3  502    0  0.57972488836E+02  0.15608770721E+03  0.52377047758E+02  0.17459956854E+03  0.41800000000E+01 0. -1.
         -5    1    3    3    0  502  0.49006552776E+01 -0.24244612147E+02  0.14689020983E+02  0.29069870618E+02  0.41800000000E+01 0. -1.
        -11    1    1    2    0    0 -0.25770916153E+02 -0.34813311681E+02  0.21427576826E+03  0.21860972451E+03  0.00000000000E+00 0.  1.
         11    1    1    2    0    0 -0.37102227960E+02 -0.97029783377E+02  0.13272181755E+03  0.16854208684E+03  0.00000000000E+00 0. -1.
</event>
<event>
 7    1  0.3056346E-009  0.1395499E+03  0.7561462E-02  0.1213936E+00
          1   -1    0    0  501    0  0.00000000000E+00  0.00000000000E+00  0.13000411481E+03  0.13000411481E+03  0.00000000000E+00 0. -1.
         -1   -1    0    0    0  501 -0.00000000000E+00 -0.00000000000E+00 -0.17514264079E+03  0.17514264079E+03  0.00000000000E+00 0.  1.
         25    2    1    2    0    0 -0.90876060540E+02  0.80873910261E-01 -0.52109783602E+02  0.16316209047E+03  0.12509185945E+03 0.  0.
          5    1    3    3  502    0  0.28756565579E+02  0.15719985553E+02 -0.18420851560E+02  0.37826686107E+02  0.41800000000E+01 0.  1.
         -5    1    3    3    0  502 -0.11963262612E+03 -0.15639111643E+02 -0.33688932042E+02  0.12533540436E+03  0.41800000000E+01 0.  1.
        -11    1    1    2    0    0  0.94206064573E+02 -0.27169711889E+02 -0.23759852977E+02  0.10088362830E+03  0.00000000000E+00 0. -1.
         11    1    1    2    0    0 -0.33300040326E+01  0.27088837978E+02  0.30731110592E+02  0.41101036825E+02  0.00000000000E+00 0.  1.
</event>
<event>
 7    1  0.3056346E-009  0.2275590E+03  0.7561462E-02  0.1128370E+00
          2   -1    0    0  501    0  0.00000000000E+00  0.00000000000E+00  0.57971323889E+03  0.57971323889E+03  0.00000000000E+00 0.  1.
         -2   -1    0    0    0  501 -0.00000000000E+00 -0.00000000000E+00 -0.11068633787E+03  0.11068633787E+03  0.00000000000E+00 0. -1.
         25    2    1    2    0    0  0.21447182853E+03  0.66203152730E+02  0.18008890883E+03  0.31378532466E+03  0.12509273449E+03 0.  0.
          5    1    3    3  502    0  0.37544233213E+02  0.33273696917E+02  0.10933101297E+03  0.12036382825E+03  0.41800000000E+01 0. -1.
         -5    1    3    3    0  502  0.17692759532E+03  0.32929455813E+02  0.70757895857E+02  0.19342149640E+03  0.41800000000E+01 0. -1.
        -11    1    1    2    0    0 -0.11873429002E+03 -0.42737559670E+02  0.22838573547E+03  0.26092982734E+03  0.00000000000E+00 0.  1.
         11    1    1    2    0    0 -0.95737538507E+02 -0.23465593060E+02  0.60552256719E+02  0.11568442475E+03  0.00000000000E+00 0. -1.
</event>
<event>
 7    1  0.3056346E-009  0.9806218E+02  0.7561462E-02  0.1284424E+00
          1   -1    0    0  501    0  0.00000000000E+00  0.00000000000E+00  0.19244769251E+03  0.19244769251E+03  0.00000000000E+00 0. -1.
         -1   -1    0    0    0  501 -0.00000000000E+00 -0.00000000000E+00 -0.64365759587E+02  0.64365759587E+02  0.00000000000E+00 0.  1.
         25    2    1    2    0    0  0.82116262956E+01 -0.17720128000E+02  0.80103777141E+02  0.14981854809E+03  0.12509016147E+03 0.  0.
          5    1    3    3  502    0  0.30834528005E+02 -0.62589573331E+02  0.68936903241E+02  0.98173274548E+02  0.41800000000E+01 0.  1.
         -5    1    3    3    0  502 -0.22622901710E+02  0.44869445331E+02  0.11166873900E+02  0.51645273538E+02  0.41800000000E+01 0.  1.
        -11    1    1    2    0    0 -0.28368188690E+02 -0.18840189102E+02 -0.10052463736E+02  0.35507166630E+02  0.00000000000E+00 0.  1.
         11    1    1    2    0    0  0.20156562394E+02  0.36560317102E+02  0.58030619514E+02  0.71487737377E+02  0.00000000000E+00 0. -1.
</event>
<event>
 7    1  0.3056346E-009  0.8332570E+02  0.7561462E-02  0.1319870E+00
          1   -1    0    0  501    0  0.00000000000E+00  0.00000000000E+00  0.10709610271E+04  0.10709610271E+04  0.00000000000E+00 0. -1.
         -1   -1    0    0    0  501 -0.00000000000E+00 -0.00000000000E+00 -0.16416093723E+02  0.16416093723E+02  0.00000000000E+00 0.  1.
         25    2    1    2    0    0 -0.85320497265E+01  0.11433554384E+01  0.90541385333E+03  0.91405483496E+03  0.12509153598E+03 0.  0.
          5    1    3    3  502    0  0.38690017150E+02  0.23397431491E+02  0.14743485266E+03  0.15426880892E+03  0.41800000000E+01 0.  1.
         -5    1    3    3    0  502 -0.47222066877E+02 -0.22254076053E+02  0.75797900068E+03  0.75978602604E+03  0.41800000000E+01 0.  1.
        -11    1    1    2    0    0  0.20099571648E+02 -0.30948528480E+02  0.13197830700E+03  0.13704042365E+03  0.00000000000E+00 0. -1.
         11    1    1    2    0    0 -0.11567521922E+02  0.29805173042E+02  0.17152773067E+02  0.36281862237E+02  0.00000000000E+00 0.  1.
</event>
<event>
 7    1  0.3056346E-009  0.8416583E+02  0.7561462E-02  0.1317629E+00
          1   -1    0    0  501    0  0.00000000000E+00  0.00000000000E+00  0.23790038909E+03  0.23790038909E+03  0.00000000000E+00 0. -1.
         -1   -1    0    0    0  501 -0.00000000000E+00 -0.00000000000E+00 -0.58396216268E+02  0.58396216268E+02  0.00000000000E+00 0.  1.
         25    2    1    2    0    0 -0.23989516731E+02  0.40337514848E+02  0.10275251978E+03  0.16854655014E+03  0.12508895725E+03 0.  0.
          5    1    3    3  502    0  0.31267663523E+02  0.43853036752E+02  0.99140288952E+02  0.11290272321E+03  0.41800000000E+01 0. -1.
         -5    1    3    3    0  502 -0.55257180254E+02 -0.35155219047E+01  0.36122308245E+01  0.55643826930E+02  0.41800000000E+01 0. -1.
        -11    1    1    2    0    0  0.21313189731E+01 -0.36536180161E+02 -0.10215717841E+02  0.37997314015E+02  0.00000000000E+00 0.  1.
         11    1    1    2    0    0  0.21858197758E+02 -0.38013346868E+01  0.86967370889E+02  0.89752741206E+02  0.00000000000E+00 0. -1.
</event>
<event>
 7    1  0.3056346E-009  0.1818386E+03  0.7561462E-02  0.1166035E+00
         -2   -1    0    0    0  501 -0.00000000000E+00  0.00000000000E+00  0.75302824296E+02  0.75302824296E+02  0.00000000000E+00 0.  1.
          2   -1    0    0  501    0  0.00000000000E+00 -0.00000000000E+00 -0.54525519766E+03  0.54525519766E+03  0.00000000000E+00 0. -1.
         25    2    1    2    0    0 -0.14723093697E+03 -0.86277926465E+02 -0.25227263595E+03  0.32925911713E+03  0.12509697825E+03 0.  0.
          5    1    3    3  502    0 -0.80544852531E+02 -0.46549338475E+02 -0.36690402256E+02  0.10008982066E+03  0.41800000000E+01 0.  1.
         -5    1    3    3    0  502 -0.66686084443E+02 -0.39728587990E+02 -0.21558223370E+03  0.22916929648E+03  0.41800000000E+01 0.  1.
        -11    1    1    2    0    0  0.24980201247E+02 -0.19079398131E+02 -0.45576752910E+02  0.55364919337E+02  0.00000000000E+00 0. -1.
         11    1    1    2    0    0  0.12225073573E+03  0.10535732460E+03 -0.17210298450E+03  0.23593398549E+03  0.00000000000E+00 0.  1.
</event>
<event>
 7    1  0.3056346E-009  0.1300852E+03  0.7561462E-02  0.1227329E+00
         -2   -1    0    0    0  501 -0.00000000000E+00  0.00000000000E+00  0.23996460680E+02  0.23996460680E+02  0.00000000000E+00 0. -1.
          2   -1    0    0  501    0  0.00000000000E+00 -0.00000000000E+00 -0.78807613010E+03  0.78807613010E+03  0.00000000000E+00 0.  1.
         25    2    1    2    0    0  0.53140115564E+02  0.64188451029E+02 -0.36469911400E+03  0.39445635429E+03  0.12508534111E+03 0.  0.
          5    1    3    3  502    0 -0.20161495516E+02  0.62383778924E+02 -0.99152995748E+02  0.11894120707E+03  0.41800000000E+01 0.  1.
         -5    1    3    3    0  502  0.73301611080E+02  0.18046721044E+01 -0.26554611825E+03  0.27551514721E+03  0.41800000000E+01 0.  1.
        -11    1    1    2    0    0 -0.74337158356E+02 -0.66461134604E+02 -0.30616445301E+03  0.32199342821E+03  0.00000000000E+00 0. -1.
         11    1    1    2    0    0  0.21197042793E+02  0.22726835754E+01 -0.93216102417E+02  0.95622808281E+02  0.00000000000E+00 0.  1.
</event>
<event>
 7    1  0.3056346E-009  0.1048127E+03  0.7561462E-02  0.1270489E+00
         -2   -1    0    0    0  501 -0.00000000000E+00  0.00000000000E+00  0.14280744495E+02  0.14280744495E+02  0.00000000000E+00 0.  1.
          2   -1    0    0  501    0  0.00000000000E+00 -0.00000000000E+00 -0.97375166281E+03  0.97375166281E+03  0.00000000000E+00 0. -1.
         25    2    1    2    0    0 -0.20718534656E+01  0.18531164461E+02 -0.71282338614E+03  0.72395518024E+03  0.12508487733E+03 0.  0.
          5    1    3    3  502    0  0.59491509258E+02  0.17381775534E+02 -0.43098650625E+03  0.43544024477E+03  0.41800000000E+01 0. -1.
         -5    1    3    3    0  502 -0.61563362724E+02  0.11493889263E+01 -0.28183687989E+03  0.28851493547E+03  0.41800000000E+01 0. -1.
        -11    1    1    2    0    0  0.37331458414E+02 -0.30861880993E+02 -0.81924536280E+02  0.95172071168E+02  0.00000000000E+00 0.  1.
         11    1    1    2    0    0 -0.35259604949E+02  0.12330716532E+02 -0.16472299590E+03  0.16890515590E+03  0.00000000000E+00 0. -1.
</event>
<event>
 7    1  0.3056346E-009  0.1690484E+03  0.7561462E-02  0.1178844E+00
         -3   -1    0    0    0  501 -0.00000000000E+00  0.00000000000E+00  0.39860129440E+02  0.39860129440E+02  0.00000000000E+00 0.  1.
          3   -1    0    0  501    0  0.00000000000E+00 -0.00000000000E+00 -0.12189230144E+04  0.12189230144E+04  0.00000000000E+00 0. -1.
         25    2    1    2    0    0 -0.14041428198E+03  0.71483236136E+02 -0.30060939004E+03  0.36171678651E+03  0.12508798756E+03 0.  0.
          5    1    3    3  502    0 -0.95516497994E+02  0.63081932141E+02 -0.29380923041E+03  0.31534753500E+03  0.41800000000E+01 0. -1.
         -5    1    3    3    0  502 -0.44897783982E+02  0.84013039952E+01 -0.68001596273E+01  0.46369251517E+02  0.41800000000E+01 0. -1.
        -11    1    1    2    0    0  0.54623819298E+02  0.14195569332E+02 -0.19763025503E+03  0.20553100381E+03  0.00000000000E+00 0.  1.
         11    1    1    2    0    0  0.85790462678E+02 -0.85678805468E+02 -0.68082323986E+03  0.69153535349E+03  0.00000000000E+00 0. -1.
</event>
<event>
 7    1  0.3056346E-009  0.1219992E+03  0.7561462E-02  0.1239835E+00
          2   -1    0    0  501    0  0.00000000000E+00  0.00000000000E+00  0.40916140388E+03  0.40916140388E+03  0.00000000000E+00 0. -1.
         -2   -1    0    0    0  501 -0.00000000000E+00 -0.00000000000E+00 -0.38253805458E+02  0.38253805458E+02  0.00000000000E+00 0.  1.
         25    2    1    2    0    0 -0.36487897105E+02 -0.50482689378E+02  0.21354166967E+03  0.25520180462E+03  0.12509215736E+03 0.  0.
          5    1    3    3  502    0 -0.42324061990E+02  0.33615076957E+02  0.68087990415E+02  0.87033019372E+02  0.41800000000E+01 0.  1.
         -5    1    3    3    0  502  0.58361648852E+01 -0.84097766335E+02  0.14545367925E+03  0.16816878525E+03  0.41800000000E+01 0.  1.
        -11    1    1    2    0    0 -0.29889676408E+01 -0.22345754693E+02  0.13716649004E+02  0.26389640775E+02  0.00000000000E+00 0. -1.
         11    1    1    2    0    0  0.39476864746E+02  0.72828444070E+02  0.14364927975E+03  0.16582376394E+03  0.00000000000E+00 0.  1.
</event>
<event>
 7    1  0.3056346E-009  0.2193126E+03  0.7561462E-02  0.1134397E+00
          3   -1    0    0  501    0  0.00000000000E+00  0.00000000000E+00  0.51730128693E+02  0.51730128693E+02  0.00000000000E+00 0. -1.
         -3   -1    0    0    0  501 -0.00000000000E+00 -0.00000000000E+00 -0.10233304675E+04  0.10233304675E+04  0.00000000000E+00 0.  1.
         25    2    1    2    0    0 -0.19131769850E+03 -0.66334999283E+02 -0.50511991341E+03  0.55838726944E+03  0.12508965531E+03 0.  0.
          5    1    3    3  502    0 -0.18011287142E+03 -0.94809712890E+02 -0.46611602516E+03  0.50863655927E+03  0.41800000000E+01 0.  1.
         -5    1    3    3    0  502 -0.11204827086E+02  0.28474713608E+02 -0.39003888244E+02  0.49750710178E+02  0.41800000000E+01 0.  1.
        -11    1    1    2    0    0  0.49810560214E+02  0.54559914652E+01 -0.42946577057E+02  0.65994456075E+02  0.00000000000E+00 0. -1.
         11    1    1    2    0    0  0.14150713829E+03  0.60879007817E+02 -0.42353384832E+03  0.45067887065E+03  0.00000000000E+00 0.  1.
</event>
<event>
 7    1  0.3056346E-009  0.1834116E+03  0.7561462E-02  0.1164542E+00
          4   -1    0    0  501    0  0.00000000000E+00  0.00000000000E+00  0.12461889011E+03  0.12461889011E+03  0.00000000000E+00 0. -1.
         -4   -1    0    0    0  501 -0.00000000000E+00 -0.00000000000E+00 -0.32627972458E+03  0.32627972458E+03  0.00000000000E+00 0.  1.
         25    2    1    2    0    0 -0.87462324748E+02 -0.13518770689E+03 -0.42198727710E+02  0.20822921475E+03  0.12511314445E+03 0.  0.
          5    1    3    3  502    0  0.16659350330E+02 -0.16077807995E+01 -0.34575380473E+02  0.38639982497E+02  0.41800000000E+01 0. -1.
         -5    1    3    3    0  502 -0.10412167508E+03 -0.13357992609E+03 -0.76233472369E+01  0.16958923226E+03  0.41800000000E+01 0. -1.
        -11    1    1    2    0    0  0.10308182828E+03  0.11221439094E+03 -0.14861012838E+03  0.21284478644E+03  0.00000000000E+00 0.  1.
         11    1    1    2    0    0 -0.15619503528E+02  0.22973315940E+02 -0.10851978375E+02  0.29824613500E+02  0.00000000000E+00 0. -1.
</event>
<event>
 7    1  0.3056346E-009  0.1605349E+03  0.7561462E-02  0.1188094E+00
         -1   -1    0    0    0  501 -0.00000000000E+00  0.00000000000E+00  0.64860430907E+02  0.64860430907E+02  0.00000000000E+00 0.  1.
          1   -1    0    0  501    0  0.00000000000E+00 -0.00000000000E+00 -0.69145679052E+03  0.69145679052E+03  0.00000000000E+00 0. -1.
         25    2    1    2    0    0  0.26146630838E+02 -0.12247675585E+03 -0.92637329572E+02  0.19978332943E+03  0.12508997506E+03 0.  0.
          5    1    3    3  502    0  0.69452874361E+02 -0.11027777081E+03 -0.57331748995E+02  0.14244047997E+03  0.41800000000E+01 0.  1.
         -5    1    3    3    0  502 -0.43306243523E+02 -0.12198985039E+02 -0.35305580577E+02  0.57342849458E+02  0.41800000000E+01 0.  1.
        -11    1    1    2    0    0  0.17782716025E+02  0.87638314244E+02 -0.21782240606E+03  0.23546400934E+03  0.00000000000E+00 0.  1.
         11    1    1    2    0    0 -0.43929346862E+02  0.34838441603E+02 -0.31613662398E+03  0.32106988266E+03  0.00000000000E+00 0. -1.
</event>
<event>
 7    1  0.3056346E-009  0.1025337E+03  0.7561462E-02  0.1275056E+00
         -1   -1    0    0    0  501 -0.00000000000E+00  0.00000000000E+00  0.24755915683E+03  0.24755915683E+03  0.00000000000E+00 0.  1.
          1   -1    0    0  501    0  0.00000000000E+00 -0.00000000000E+00 -0.59954486559E+02  0.59954486559E+02  0.00000000000E+00 0. -1.
         25    2    1    2    0    0 -0.79256655639E+00  0.35791152318E+02  0.15418007713E+03  0.20174375403E+03  0.12508961331E+03 0.  0.
          5    1    3    3  502    0 -0.50994899288E+02  0.46091797647E+02  0.12475837451E+03  0.14250283497E+03  0.41800000000E+01 0. -1.
         -5    1    3    3    0  502  0.50202332732E+02 -0.10300645329E+02  0.29421702623E+02  0.59240919061E+02  0.41800000000E+01 0. -1.
        -11    1    1    2    0    0  0.31314495911E+02 -0.43219069472E+02 -0.78030629148E+01  0.53938607797E+02  0.00000000000E+00 0. -1.
         11    1    1    2    0    0 -0.30521929354E+02  0.74279171542E+01  0.41227656050E+02  0.51831281560E+02  0.00000000000E+00 0.  1.
</event>
<event>
 7    1  0.3056346E-009  0.1373383E+03  0.7561462E-02  0.1216956E+00
         -1   -1    0    0    0  501 -0.00000000000E+00  0.00000000000E+00  0.14717677548E+03  0.14717677548E+03  0.00000000000E+00 0.  1.
          1   -1    0    0  501    0  0.00000000000E+00 -0.00000000000E+00 -0.14522569644E+03  0.14522569644E+03  0.00000000000E+00 0. -1.
         25    2    1    2    0    0 -0.58253131368E+02  0.78147392162E+02  0.78095212981E+01  0.15875992357E+03  0.12507310859E+03 0.  0.
          5    1    3    3  502    0  0.13269959927E+02  0.67310442020E+02  0.39940608559E+02  0.79495358691E+02  0.41800000000E+01 0. -1.
         -5    1    3    3    0  502 -0.71523091294E+02  0.10836950142E+02 -0.32131087261E+02  0.79264564878E+02  0.41800000000E+01 0. -1.
        -11    1    1    2    0    0  0.31333942330E+02 -0.96131520322E+02 -0.32050390559E+01  0.10116005841E+03  0.00000000000E+00 0. -1.
         11    1    1    2    0    0  0.26919189038E+02  0.17984128160E+02 -0.26534032034E+01  0.32482489940E+02  0.00000000000E+00 0.  1.
</event>
<event>
 7    1  0.3056346E-009  0.1957699E+03  0.7561462E-02  0.1153358E+00
          2   -1    0    0  501    0  0.00000000000E+00  0.00000000000E+00  0.93540006082E+02  0.93540006082E+02  0.00000000000E+00 0. -1.
         -2   -1    0    0    0  501 -0.00000000000E+00 -0.00000000000E+00 -0.48071135467E+03  0.48071135467E+03  0.00000000000E+00 0.  1.
         25    2    1    2    0    0 -0.38073122914E+02 -0.17153041521E+03 -0.26414916453E+03  0.34101931023E+03  0.12508853983E+03 0.  0.
          5    1    3    3  502    0 -0.64944968949E+02 -0.15535985632E+03 -0.16055541713E+03  0.23270162938E+03  0.41800000000E+01 0.  1.
         -5    1    3    3    0  502  0.26871846035E+02 -0.16170558892E+02 -0.10359374740E+03  0.10831768085E+03  0.41800000000E+01 0.  1.
        -11    1    1    2    0    0  0.57551294571E+02  0.84233498888E+02 -0.35301209448E+02  0.10795188387E+03  0.00000000000E+00 0. -1.
         11    1    1    2    0    0 -0.19478171658E+02  0.87296916321E+02 -0.87720974601E+02  0.12528016665E+03  0.00000000000E+00 0.  1.
</event>
<event>
 7    1  0.3056346E-009  0.1466085E+03  0.7561462E-02  0.1204703E+00
          1   -1    0    0  501    0  0.00000000000E+00  0.00000000000E+00  0.97206008248E+03  0.97206008248E+03  0.00000000000E+00 0. -1.
         -1   -1    0    0    0  501 -0.00000000000E+00 -0.00000000000E+00 -0.23453309618E+02  0.23453309618E+02  0.00000000000E+00 0.  1.
         25    2    1    2    0    0 -0.14965179345E+02 -0.98466221475E+02  0.41013157972E+03  0.44019875692E+03  0.12508988587E+03 0.  0.
          5    1    3    3  502    0  0.43874258887E+02 -0.90081575276E+02  0.26145864971E+03  0.28003167447E+03  0.41800000000E+01 0.  1.
         -5    1    3    3    0  502 -0.58839438233E+02 -0.83846461984E+01  0.14867293001E+03  0.16016708245E+03  0.41800000000E+01 0.  1.
        -11    1    1    2    0    0  0.32013767760E+02 -0.13959463473E+01  0.89846615458E+02  0.95389959124E+02  0.00000000000E+00 0. -1.
         11    1    1    2    0    0 -0.17048588414E+02  0.99862167822E+02  0.44862857768E+03  0.45992467605E+03  0.00000000000E+00 0.  1.
</event>
<event>
 7    1  0.3056346E-009  0.8148772E+02  0.7561462E-02  0.1324882E+00
         -1   -1    0    0    0  501 -0.00000000000E+00  0.00000000000E+00  0.48789753780E+02  0.48789753780E+02  0.00000000000E+00 0.  1.
          1   -1    0    0  501    0  0.00000000000E+00 -0.00000000000E+00 -0.25473036866E+03  0.25473036866E+03  0.00000000000E+00 0. -1.
         25    2    1    2    0    0  0.18319557790E+02  0.43413708375E+01 -0.12622283109E+03  0.17870087799E+03  0.12508935610E+03 0.  0.
          5    1    3    3  502    0  0.53497952381E+02  0.11855344905E+02 -0.13110730460E+03  0.14215898787E+03  0.41800000000E+01 0. -1.
         -5    1    3    3    0  502 -0.35178394592E+02 -0.75139740671E+01  0.48844735141E+01  0.36541890124E+02  0.41800000000E+01 0. -1.
        -11    1    1    2    0    0 -0.38798457669E+02 -0.22142488628E+02 -0.86051144357E+02  0.96955709297E+02  0.00000000000E+00 0. -1.
         11    1    1    2    0    0  0.20478899879E+02  0.17801117790E+02  0.63333605671E+01  0.27863535147E+02  0.00000000000E+00 0.  1.
</event>
<event>
 7    1  0.3056346E-009  0.9760073E+02  0.7561462E-02  0.1285424E+00
         -3   -1    0    0    0  501 -0.00000000000E+00  0.00000000000E+00  0.46720672122E+03  0.46720672122E+03  0.00000000000E+00 0.  1.
          3   -1    0    0  501    0  0.00000000000E+00 -0.00000000000E+00 -0.34706573403E+02  0.34706573403E+02  0.00000000000E+00 0. -1.
         25    2    1    2    0    0  0.36956561289E+02 -0.40073257249E+01  0.12911572253E+03  0.18357657327E+03  0.12509053668E+03 0.  0.
          5    1    3    3  502    0  0.25952541433E+02  0.54813657269E+02  0.99684344727E+02  0.11675835051E+03  0.41800000000E+01 0.  1.
         -5    1    3    3    0  502  0.11004019856E+02 -0.58820982993E+02  0.29431377799E+02  0.66818222757E+02  0.41800000000E+01 0.  1.
        -11    1    1    2    0    0  0.12411574975E+02  0.19118698190E+02  0.20114004957E+02  0.30399753441E+02  0.00000000000E+00 0. -1.
         11    1    1    2    0    0 -0.49368136264E+02 -0.15111372465E+02  0.28327042033E+03  0.28793696792E+03  0.00000000000E+00 0.  1.
</event>
<event>
 7    1  0.3056346E-009  0.1486657E+03  0.7561462E-02  0.1202122E+00
         -1   -1    0    0    0  501 -0.00000000000E+00  0.00000000000E+00  0.22508864653E+03  0.22508864653E+03  0.00000000000E+00 0.  1.
          1   -1    0    0  501    0  0.00000000000E+00 -0.00000000000E+00 -0.12354260064E+03  0.12354260064E+03  0.00000000000E+00 0. -1.
         25    2    1    2    0    0 -0.10042502385E+03  0.76970207609E+02  0.76892276063E+02  0.19382879285E+03  0.12509028957E+03 0.  0.
          5    1    3    3  502    0 -0.14707192282E+02 -0.18982429187E+02 -0.20945274183E+02  0.32137377511E+02  0.41800000000E+01 0. -1.
         -5    1    3    3    0  502 -0.85717831566E+02  0.95952636796E+02  0.97837550246E+02  0.16169141534E+03  0.41800000000E+01 0. -1.
        -11    1    1    2    0    0  0.15936428777E+02 -0.54524533446E+02  0.35078596658E+02  0.66763780998E+02  0.00000000000E+00 0.  1.
         11    1    1    2    0    0  0.84488595070E+02 -0.22445674163E+02 -0.10424826831E+02  0.88038673320E+02  0.00000000000E+00 0. -1.
</event>
<event>
 7    1  0.3056346E-009  0.2337643E+03  0.7561462E-02  0.1124018E+00
          1   -1    0    0  501    0  0.00000000000E+00  0.00000000000E+00  0.77048532266E+03  0.77048532266E+03  0.00000000000E+00 0. -1.
         -1   -1    0    0    0  501 -0.00000000000E+00 -0.00000000000E+00 -0.90241891382E+02  0.90241891382E+02  0.00000000000E+00 0.  1.
         25    2    1    2    0    0 -0.17736548468E+03 -0.10780547577E+03  0.15195700141E+03  0.28604027511E+03  0.12509025920E+03 0.  0.
          5    1    3    3  502    0 -0.11391002150E+03 -0.13134503742E+03  0.11834657320E+03  0.21035778008E+03  0.41800000000E+01 0.  1.
         -5    1    3    3    0  502 -0.63455463179E+02  0.23539561646E+02  0.33610428210E+02  0.75682495032E+02  0.41800000000E+01 0.  1.
        -11    1    1    2    0    0  0.11622594621E+03  0.18663082792E+02  0.25792333048E+03  0.28351582961E+03  0.00000000000E+00 0.  1.
         11    1    1    2    0    0  0.61139538476E+02  0.89142392983E+02  0.27036309939E+03  0.29117110932E+03  0.00000000000E+00 0. -1.
</event>
<event>
 7    1  0.3056346E-009  0.8375773E+02  0.7561462E-02  0.1318714E+00
         -1   -1    0    0    0  501 -0.00000000000E+00  0.00000000000E+00  0.54791898353E+02  0.54791898353E+02  0.00000000000E+00 0.  1.
          1   -1    0    0  501    0  0.00000000000E+00 -0.00000000000E+00 -0.30092186978E+03  0.30092186978E+03  0.00000000000E+00 0. -1.
         25    2    1    2    0    0  0.41192297204E+02 -0.39706542834E+02 -0.17517596538E+03  0.22272780244E+03  0.12509052818E+03 0.  0.
          5    1    3    3  502    0  0.47205066651E+02 -0.25685600786E+01 -0.17852615274E+03  0.18472675884E+03  0.41800000000E+01 0.  1.
         -5    1    3    3    0  502 -0.60127694477E+01 -0.37137982755E+02  0.33501873608E+01  0.38001043603E+02  0.41800000000E+01 0.  1.
        -11    1    1    2    0    0 -0.56265063553E+02  0.26631356960E+02 -0.31743793427E+01  0.62330275423E+02  0.00000000000E+00 0.  1.
         11    1    1    2    0    0  0.15072766350E+02  0.13075185874E+02 -0.67779626708E+02  0.70655690271E+02  0.00000000000E+00 0. -1.
</event>
<event>
 7    1  0.3056346E-009  0.1022086E+03  0.7561462E-02  0.1275719E+00
          2   -1    0    0  501    0  0.00000000000E+00  0.00000000000E+00  0.55790914013E+03  0.55790914013E+03  0.00000000000E+00 0. -1.
         -2   -1    0    0    0  501 -0.00000000000E+00 -0.00000000000E+00 -0.25249901172E+02  0.25249901172E+02  0.00000000000E+00 0.  1.
         25    2    1    2    0    0  0.20747033893E+02  0.16347517969E+01  0.41266767985E+03  0.43171172954E+03  0.12508913461E+03 0.  0.
          5    1    3    3  502    0  0.59562773861E+02 -0.25659238029E+02  0.32967936610E+03  0.33602392379E+03  0.41800000000E+01 0.  1.
         -5    1    3    3    0  502 -0.38815739968E+02  0.27293989825E+02  0.82988313753E+02  0.95687805751E+02  0.41800000000E+01 0.  1.
        -11    1    1    2    0    0  0.96592893394E+01  0.39486661042E+02  0.44598838814E+02  0.60345295545E+02  0.00000000000E+00 0. -1.
         11    1    1    2    0    0 -0.30406323232E+02 -0.41121412839E+02  0.75392720294E+02  0.91102016222E+02  0.00000000000E+00 0.  1.
</event>
<event>
 7    1  0.3056346E-009  0.9998170E+02  0.7561462E-02  0.1280334E+00
         -2   -1    0    0    0  501 -0.00000000000E+00  0.00000000000E+00  0.21813956540E+03  0.21813956540E+03  0.00000000000E+00 0.  1.
          2   -1    0    0  501    0  0.00000000000E+00 -0.00000000000E+00 -0.77595903397E+02  0.77595903397E+02  0.00000000000E+00 0. -1.
         25    2    1    2    0    0 -0.39348532912E+02 -0.57919348827E+02  0.71752717007E+02  0.16030769480E+03  0.12508855504E+03 0.  0.
          5    1    3    3  502    0 -0.15734408629E+02  0.11643977746E+02  0.83437558242E+02  0.85804733890E+02  0.41800000000E+01 0. -1.
         -5    1    3    3    0  502 -0.23614124283E+02 -0.69563326572E+02 -0.11684841234E+02  0.74502960908E+02  0.41800000000E+01 0. -1.
        -11    1    1    2    0    0  0.65794985772E+01  0.70838228923E+02  0.17597876636E+02  0.73287309547E+02  0.00000000000E+00 0. -1.
         11    1    1    2    0    0  0.32769034335E+02 -0.12918880097E+02  0.51193068365E+02  0.62140464456E+02  0.00000000000E+00 0.  1.
</event>
<event>
 7    1  0.3056346E-009  0.1235180E+03  0.7561462E-02  0.1237404E+00
          2   -1    0    0  501    0  0.00000000000E+00  0.00000000000E+00  0.14136964994E+03  0.14136964994E+03  0.00000000000E+00 0.  1.
         -2   -1    0    0    0  501 -0.00000000000E+00 -0.00000000000E+00 -0.15320006986E+03  0.15320006986E+03  0.00000000000E+00 0. -1.
         25    2    1    2    0    0  0.71724818938E+02 -0.17872413002E+02  0.58725217630E+02  0.15671730625E+03  0.12509112716E+03 0.  0.
          5    1    3    3  502    0 -0.94330630830E+01 -0.48088987646E+02 -0.45332593322E+01  0.49391864230E+02  0.41800000000E+01 0.  1.
         -5    1    3    3    0  502  0.81157882021E+02  0.30216574644E+02  0.63258476962E+02  0.10732544202E+03  0.41800000000E+01 0.  1.
        -11    1    1    2    0    0 -0.86269145808E+02  0.30889514582E+02 -0.74308956550E+02  0.11797605118E+03  0.00000000000E+00 0. -1.
         11    1    1    2    0    0  0.14544326870E+02 -0.13017101581E+02  0.37533189982E+01  0.19876362372E+02  0.00000000000E+00 0.  1.
</event>
<event>
 7    1  0.3056346E-009  0.1110416E+03  0.7561462E-02  0.1258653E+00
          2   -1    0    0  501    0  0.00000000000E+00  0.00000000000E+00  0.64315915184E+02  0.64315915184E+02  0.00000000000E+00 0. -1.
         -2   -1    0    0    0  501 -0.00000000000E+00 -0.00000000000E+00 -0.21444558552E+03  0.21444558552E+03  0.00000000000E+00 0.  1.
         25    2    1    2    0    0  0.23456015814E+02  0.39587713058E+02 -0.69331355185E+02  0.15024022024E+03  0.12509162747E+03 0.  0.
          5    1    3    3  502    0  0.71348079490E+02  0.37911883729E+02 -0.61225238594E+02  0.10145866949E+03  0.41800000000E+01 0.  1.
         -5    1    3    3    0  502 -0.47892063676E+02  0.16758293287E+01 -0.81061165918E+01  0.48781550747E+02  0.41800000000E+01 0.  1.
        -11    1    1    2    0    0  0.11891877712E+02 -0.53710945009E+02 -0.69852666206E+02  0.88913876000E+02  0.00000000000E+00 0.  1.
         11    1    1    2    0    0 -0.35347893525E+02  0.14123231952E+02 -0.10945648944E+02  0.39607404462E+02  0.00000000000E+00 0. -1.
</event>
<event>
 7    1  0.3056346E-009  0.1286672E+03  0.7561462E-02  0.1229447E+00
         -1   -1    0    0    0  501 -0.00000000000E+00  0.00000000000E+00  0.20561851870E+03  0.20561851870E+03  0.00000000000E+00 0.  1.
          1   -1    0    0  501    0  0.00000000000E+00 -0.00000000000E+00 -0.11471417911E+03  0.11471417911E+03  0.00000000000E+00 0. -1.
         25    2    1    2    0    0 -0.58621601216E+02  0.70116357704E+02  0.11066401585E+03  0.19038402662E+03  0.12508699948E+03 0.  0.
          5    1    3    3  502    0 -0.20959102383E+02  0.99878181279E+02  0.95602509026E+02  0.13990084775E+03  0.41800000000E+01 0. -1.
         -5    1    3    3    0  502 -0.37662498833E+02 -0.29761823576E+02  0.15061506826E+02  0.50483178869E+02  0.41800000000E+01 0. -1.
        -11    1    1    2    0    0  0.24565739520E+02 -0.68661967205E+02  0.21880301498E+02  0.76135989467E+02  0.00000000000E+00 0.  1.
         11    1    1    2    0    0  0.34055861696E+02 -0.14543904989E+01 -0.41639977753E+02  0.53812681729E+02  0.00000000000E+00 0. -1.
</event>
<event>
 7    1  0.3056346E-009  0.1004515E+03  0.7561462E-02  0.1279349E+00
          2   -1    0    0  501    0  0.00000000000E+00  0.00000000000E+00  0.16789967345E+03  0.16789967345E+03  0.00000000000E+00 0. -1.
         -2   -1    0    0    0  501 -0.00000000000E+00 -0.00000000000E+00 -0.12812120005E+03  0.12812120005E+03  0.00000000000E+00 0.  1.
         25    2    1    2    0    0 -0.72990115405E+02 -0.68681133784E+02  0.24879347534E+02  0.16222179015E+03  0.12510904116E+03 0.  0.
          5    1    3    3  502    0 -0.33716163773E+02 -0.33910571661E+02  0.75329566312E+02  0.89323695236E+02  0.41800000000E+01 0. -1.
         -5    1    3    3    0  502 -0.39273951633E+02 -0.34770562123E+02 -0.50450218777E+02  0.72898094912E+02  0.41800000000E+01 0. -1.
        -11    1    1    2    0    0  0.65550645462E+02  0.60207618437E+02  0.46376886258E+02  0.10036264254E+03  0.00000000000E+00 0. -1.
         11    1    1    2    0    0  0.74394699437E+01  0.84735153467E+01 -0.31477760388E+02  0.33436440816E+02  0.00000000000E+00 0.  1.
</event>
<event>
 7    1  0.3056346E-009  0.1087097E+03  0.7561462E-02  0.1262978E+00
         -1   -1    0    0    0  501 -0.00000000000E+00  0.00000000000E+00  0.30652012179E+02  0.30652012179E+02  0.00000000000E+00 0.  1.
          1   -1    0    0  501    0  0.00000000000E+00 -0.00000000000E+00 -0.50930043138E+03  0.50930043138E+03  0.00000000000E+00 0. -1.
         25    2    1    2    0    0 -0.33626501550E+02  0.32293641479E+02 -0.35493272960E+03  0.37920771106E+03  0.12509046604E+03 0.  0.
          5    1    3    3  502    0 -0.56867687218E+02 -0.22212315630E+02 -0.98312254144E+02  0.11580195391E+03  0.41800000000E+01 0.  1.
         -5    1    3    3    0  502  0.23241185668E+02  0.54505957109E+02 -0.25662047546E+03  0.26340575715E+03  0.41800000000E+01 0.  1.
        -11    1    1    2    0    0  0.48283273923E+02 -0.52844761197E+02 -0.11198995449E+03  0.13291197551E+03  0.00000000000E+00 0.  1.
         11    1    1    2    0    0 -0.14656772373E+02  0.20551119718E+02 -0.11725735109E+02  0.27832756995E+02  0.00000000000E+00 0. -1.
</event>
<event>
 7    1  0.3056346E-009  0.1794611E+03  0.7561462E-02  0.1168326E+00
         -2   -1    0    0    0  501 -0.00000000000E+00  0.00000000000E+00  0.48891068496E+03  0.48891068496E+03  0.00000000000E+00 0. -1.
          2   -1    0    0  501    0  0.00000000000E+00 -0.00000000000E+00 -0.78761256849E+02  0.78761256849E+02  0.00000000000E+00 0.  1.
         25    2    1    2    0    0  0.61423943928E+02 -0.14042792864E+03  0.29615417533E+03  0.35615749914E+03  0.12509182465E+03 0.  0.
          5    1    3    3  502    0 -0.14114088487E+02 -0.11761008947E+03  0.18709795476E+03  0.22148240949E+03  0.41800000000E+01 0. -1.
         -5    1    3    3    0  502  0.75538032415E+02 -0.22817839177E+02  0.10905622057E+03  0.13467508964E+03  0.41800000000E+01 0. -1.
        -11    1    1    2    0    0  0.87249418931E+01  0.22872591511E+02 -0.10348817736E+02  0.26577774211E+02  0.00000000000E+00 0.  1.
         11    1    1    2    0    0 -0.70148885821E+02  0.11755533713E+03  0.12434407052E+03  0.18493666847E+03  0.00000000000E+00 0. -1.
</event>
<event>
 7    1  0.3056346E-009  0.1012135E+03  0.7561462E-02  0.1277765E+00
         -1   -1    0    0    0  501 -0.00000000000E+00  0.00000000000E+00  0.69726308778E+02  0.69726308778E+02  0.00000000000E+00 0.  1.
          1   -1    0    0  501    0  0.00000000000E+00 -0.00000000000E+00 -0.17816508815E+03  0.17816508815E+03  0.00000000000E+00 0. -1.
         25    2    1    2    0    0 -0.48861971906E+02 -0.12881531092E+02 -0.74763714766E+02  0.15424240954E+03  0.12509069395E+03 0.  0.
          5    1    3    3  502    0 -0.75525762708E+02 -0.40396378855E+02 -0.77525554601E+02  0.11560143716E+03  0.41800000000E+01 0.  1.
         -5    1    3    3    0  502  0.26663790802E+02  0.27514847763E+02  0.27618398357E+01  0.38640972382E+02  0.41800000000E+01 0.  1.
        -11    1    1    2    0    0  0.50641763191E+02  0.31361996604E+02 -0.42419167303E+02  0.73126935973E+02  0.00000000000E+00 0. -1.
         11    1    1    2    0    0 -0.17797912854E+01 -0.18480465512E+02  0.87441026912E+01  0.20522051418E+02  0.00000000000E+00 0.  1.
</event>
<event>
 6    1  0.3650848E-009  0.1379054E+03  0.7561462E-02  0.1216176E+00
          2   -1    0    0  501    0  0.00000000000E+00  0.00000000000E+00  0.40393330955E+03  0.40393330955E+03  0.00000000000E+00 0. -1.
         -2   -1    0    0    0  501 -0.00000000000E+00 -0.00000000000E+00 -0.65202199058E+02  0.65202199058E+02  0.00000000000E+00 0.  1.
          5    1    1    2  502    0 -0.93465241306E+02 -0.83650660153E+02  0.15360790015E+03  0.19835837181E+03  0.41800000000E+01 0.  1.
         -5    1    1    2    0  502  0.20407994077E+02  0.66808716284E+01  0.11027335812E+03  0.11242244517E+03  0.41800000000E+01 0.  1.
        -11    1    1    2    0    0  0.77576088291E+02  0.33119988462E+02  0.77013832054E+02  0.11421958430E+03  0.00000000000E+00 0.  1.
         11    1    1    2    0    0 -0.45188410621E+01  0.43849800062E+02 -0.21639798331E+01  0.44135107327E+02  0.00000000000E+00 0. -1.
</event>
<event>
 7    1  0.3056346E-009  0.8536944E+02  0.7561462E-02  0.1314469E+00
         -4   -1    0    0    0  501 -0.00000000000E+00  0.00000000000E+00  0.28012034950E+03  0.28012034950E+03  0.00000000000E+00 0.  1.
          4   -1    0    0  501    0  0.00000000000E+00 -0.00000000000E+00 -0.79674061799E+02  0.79674061799E+02  0.00000000000E+00 0. -1.
         25    2    1    2    0    0 -0.12125034918E+02 -0.13750674806E+02 -0.13024056971E+02  0.12712411611E+03  0.12511921239E+03 0.  0.
          5    1    3    3  502    0  0.31343211138E+02 -0.33722186272E+02  0.35931011731E+02  0.58549916613E+02  0.41800000000E+01 0.  1.
         -5    1    3    3    0  502 -0.43468246056E+02  0.19971511467E+02 -0.48955068702E+02  0.68574199500E+02  0.41800000000E+01 0.  1.
        -11    1    1    2    0    0 -0.30513510207E+02  0.14639955903E+02  0.33146648568E+02  0.47371963494E+02  0.00000000000E+00 0. -1.
         11    1    1    2    0    0  0.42638545126E+02 -0.88928109786E+00  0.18032369611E+03  0.18529833170E+03  0.00000000000E+00 0.  1.
</event>
<event>
 7    1  0.3056346E-009  0.9287118E+02  0.7561462E-02  0.1296044E+00
          2   -1    0    0  501    0  0.00000000000E+00  0.00000000000E+00  0.16614485146E+03  0.16614485146E+03  0.00000000000E+00 0. -1.
         -2   -1    0    0    0  501 -0.00000000000E+00 -0.00000000000E+00 -0.77202184826E+02  0.77202184826E+02  0.00000000000E+00 0.  1.
         25    2    1    2    0    0 -0.65709180830E+01  0.26158001567E+02  0.72536450556E+02  0.14709545385E+03  0.12509243731E+03 0.  0.
          5    1    3    3  502    0 -0.13310114262E+02  0.72610907843E+02  0.66758444207E+02  0.99617595596E+02  0.41800000000E+01 0.  1.
         -5    1    3    3    0  502  0.67391961786E+01 -0.46452906276E+02  0.57780063495E+01  0.47477858250E+02  0.41800000000E+01 0.  1.
        -11    1    1    2    0    0 -0.19435819393E+02 -0.32537727998E+02 -0.26096998540E+02  0.46016390031E+02  0.00000000000E+00 0.  1.
         11    1    1    2    0    0  0.26006737475E+02  0.63797264307E+01  0.42503214618E+02  0.50235192409E+02  0.00000000000E+00 0. -1.
</event>
<event>
 7    1  0.3056346E-009  0.2783836E+03  0.7561462E-02  0.1096575E+00
          1   -1    0    0  501    0  0.00000000000E+00  0.00000000000E+00  0.46247667986E+03  0.46247667986E+03  0.00000000000E+00 0. -1.
         -1   -1    0    0    0  501 -0.00000000000E+00 -0.00000000000E+00 -0.18957549214E+03  0.18957549214E+03  0.00000000000E+00 0.  1.
         25    2    1    2    0    0  0.19743088627E+03 -0.16753703276E+03  0.36204583671E+02  0.28983797471E+03  0.12509063717E+03 0.  0.
          5    1    3    3  502    0  0.57518177390E+02 -0.12276403623E+03 -0.94082244109E+01  0.13596078997E+03  0.41800000000E+01 0.  1.
         -5    1    3    3    0  502  0.13991270888E+03 -0.44772996534E+02  0.45612808082E+02  0.15387718474E+03  0.41800000000E+01 0.  1.
        -11    1    1    2    0    0 -0.10463008356E+03  0.31080905119E+02  0.95551732829E+02  0.14506416061E+03  0.00000000000E+00 0. -1.
         11    1    1    2    0    0 -0.92800802709E+02  0.13645612765E+03  0.14114487122E+03  0.21715003667E+03  0.00000000000E+00 0.  1.
</event>
<event>
 7    1  0.3056346E-009  0.1841237E+03  0.7561462E-02  0.1163871E+00
         -2   -1    0    0    0  501 -0.00000000000E+00  0.00000000000E+00  0.93046421668E+02  0.93046421668E+02  0.00000000000E+00 0.  1.
          2   -1    0    0  501    0  0.00000000000E+00 -0.00000000000E+00 -0.46045624121E+03  0.46045624121E+03  0.00000000000E+00 0. -1.
         25    2    1    2    0    0  0.13874307761E+03 -0.94899610112E+02 -0.25860707044E+03  0.33283635639E+03  0.12508735216E+03 0.  0.
          5    1    3    3  502    0  0.63196163701E+02 -0.10313509729E+03 -0.21045353061E+03  0.24277307170E+03  0.41800000000E+01 0.  1.
         -5    1    3    3    0  502  0.75546913911E+02  0.82354871735E+01 -0.48153539825E+02  0.90063284684E+02  0.41800000000E+01 0.  1.
        -11    1    1    2    0    0 -0.65870017030E+02  0.25983048818E+02 -0.96387307651E+02  0.11960138396E+03  0.00000000000E+00 0. -1.
         11    1    1    2    0    0 -0.72873060582E+02  0.68916561295E+02 -0.12415441458E+02  0.10106492253E+03  0.00000000000E+00 0.  1.
</event>
<event>
 7    1  0.3056346E-009  0.1218980E+03  0.7561462E-02  0.1239998E+00
         -2   -1    0    0    0  501 -0.00000000000E+00  0.00000000000E+00  0.16345577441E+03  0.16345577441E+03  0.00000000000E+00 0. -1.
          2   -1    0    0  501    0  0.00000000000E+00 -0.00000000000E+00 -0.13445160118E+03  0.13445160118E+03  0.00000000000E+00 0.  1.
         25    2    1    2    0    0  0.34492431054E+02  0.93104463955E+02  0.36274865241E+02  0.16377182514E+03  0.12508867196E+03 0.  0.
          5    1    3    3  502    0  0.51443838984E+02  0.81971685890E+02 -0.24204759469E+02  0.99845724185E+02  0.41800000000E+01 0.  1.
         -5    1    3    3    0  502 -0.16951407929E+02  0.11132778064E+02  0.60479624710E+02  0.63926100954E+02  0.41800000000E+01 0.  1.
        -11    1    1    2    0    0 -0.59333863731E+02 -0.56123911567E+02 -0.26141379232E+02  0.85754140092E+02  0.00000000000E+00 0.  1.
         11    1    1    2    0    0  0.24841432677E+02 -0.36980552388E+02  0.18870687219E+02  0.48381410360E+02  0.00000000000E+00 0. -1.
</event>
<event>
 7    1  0.3056346E-009  0.1094165E+03  0.7561462E-02  0.1261654E+00
         -1   -1    0    0    0  501 -0.00000000000E+00  0.00000000000E+00  0.11956588076E+03  0.11956588076E+03  0.00000000000E+00 0.  1.
          1   -1    0    0  501    0  0.00000000000E+00 -0.00000000000E+00 -0.10868994004E+03  0.10868994004E+03  0.00000000000E+00 0. -1.
         25    2    1    2    0    0 -0.11984650062E+02  0.23298314880E+02 -0.16515090311E+02  0.12886754748E+03  0.12509058027E+03 0.  0.
          5    1    3    3  502    0 -0.33670547421E+02 -0.44673515411E+02 -0.33646506324E+01  0.56198060613E+02  0.41800000000E+01 0.  1.
         -5    1    3    3    0  502  0.21685897359E+02  0.67971830291E+02 -0.13150439678E+02  0.72669486864E+02  0.41800000000E+01 0.  1.
        -11    1    1    2    0    0  0.30762781093E+02 -0.49950288860E+02  0.31402706290E+02  0.66539537270E+02  0.00000000000E+00 0.  1.
         11    1    1    2    0    0 -0.18778131031E+02  0.26651973980E+02 -0.40116752538E+01  0.32848736055E+02  0.00000000000E+00 0. -1.
</event>
<event>
 7    1  0.3056346E-009  0.8097173E+02  0.7561462E-02  0.1326316E+00
         -1   -1    0    0    0  501 -0.00000000000E+00  0.00000000000E+00  0.35801858429E+02  0.35801858429E+02  0.00000000000E+00 0.  1.
          1   -1    0    0  501    0  0.00000000000E+00 -0.00000000000E+00 -0.46789819572E+03  0.46789819572E+03  0.00000000000E+00 0. -1.
         25    2    1    2    0    0 -0.39150167918E+02  0.21267432078E+02 -0.34098135274E+03  0.36592496768E+03  0.12509100583E+03 0.  0.
          5    1    3    3  502    0  0.76333460452E+01  0.33376116555E+02 -0.17222675642E+02  0.38552899819E+02  0.41800000000E+01 0. -1.
         -5    1    3    3    0  502 -0.46783513963E+02 -0.12108684477E+02 -0.32375867710E+03  0.32737206786E+03  0.41800000000E+01 0. -1.
        -11    1    1    2    0    0  0.57356661213E+02 -0.12343305944E+02 -0.17213944397E+02  0.61142977265E+02  0.00000000000E+00 0.  1.
         11    1    1    2    0    0 -0.18206493295E+02 -0.89241261340E+01 -0.73901040146E+02  0.76632109197E+02  0.00000000000E+00 0. -1.
</event>
<event>
 7    1  0.3056346E-009  0.6838811E+02  0.7561462E-02  0.1365662E+00
         -3   -1    0    0    0  501 -0.00000000000E+00  0.00000000000E+00  0.15009081411E+03  0.15009081411E+03  0.00000000000E+00 0.  1.
          3   -1    0    0  501    0  0.00000000000E+00 -0.00000000000E+00 -0.97399279656E+02  0.97399279656E+02  0.00000000000E+00 0. -1.
         25    2    1    2    0    0  0.44216568761E+02  0.30395564050E+02  0.25616999929E+02  0.13850094202E+03  0.12508910819E+03 0.  0.
          5    1    3    3  502    0  0.47568812357E+02  0.29466358822E+02  0.72290328526E+02  0.91511869229E+02  0.41800000000E+01 0. -1.
         -5    1    3    3    0  502 -0.33522435961E+01  0.92920522716E+00 -0.46673328597E+02  0.46989072792E+02  0.41800000000E+01 0. -1.
        -11    1    1    2    0    0 -0.46781629080E+02 -0.42287127459E+02  0.51685372241E+02  0.81535879659E+02  0.00000000000E+00 0.  1.
         11    1    1    2    0    0  0.25650603197E+01  0.11891563410E+02 -0.24610837720E+02  0.27453272082E+02  0.00000000000E+00 0. -1.
</event>
<event>
 7    1  0.3056346E-009  0.9511613E+02  0.7561462E-02  0.1290915E+00
         -1   -1    0    0    0  501 -0.00000000000E+00  0.00000000000E+00  0.30395281290E+03  0.30395281290E+03  0.00000000000E+00 0.  1.
          1   -1    0    0  501    0  0.00000000000E+00 -0.00000000000E+00 -0.52610027370E+02  0.52610027370E+02  0.00000000000E+00 0. -1.
         25    2    1    2    0    0 -0.55221479761E+02 -0.29866510974E+01  0.11148715179E+03  0.17645300657E+03  0.12509175274E+03 0.  0.
          5    1    3    3  502    0 -0.77631482387E+02  0.15607903334E+02  0.22052990863E+02  0.82304680974E+02  0.41800000000E+01 0.  1.
         -5    1    3    3    0  502  0.22410002626E+02 -0.18594554431E+02  0.89434160930E+02  0.94148325601E+02  0.41800000000E+01 0.  1.
        -11    1    1    2    0    0 -0.26371948675E+00  0.22650594245E+02 -0.54795999020E+01  0.23305471089E+02  0.00000000000E+00 0. -1.
         11    1    1    2    0    0  0.55485199248E+02 -0.19663943147E+02  0.14533523364E+03  0.15680436261E+03  0.00000000000E+00 0.  1.
</event>
<event>
 7    1  0.3056346E-009  0.9378910E+02  0.7561462E-02  0.1293927E+00
         -2   -1    0    0    0  501 -0.00000000000E+00  0.00000000000E+00  0.57700179099E+03  0.57700179099E+03  0.00000000000E+00 0.  1.
          2   -1    0    0  501    0  0.00000000000E+00 -0.00000000000E+00 -0.21848585425E+02  0.21848585425E+02  0.00000000000E+00 0. -1.
         25    2    1    2    0    0 -0.76211275578E+01  0.10847332515E+02  0.38140072216E+03  0.40160674379E+03  0.12508285089E+03 0.  0.
          5    1    3    3  502    0 -0.60151043057E+02 -0.20309503931E+02  0.16981024690E+03  0.18133840267E+03  0.41800000000E+01 0. -1.
         -5    1    3    3    0  502  0.52529915499E+02  0.31156836446E+02  0.21159047525E+03  0.22026834112E+03  0.41800000000E+01 0. -1.
        -11    1    1    2    0    0  0.10650434819E+02  0.24784211811E+02  0.15409185020E+03  0.15643524928E+03  0.00000000000E+00 0.  1.
         11    1    1    2    0    0 -0.30293072617E+01 -0.35631544327E+02  0.19660633204E+02  0.40808383349E+02  0.00000000000E+00 0. -1.
</event>
<event>
 7    1  0.3056346E-009  0.9937539E+02  0.7561462E-02  0.1281615E+00
          1   -1    0    0  501    0  0.00000000000E+00  0.00000000000E+00  0.71866109155E+02  0.71866109155E+02  0.00000000000E+00 0. -1.
         -1   -1    0    0    0  501 -0.00000000000E+00 -0.00000000000E+00 -0.22792540778E+03  0.22792540778E+03  0.00000000000E+00 0.  1.
         25    2    1    2    0    0  0.52688909532E+02 -0.34099848392E+02 -0.10645205726E+03  0.17583686497E+03  0.12509053418E+03 0.  0.
          5    1    3    3  502    0  0.53008875185E+02 -0.76504793339E+02 -0.52013372271E+02  0.10670420585E+03  0.41800000000E+01 0.  1.
         -5    1    3    3    0  502 -0.31996565301E+00  0.42404944946E+02 -0.54438684985E+02  0.69132659118E+02  0.41800000000E+01 0.  1.
        -11    1    1    2    0    0 -0.37026406930E+02  0.26692032427E+02 -0.78185833484E+02  0.90534214321E+02  0.00000000000E+00 0.  1.
         11    1    1    2    0    0 -0.15662502602E+02  0.74078159652E+01  0.28578592112E+02  0.33420437642E+02  0.00000000000E+00 0. -1.
</event>
<event>
 7    1  0.3056346E-009  0.1172505E+03  0.7561462E-02  0.1247703E+00
         -2   -1    0    0    0  501 -0.00000000000E+00  0.00000000000E+00  0.60224601497E+02  0.60224601497E+02  0.00000000000E+00 0.  1.
          2   -1    0    0  501    0  0.00000000000E+00 -0.00000000000E+00 -0.25432025681E+03  0.25432025681E+03  0.00000000000E+00 0. -1.
         25    2    1    2    0    0 -0.45893622411E+02 -0.30558953923E+02 -0.96092546515E+02  0.16709658309E+03  0.12508963323E+03 0.  0.
          5    1    3    3  502    0  0.36765063094E+02 -0.15970120805E+02 -0.11716000764E+01  0.40318229991E+02  0.41800000000E+01 0. -1.
         -5    1    3    3    0  502 -0.82658685506E+02 -0.14588833118E+02 -0.94920946438E+02  0.12677835310E+03  0.41800000000E+01 0. -1.
        -11    1    1    2    0    0  0.28390140453E+02  0.65329678699E+02 -0.62655398009E+02  0.94866568893E+02  0.00000000000E+00 0.  1.
         11    1    1    2    0    0  0.17503481958E+02 -0.34770724777E+02 -0.35347710790E+02  0.52581706327E+02  0.00000000000E+00 0. -1.
</event>
<event>
 7    1  0.3056346E-009  0.9683433E+02  0.7561462E-02  0.1287097E+00
          4   -1    0    0  501    0  0.00000000000E+00  0.00000000000E+00  0.39912683563E+03  0.39912683563E+03  0.00000000000E+00 0. -1.
         -4   -1    0    0    0  501 -0.00000000000E+00 -0.00000000000E+00 -0.52080004745E+02  0.52080004745E+02  0.00000000000E+00 0.  1.
         25    2    1    2    0    0  0.54912614260E+01 -0.38993054246E+02  0.32283548862E+03  0.34845948941E+03  0.12510256117E+03 0.  0.
          5    1    3    3  502    0  0.23911633110E+01  0.29030482471E+02  0.23697425404E+03  0.23879438028E+03  0.41800000000E+01 0.  1.
         -5    1    3    3    0  502  0.31000981149E+01 -0.68023536717E+02  0.85861234583E+02  0.10966510913E+03  0.41800000000E+01 0.  1.
        -11    1    1    2    0    0  0.44961615543E+01 -0.27963081936E+02  0.20473541085E+02  0.34947321852E+02  0.00000000000E+00 0.  1.
         11    1    1    2    0    0 -0.99874229802E+01  0.66956136182E+02  0.37378011746E+01  0.67800029114E+02  0.00000000000E+00 0. -1.
</event>
<event>
 7    1  0.3056346E-009  0.1123540E+03  0.7561462E-02  0.1256272E+00
          4   -1    0    0  501    0  0.00000000000E+00  0.00000000000E+00  0.57126420042E+03  0.57126420042E+03  0.00000000000E+00 0. -1.
         -4   -1    0    0    0  501 -0.00000000000E+00 -0.00000000000E+00 -0.28122269105E+02  0.28122269105E+02  0.00000000000E+00 0.  1.
         25    2    1    2    0    0 -0.85811666389E+01 -0.27115073583E+02  0.16459687698E+03  0.20868470817E+03  0.12509321275E+03 0.  0.
          5    1    3    3  502    0 -0.60620418074E+02  0.13113902139E+02  0.85917493994E+02  0.10604761992E+03  0.41800000000E+01 0.  1.
         -5    1    3    3    0  502  0.52039251435E+02 -0.40228975721E+02  0.78679382986E+02  0.10263708825E+03  0.41800000000E+01 0.  1.
        -11    1    1    2    0    0  0.31377143835E+02 -0.24762261585E+02  0.16378761686E+03  0.16859441921E+03  0.00000000000E+00 0.  1.
         11    1    1    2    0    0 -0.22795977196E+02  0.51877335168E+02  0.21475743748E+03  0.22210734214E+03  0.00000000000E+00 0. -1.
</event>
<event>
 7    1  0.3056346E-009  0.1240176E+03  0.7561462E-02  0.1236613E+00
         -2   -1    0    0    0  501 -0.00000000000E+00  0.00000000000E+00  0.58567714669E+03  0.58567714669E+03  0.00000000000E+00 0.  1.
          2   -1    0    0  501    0  0.00000000000E+00 -0.00000000000E+00 -0.62223909306E+02  0.62223909306E+02  0.00000000000E+00 0. -1.
         25    2    1    2    0    0  0.90644192848E+02 -0.38090077909E+02  0.66889591353E+02  0.17259015717E+03  0.12508365677E+03 0.  0.
          5    1    3    3  502    0 -0.84446382862E+01 -0.17184307099E+02 -0.27713950731E+02  0.33943302599E+02  0.41800000000E+01 0.  1.
         -5    1    3    3    0  502  0.99088831134E+02 -0.20905770811E+02  0.94603542084E+02  0.13864685457E+03  0.41800000000E+01 0.  1.
        -11    1    1    2    0    0 -0.21398739158E+02  0.52196909111E+02  0.26956992803E+03  0.27540945782E+03  0.00000000000E+00 0.  1.
         11    1    1    2    0    0 -0.69245453690E+02 -0.14106831202E+02  0.18699371800E+03  0.19990144100E+03  0.00000000000E+00 0. -1.
</event>
<event>
 7    1  0.3056346E-009  0.1126854E+03  0.7561462E-02  0.1255676E+00
         -1   -1    0    0    0  501 -0.00000000000E+00  0.00000000000E+00  0.15817841114E+03  0.15817841114E+03  0.00000000000E+00 0.  1.
          1   -1    0    0  501    0  0.00000000000E+00 -0.00000000000E+00 -0.16267604959E+03  0.16267604959E+03  0.00000000000E+00 0. -1.
         25    2    1    2    0    0 -0.53374580251E+02  0.90699332149E+02 -0.57246551584E+02  0.17320433383E+03  0.12508940371E+03 0.  0.
          5    1    3    3  502    0 -0.32345225387E+02  0.56340064090E+02  0.33949430908E+02  0.73419702301E+02  0.41800000000E+01 0.  1.
         -5    1    3    3    0  502 -0.21029354864E+02  0.34359268059E+02 -0.91195982492E+02  0.99784631533E+02  0.41800000000E+01 0.  1.
        -11    1    1    2    0    0 -0.18712291630E+01 -0.52666848335E+02  0.60382474714E+02  0.80145752631E+02  0.00000000000E+00 0.  1.
         11    1    1    2    0    0  0.55245809414E+02 -0.38032483814E+02 -0.76335615852E+01  0.67504374268E+02  0.00000000000E+00 0. -1.
</event>
<event>
 7    1  0.3056346E-009  0.9571100E+02  0.7561462E-02  0.1289583E+00
          1   -1    0    0  501    0  0.00000000000E+00  0.00000000000E+00  0.48011129052E+03  0.48011129052E+03  0.00000000000E+00 0. -1.
         -1   -1    0    0    0  501 -0.00000000000E+00 -0.00000000000E+00 -0.31551253702E+02  0.31551253702E+02  0.00000000000E+00 0.  1.
         25    2    1    2    0    0  0.13234491263E+02 -0.49910303578E+02  0.31409228695E+03  0.34200501019E+03  0.12508905670E+03 0.  0.
          5    1    3    3  502    0  0.32143431659E+02  0.78829415924E+01  0.14670160661E+02  0.36442104505E+02  0.41800000000E+01 0.  1.
         -5    1    3    3    0  502 -0.18908940396E+02 -0.57793245170E+02  0.29942212629E+03  0.30556290568E+03  0.41800000000E+01 0.  1.
        -11    1    1    2    0    0 -0.46059238497E+02  0.13300574856E+02  0.95720259752E+02  0.10705478443E+03  0.00000000000E+00 0.  1.
         11    1    1    2    0    0  0.32824747235E+02  0.36609728722E+02  0.38747490112E+02  0.62602749605E+02  0.00000000000E+00 0. -1.
</event>
<event>
 7    1  0.3056346E-009  0.1455678E+03  0.7561462E-02  0.1206027E+00
         -3   -1    0    0    0  501 -0.00000000000E+00  0.00000000000E+00  0.18925625370E+03  0.18925625370E+03  0.00000000000E+00 0. -1.
          3   -1    0    0  501    0  0.00000000000E+00 -0.00000000000E+00 -0.14911050061E+03  0.14911050061E+03  0.00000000000E+00 0.  1.
         25    2    1    2    0    0  0.56762579882E+02  0.11115057503E+03  0.50465731897E+02  0.18376440839E+03  0.12508447902E+03 0.  0.
          5    1    3    3  502    0  0.86277297304E+02  0.93120643374E+02  0.68742161351E+02  0.14442362480E+03  0.41800000000E+01 0.  1.
         -5    1    3    3    0  502 -0.29514717422E+02  0.18029931653E+02 -0.18276429454E+02  0.39340783591E+02  0.41800000000E+01 0.  1.
        -11    1    1    2    0    0 -0.28674391365E+02 -0.22978564158E+02 -0.42910035999E+02  0.56493418381E+02  0.00000000000E+00 0.  1.
         11    1    1    2    0    0 -0.28088188517E+02 -0.88172010869E+02  0.32590057192E+02  0.98108927538E+02  0.00000000000E+00 0. -1.
</event>
<event>
 7    1  0.3056346E-009  0.1230642E+03  0.7561462E-02  0.1238126E+00
         -2   -1    0    0    0  501 -0.00000000000E+00  0.00000000000E+00  0.30824420651E+03  0.30824420651E+03  0.00000000000E+00 0.  1.
          2   -1    0    0  501    0  0.00000000000E+00 -0.00000000000E+00 -0.62279245769E+02  0.62279245769E+02  0.00000000000E+00 0. -1.
         25    2    1    2    0    0  0.74467780296E+02  0.25693019325E+02  0.89037647647E+02  0.17257226816E+03  0.12509158044E+03 0.  0.
          5    1    3    3  502    0 -0.53853574144E+01 -0.28908929335E+02 -0.12538742549E+02  0.32240048611E+02  0.41800000000E+01 0. -1.
         -5    1    3    3    0  502  0.79853137710E+02  0.54601948660E+02  0.10157639020E+03  0.14033221955E+03  0.41800000000E+01 0. -1.
        -11    1    1    2    0    0 -0.74336875775E+02  0.17530792109E+02  0.11241117190E+03  0.13590280108E+03  0.00000000000E+00 0.  1.
         11    1    1    2    0    0 -0.13090452105E+00 -0.43223811434E+02  0.44516141186E+02  0.62048383033E+02  0.00000000000E+00 0. -1.
</event>
<event>
 7    1  0.3056346E-009  0.1031640E+03  0.7561462E-02  0.1273780E+00
         -1   -1    0    0    0  501 -0.00000000000E+00  0.00000000000E+00  0.15255492544E+03  0.15255492544E+03  0.00000000000E+00 0.  1.
          1   -1    0    0  501    0  0.00000000000E+00 -0.00000000000E+00 -0.11992200126E+03  0.11992200126E+03  0.00000000000E+00 0. -1.
         25    2    1    2    0    0 -0.11693969857E+02 -0.52892264497E+01 -0.62378941395E+02  0.14037172456E+03  0.12509342061E+03 0.  0.
          5    1    3    3  502    0  0.37839489636E+02 -0.47238888923E+02 -0.28432676914E+02  0.67001709822E+02  0.41800000000E+01 0.  1.
         -5    1    3    3    0  502 -0.49533459493E+02  0.41949662473E+02 -0.33946264481E+02  0.73370014742E+02  0.41800000000E+01 0.  1.
        -11    1    1    2    0    0  0.16722929646E+02  0.41141472237E+02  0.82692482613E+02  0.93863325077E+02  0.00000000000E+00 0.  1.
         11    1    1    2    0    0 -0.50289597889E+01 -0.35852245787E+02  0.12319382967E+02  0.38241877062E+02  0.00000000000E+00 0. -1.
</event>
<event>
 7    1  0.3056346E-009  0.9809372E+02  0.7561462E-02  0.1284356E+00
          1   -1    0    0  501    0  0.00000000000E+00  0.00000000000E+00  0.23493760438E+02  0.23493760438E+02  0.00000000000E+00 0. -1.
         -1   -1    0    0    0  501 -0.00000000000E+00 -0.00000000000E+00 -0.55623293436E+03  0.55623293436E+03  0.00000000000E+00 0.  1.
         25    2    1    2    0    0 -0.12371933759E+01 -0.37836933330E+02 -0.31622462338E+03  0.34216712667E+03  0.12508863248E+03 0.  0.
          5    1    3    3  502    0 -0.60112822617E+02 -0.11958908317E+01 -0.16759709422E+03  0.17810457599E+03  0.41800000000E+01 0.  1.
         -5    1    3    3    0  502  0.58875629241E+02 -0.36641042498E+02 -0.14862752915E+03  0.16406255068E+03  0.41800000000E+01 0.  1.
        -11    1    1    2    0    0  0.27086073968E+02  0.27520586870E+02 -0.20296419556E+03  0.20660470175E+03  0.00000000000E+00 0.  1.
         11    1    1    2    0    0 -0.25848880592E+02  0.10316346459E+02 -0.13550354987E+02  0.30954866377E+02  0.00000000000E+00 0. -1.
</event>
<event>
 7    1  0.3056346E-009  0.9675185E+02  0.7561462E-02  0.1287279E+00
          1   -1    0    0  501    0  0.00000000000E+00  0.00000000000E+00  0.18920353445E+03  0.18920353445E+03  0.00000000000E+00 0. -1.
         -1   -1    0    0    0  501 -0.00000000000E+00 -0.00000000000E+00 -0.79385426970E+02  0.79385426970E+02  0.00000000000E+00 0.  1.
         25    2    1    2    0    0 -0.37116435900E+01  0.53902064923E+02  0.82347282031E+02  0.15921084994E+03  0.12509121064E+03 0.  0.
          5    1    3    3  502    0 -0.37606097224E+02  0.72358968863E+02  0.17310512607E+02  0.83469546363E+02  0.41800000000E+01 0. -1.
         -5    1    3    3    0  502  0.33894453634E+02 -0.18456903940E+02  0.65036769425E+02  0.75741303576E+02  0.41800000000E+01 0. -1.
        -11    1    1    2    0    0  0.26479038880E+02 -0.30177269528E+02 -0.25116636671E+02  0.47356652477E+02  0.00000000000E+00 0.  1.
         11    1    1    2    0    0 -0.22767395290E+02 -0.23724795395E+02  0.52587462118E+02  0.62021459003E+02  0.00000000000E+00 0. -1.
</event>
<event>
 7    1  0.3805059E-009  0.1376207E+03  0.7561462E-02  0.1216567E+00
          1   -1    0    0  501    0  0.00000000000E+00  0.00000000000E+00  0.43188502343E+03  0.43188502343E+03  0.00000000000E+00 0. -1.
         -1   -1    0    0    0  501 -0.00000000000E+00 -0.00000000000E+00 -0.62119515881E+02  0.62119515881E+02  0.00000000000E+00 0.  1.
         25    2    1    2    0    0  0.47737003240E+02 -0.10061663800E+03  0.12134233543E+03  0.20681979645E+03  0.12509171242E+03 0.  0.
          5    1    3    3  502    0 -0.38970009183E+02 -0.32630790742E+02  0.13882795202E+02  0.52854843892E+02  0.41800000000E+01 0.  1.
         -5    1    3    3    0  502  0.86707012423E+02 -0.67985847253E+02  0.10745954023E+03  0.15396495256E+03  0.41800000000E+01 0.  1.
        -11    1    1    2    0    0 -0.36976061215E+02  0.49739403479E+02  0.21864511060E+03  0.22725959110E+03  0.00000000000E+00 0. -1.
         11    1    1    2    0    0 -0.10760942025E+02  0.50877234517E+02  0.29778061528E+02  0.59925151762E+02  0.00000000000E+00 0.  1.
</event>
<event>
 7    1  0.3056346E-009  0.1532044E+03  0.7561462E-02  0.1196590E+00
         -2   -1    0    0    0  501 -0.00000000000E+00  0.00000000000E+00  0.33673953358E+02  0.33673953358E+02  0.00000000000E+00 0.  1.
          2   -1    0    0  501    0  0.00000000000E+00 -0.00000000000E+00 -0.13544224745E+04  0.13544224745E+04  0.00000000000E+00 0. -1.
         25    2    1    2    0    0  0.14590240018E+03 -0.11768296432E+02 -0.10491282673E+04  0.10666503439E+04  0.12508729664E+03 0.  0.
          5    1    3    3  502    0  0.13178820549E+03 -0.28750713752E+02 -0.52588694573E+03  0.54292659424E+03  0.41800000000E+01 0. -1.
         -5    1    3    3    0  502  0.14114194689E+02  0.16982417320E+02 -0.52324132153E+03  0.52372374965E+03  0.41800000000E+01 0. -1.
        -11    1    1    2    0    0 -0.29990348536E+02  0.13889850619E+02 -0.88146381703E+01  0.34205946875E+02  0.00000000000E+00 0.  1.
         11    1    1    2    0    0 -0.11591205164E+03 -0.21215541875E+01 -0.26280561573E+03  0.28724013711E+03  0.00000000000E+00 0. -1.
</event>
<event>
 7    1  0.3056346E-009  0.1045745E+03  0.7561462E-02  0.1270960E+00
         -1   -1    0    0    0  501 -0.00000000000E+00  0.00000000000E+00  0.68646319165E+02  0.68646319165E+02  0.00000000000E+00 0.  1.
          1   -1    0    0  501    0  0.00000000000E+00 -0.00000000000E+00 -0.21112547688E+03  0.21112547688E+03  0.00000000000E+00 0. -1.
         25    2    1    2    0    0 -0.11741427667E+02  0.20823015680E+02 -0.12587773253E+03  0.17906540371E+03  0.12509099150E+03 0.  0.
          5    1    3    3  502    0 -0.25365705943E+02  0.67966571988E+02 -0.48573973599E+02  0.87405819354E+02  0.41800000000E+01 0.  1.
         -5    1    3    3    0  502  0.13624278276E+02 -0.47143556308E+02 -0.77303758932E+02  0.91659584359E+02  0.41800000000E+01 0.  1.
        -11    1    1    2    0    0  0.41102893904E+02  0.12363232673E+02  0.15880455037E+02  0.45765557591E+02  0.00000000000E+00 0.  1.
         11    1    1    2    0    0 -0.29361466237E+02 -0.33186248353E+02 -0.32481880220E+02  0.54940834740E+02  0.00000000000E+00 0. -1.
</event>
<event>
 7    1  0.3056346E-009  0.1014619E+03  0.7561462E-02  0.1277251E+00
         -4   -1    0    0    0  501 -0.00000000000E+00  0.00000000000E+00  0.26083722803E+03  0.26083722803E+03  0.00000000000E+00 0.  1.
          4   -1    0    0  501    0  0.00000000000E+00 -0.00000000000E+00 -0.56542501684E+02  0.56542501684E+02  0.00000000000E+00 0. -1.
         25    2    1    2    0    0 -0.25774402737E+02 -0.22210420215E+02  0.17213325529E+03  0.21548865359E+03  0.12509148510E+03 0.  0.
          5    1    3    3  502    0  0.48590864042E+02 -0.21981933555E+02  0.55362021746E+02  0.76985085068E+02  0.41800000000E+01 0.  1.
         -5    1    3    3    0  502 -0.74365266779E+02 -0.22848665981E+00  0.11677123355E+03  0.13850356852E+03  0.41800000000E+01 0.  1.
        -11    1    1    2    0    0  0.33969428047E+02 -0.14789203110E+02  0.48154982221E+02  0.60758084920E+02  0.00000000000E+00 0.  1.
         11    1    1    2    0    0 -0.81950253099E+01  0.36999623325E+02 -0.15993511167E+02  0.41132991205E+02  0.00000000000E+00 0. -1.
</event>
<event>
 7    1  0.3056346E-009  0.1428930E+03  0.7561462E-02  0.1209488E+00
         -2   -1    0    0    0  501 -0.00000000000E+00  0.00000000000E+00  0.33873756610E+02  0.33873756610E+02  0.00000000000E+00 0.  1.
          2   -1    0    0  501    0  0.00000000000E+00 -0.00000000000E+00 -0.11716428416E+04  0.11716428416E+04  0.00000000000E+00 0. -1.
         25    2    1    2    0    0  0.52520347504E+02  0.92920185605E+02 -0.98567808205E+03  0.99930049109E+03  0.12509053625E+03 0.  0.
          5    1    3    3  502    0 -0.53926791478E+01  0.94118100853E+02 -0.77639928247E+03  0.78211291775E+03  0.41800000000E+01 0.  1.
         -5    1    3    3    0  502  0.57913026652E+02 -0.11979152481E+01 -0.20927879958E+03  0.21718757333E+03  0.41800000000E+01 0.  1.
        -11    1    1    2    0    0 -0.51239021687E+02 -0.12274061144E+02 -0.32295921989E+02  0.61799000781E+02  0.00000000000E+00 0.  1.
         11    1    1    2    0    0 -0.12813258170E+01 -0.80646124461E+02 -0.11979508100E+03  0.14441710639E+03  0.00000000000E+00 0. -1.
</event>
<event>
 7    1  0.3056346E-009  0.1009070E+03  0.7561462E-02  0.1278400E+00
         -2   -1    0    0    0  501 -0.00000000000E+00  0.00000000000E+00  0.10244642856E+03  0.10244642856E+03  0.00000000000E+00 0.  1.
          2   -1    0    0  501    0  0.00000000000E+00 -0.00000000000E+00 -0.14638341642E+03  0.14638341642E+03  0.00000000000E+00 0. -1.
         25    2    1    2    0    0 -0.44615189365E+02 -0.85449232208E+01 -0.17358638128E+02  0.13420997168E+03  0.12508982111E+03 0.  0.
          5    1    3    3  502    0 -0.37884916931E+02  0.31533669468E+02  0.40119346594E+02  0.63692021573E+02  0.41800000000E+01 0. -1.
         -5    1    3    3    0  502 -0.67302724339E+01 -0.40078592689E+02 -0.57477984722E+02  0.70517950102E+02  0.41800000000E+01 0. -1.
        -11    1    1    2    0    0 -0.30553083748E+02 -0.13138568980E+02 -0.83857596476E+01  0.34299182006E+02  0.00000000000E+00 0.  1.
         11    1    1    2    0    0  0.75168273113E+02  0.21683492201E+02 -0.18192590086E+02  0.80320691300E+02  0.00000000000E+00 0. -1.
</event>
<event>
 7    1  0.3056346E-009  0.8539785E+02  0.7561462E-02  0.1314395E+00
          2   -1    0    0  501    0  0.00000000000E+00  0.00000000000E+00  0.70863293819E+02  0.70863293819E+02  0.00000000000E+00 0.  1.
         -2   -1    0    0    0  501 -0.00000000000E+00 -0.00000000000E+00 -0.27063302170E+03  0.27063302170E+03  0.00000000000E+00 0. -1.
         25    2    1    2    0    0 -0.39923716016E+02  0.52991766781E+02 -0.17408032774E+03  0.22440125534E+03  0.12509969002E+03 0.  0.
          5    1    3    3  502    0 -0.72375766792E+01 -0.16434332231E+02 -0.13848763981E+03  0.13970958654E+03  0.41800000000E+01 0.  1.
         -5    1    3    3    0  502 -0.32686139337E+02  0.69426099013E+02 -0.35592687936E+02  0.84691668795E+02  0.41800000000E+01 0.  1.
        -11    1    1    2    0    0  0.11248600340E+02 -0.44062271448E+02  0.29540223430E+02  0.54227664297E+02  0.00000000000E+00 0.  1.
         11    1    1    2    0    0  0.28675115676E+02 -0.89294953333E+01 -0.55229623566E+02  0.62867395883E+02  0.00000000000E+00 0. -1.
</event>
<event>
 7    1  0.3056346E-009  0.9557173E+02  0.7561462E-02  0.1289894E+00
         -3   -1    0    0    0  501 -0.00000000000E+00  0.00000000000E+00  0.74237898566E+02  0.74237898566E+02  0.00000000000E+00 0.  1.
          3   -1    0    0  501    0  0.00000000000E+00 -0.00000000000E+00 -0.18478030465E+03  0.18478030465E+03  0.00000000000E+00 0. -1.
         25    2    1    2    0    0 -0.36241542235E+02  0.24519446635E+02 -0.67646040028E+02  0.14877451329E+03  0.12507284448E+03 0.  0.
          5    1    3    3  502    0 -0.60876652411E+02  0.13186812380E+01  0.11940524150E+02  0.62191271461E+02  0.41800000000E+01 0.  1.
         -5    1    3    3    0  502  0.24635110176E+02  0.23200765397E+02 -0.79586564178E+02  0.86583241831E+02  0.41800000000E+01 0.  1.
        -11    1    1    2    0    0 -0.28292457462E+02 -0.77369889415E+01  0.27136614683E+01  0.29456546059E+02  0.00000000000E+00 0. -1.
         11    1    1    2    0    0  0.64533999697E+02 -0.16782457693E+02 -0.45610027525E+02  0.80787143866E+02  0.00000000000E+00 0.  1.
</event>
<event>
 7    1  0.3056346E-009  0.1800381E+03  0.7561462E-02  0.1167766E+00
          1   -1    0    0  501    0  0.00000000000E+00  0.00000000000E+00  0.24485594227E+04  0.24485594227E+04  0.00000000000E+00 0. -1.
         -1   -1    0    0    0  501 -0.00000000000E+00 -0.00000000000E+00 -0.16213065466E+02  0.16213065466E+02  0.00000000000E+00 0.  1.
         25    2    1    2    0    0  0.42212586830E+02 -0.15589967554E+03  0.15314092322E+04  0.15449760689E+04  0.12510078205E+03 0.  0.
          5    1    3    3  502    0  0.57519341355E+02 -0.78447478232E+02  0.43701914706E+03  0.44773394864E+03  0.41800000000E+01 0. -1.
         -5    1    3    3    0  502 -0.15306754524E+02 -0.77452197309E+02  0.10943900851E+04  0.10972421202E+04  0.41800000000E+01 0. -1.
        -11    1    1    2    0    0 -0.46968110155E+02  0.26040069496E+02  0.32266097077E+03  0.32709966470E+03  0.00000000000E+00 0.  1.
         11    1    1    2    0    0  0.47555233251E+01  0.12985960605E+03  0.57827615429E+03  0.59269675459E+03  0.00000000000E+00 0. -1.
</event>
<event>
 7    1  0.3056346E-009  0.1626273E+03  0.7561462E-02  0.1185762E+00
         -1   -1    0    0    0  501 -0.00000000000E+00  0.00000000000E+00  0.22206273647E+03  0.22206273647E+03  0.00000000000E+00 0.  1.
          1   -1    0    0  501    0  0.00000000000E+00 -0.00000000000E+00 -0.19867515720E+03  0.19867515720E+03  0.00000000000E+00 0. -1.
         25    2    1    2    0    0  0.14269605346E+03  0.21148213236E+02 -0.94408327466E+02  0.21300089814E+03  0.12508812780E+03 0.  0.
          5    1    3    3  502    0  0.49598145551E+02 -0.42917294038E+02 -0.72417386536E+02  0.97793764844E+02  0.41800000000E+01 0. -1.
         -5    1    3    3    0  502  0.93097907909E+02  0.64065507274E+02 -0.21990940930E+02  0.11520713330E+03  0.41800000000E+01 0. -1.
        -11    1    1    2    0    0 -0.34645090247E+02  0.56914359852E+01  0.84541778380E+02  0.91542268999E+02  0.00000000000E+00 0.  1.
         11    1    1    2    0    0 -0.10805096321E+03 -0.26839649222E+02  0.33254128354E+02  0.11619472653E+03  0.00000000000E+00 0. -1.
</event>
<event>
 7    1  0.3056346E-009  0.7017645E+02  0.7561462E-02  0.1359494E+00
          1   -1    0    0  501    0  0.00000000000E+00  0.00000000000E+00  0.22102487359E+03  0.22102487359E+03  0.00000000000E+00 0. -1.
         -1   -1    0    0    0  501 -0.00000000000E+00 -0.00000000000E+00 -0.53361083342E+02  0.53361083342E+02  0.00000000000E+00 0.  1.
         25    2    1    2    0    0 -0.78168356301E+01  0.19823472882E+01  0.95831041856E+02  0.15777461474E+03  0.12507680782E+03 0.  0.
          5    1    3    3  502    0  0.22158546279E+02  0.20133631432E+01 -0.24697852500E+02  0.33503897123E+02  0.41800000000E+01 0. -1.
         -5    1    3    3    0  502 -0.29975381910E+02 -0.31015854996E-01  0.12052889436E+03  0.12427071762E+03  0.41800000000E+01 0. -1.
        -11    1    1    2    0    0 -0.23339232560E+02  0.33117610023E+02  0.15719400233E+02  0.43457972960E+02  0.00000000000E+00 0.  1.
         11    1    1    2    0    0  0.31156068190E+02 -0.35099957311E+02  0.56113348160E+02  0.73153369232E+02  0.00000000000E+00 0. -1.
</event>
<event>
 7    1  0.3056346E-009  0.1227071E+03  0.7561462E-02  0.1238697E+00
         -2   -1    0    0    0  501 -0.00000000000E+00  0.00000000000E+00  0.35544530016E+02  0.35544530016E+02  0.00000000000E+00 0. -1.
          2   -1    0    0  501    0  0.00000000000E+00 -0.00000000000E+00 -0.57429604018E+03  0.57429604018E+03  0.00000000000E+00 0.  1.
         25    2    1    2    0    0  0.84580939591E+02 -0.38895061423E+02 -0.25875465661E+03  0.30208579704E+03  0.12504037472E+03 0.  0.
          5    1    3    3  502    0  0.92857902495E+02 -0.51744876962E+02 -0.26460823630E+03  0.28519311609E+03  0.41800000000E+01 0. -1.
         -5    1    3    3    0  502 -0.82769629033E+01  0.12849815539E+02  0.58535796935E+01  0.16892680945E+02  0.41800000000E+01 0. -1.
        -11    1    1    2    0    0 -0.31127425480E+02  0.58485848302E+02 -0.10927691668E+03  0.12779262728E+03  0.00000000000E+00 0.  1.
         11    1    1    2    0    0 -0.53453514111E+02 -0.19590786879E+02 -0.17071993687E+03  0.17996214587E+03  0.00000000000E+00 0. -1.
</event>
<event>
 7    1  0.3056346E-009  0.8623062E+02  0.7561462E-02  0.1312245E+00
         -3   -1    0    0    0  501 -0.00000000000E+00  0.00000000000E+00  0.43930078026E+03  0.43930078026E+03  0.00000000000E+00 0.  1.
          3   -1    0    0  501    0  0.00000000000E+00 -0.00000000000E+00 -0.27598439006E+02  0.27598439006E+02  0.00000000000E+00 0. -1.
         25    2    1    2    0    0  0.64568233056E+01  0.32632535342E+01  0.18878751021E+03  0.22658642559E+03  0.12509334459E+03 0.  0.
          5    1    3    3  502    0 -0.13566081840E+02  0.46657130044E+02  0.16685751153E+03  0.17383851103E+03  0.41800000000E+01 0. -1.
         -5    1    3    3    0  502  0.20022905146E+02 -0.43393876510E+02  0.21929998676E+02  0.52747914565E+02  0.41800000000E+01 0. -1.
        -11    1    1    2    0    0 -0.33023102481E+02 -0.24979554896E+02  0.54539169391E+02  0.68476451851E+02  0.00000000000E+00 0. -1.
         11    1    1    2    0    0  0.26566279175E+02  0.21716301361E+02  0.16837566166E+03  0.17183634183E+03  0.00000000000E+00 0.  1.
</event>
<event>
 7    1  0.3056346E-009  0.1483951E+03  0.7561462E-02  0.1202459E+00
         -1   -1    0    0    0  501 -0.00000000000E+00  0.00000000000E+00  0.28410281415E+02  0.28410281415E+02  0.00000000000E+00 0.  1.
          1   -1    0    0  501    0  0.00000000000E+00 -0.00000000000E+00 -0.85612685376E+03  0.85612685376E+03  0.00000000000E+00 0. -1.
         25    2    1    2    0    0 -0.92319570045E+02 -0.54232995843E+02 -0.35469275664E+03  0.39104824628E+03  0.12509060097E+03 0.  0.
          5    1    3    3  502    0  0.88632527579E+01  0.27925584859E+02 -0.10834311036E+03  0.11231249931E+03  0.41800000000E+01 0. -1.
         -5    1    3    3    0  502 -0.10118282280E+03 -0.82158580702E+02 -0.24634964628E+03  0.27873574697E+03  0.41800000000E+01 0. -1.
        -11    1    1    2    0    0  0.10624002300E+03  0.32716918232E+02 -0.42193600329E+03  0.43633396624E+03  0.00000000000E+00 0. -1.
         11    1    1    2    0    0 -0.13920452959E+02  0.21516077610E+02 -0.51087812418E+02  0.57154922657E+02  0.00000000000E+00 0.  1.
</event>
<event>
 7    1  0.3056346E-009  0.1060314E+03  0.7561462E-02  0.1268101E+00
          2   -1    0    0  501    0  0.00000000000E+00  0.00000000000E+00  0.10416533085E+04  0.10416533085E+04  0.00000000000E+00 0. -1.
         -2   -1    0    0    0  501 -0.00000000000E+00 -0.00000000000E+00 -0.12966844031E+02  0.12966844031E+02  0.00000000000E+00 0.  1.
         25    2    1    2    0    0 -0.10872603720E+01 -0.26099654575E+02  0.73192158074E+03  0.74299318996E+03  0.12508919165E+03 0.  0.
          5    1    3    3  502    0 -0.39357741262E+02 -0.63016784717E+02  0.41783687995E+03  0.42441168410E+03  0.41800000000E+01 0. -1.
         -5    1    3    3    0  502  0.38270480890E+02  0.36917130142E+02  0.31408470079E+03  0.31858150586E+03  0.41800000000E+01 0. -1.
        -11    1    1    2    0    0  0.33094994512E+02 -0.11403305879E+02  0.57357223855E+02  0.67194978794E+02  0.00000000000E+00 0.  1.
         11    1    1    2    0    0 -0.32007734140E+02  0.37502960455E+02  0.23940765987E+03  0.24443198377E+03  0.00000000000E+00 0. -1.
</event>
<event>
 7    1  0.3056346E-009  0.1152262E+03  0.7561462E-02  0.1251187E+00
         -4   -1    0    0    0  501 -0.00000000000E+00  0.00000000000E+00  0.11667112203E+03  0.11667112203E+03  0.00000000000E+00 0.  1.
          4   -1    0    0  501    0  0.00000000000E+00 -0.00000000000E+00 -0.15880766295E+03  0.15880766295E+03  0.00000000000E+00 0. -1.
         25    2    1    2    0    0 -0.46902311194E+02  0.58612109380E+02  0.96717533239E+01  0.14620464683E+03  0.12508816803E+03 0.  0.
          5    1    3    3  502    0 -0.69186212887E+02  0.24529471952E+02  0.49862357274E+02  0.88837796690E+02  0.41800000000E+01 0. -1.
         -5    1    3    3    0  502  0.22283901692E+02  0.34082637428E+02 -0.40190603950E+02  0.57366850136E+02  0.41800000000E+01 0. -1.
        -11    1    1    2    0    0  0.14828575871E+02 -0.77409100082E+02 -0.22589145747E+02  0.81989785605E+02  0.00000000000E+00 0.  1.
         11    1    1    2    0    0  0.32073735323E+02  0.18796990702E+02 -0.29219148492E+02  0.47284352546E+02  0.00000000000E+00 0. -1.
</event>
<event>
 7    1  0.3056346E-009  0.1280175E+03  0.7561462E-02  0.1230427E+00
          1   -1    0    0  501    0  0.00000000000E+00  0.00000000000E+00  0.33489821096E+03  0.33489821096E+03  0.00000000000E+00 0. -1.
         -1   -1    0    0    0  501 -0.00000000000E+00 -0.00000000000E+00 -0.10598893847E+03  0.10598893847E+03  0.00000000000E+00 0.  1.
         25    2    1    2    0    0 -0.80106601982E+02  0.30270905562E+02  0.25997468299E+03  0.30094491738E+03  0.12509041570E+03 0.  0.
          5    1    3    3  502    0 -0.86719820946E+02 -0.23705310256E+02  0.11486204673E+03  0.14592131872E+03  0.41800000000E+01 0.  1.
         -5    1    3    3    0  502  0.66132189640E+01  0.53976215817E+02  0.14511263626E+03  0.15502359866E+03  0.41800000000E+01 0.  1.
        -11    1    1    2    0    0  0.91718063362E+02 -0.36022428535E+02 -0.54909579359E+02  0.11280461165E+03  0.00000000000E+00 0.  1.
         11    1    1    2    0    0 -0.11611461380E+02  0.57515229734E+01  0.23844168865E+02  0.27137620396E+02  0.00000000000E+00 0. -1.
</event>
<event>
 7    1  0.3056346E-009  0.1004174E+03  0.7561462E-02  0.1279421E+00
          1   -1    0    0  501    0  0.00000000000E+00  0.00000000000E+00  0.16518648730E+03  0.16518648730E+03  0.00000000000E+00 0. -1.
         -1   -1    0    0    0  501 -0.00000000000E+00 -0.00000000000E+00 -0.78999533770E+02  0.78999533770E+02  0.00000000000E+00 0.  1.
         25    2    1    2    0    0 -0.13609549546E+01 -0.30677677958E+02  0.63049416971E+02  0.14340925479E+03  0.12509201915E+03 0.  0.
          5    1    3    3  502    0 -0.44655321914E+01 -0.66387761195E+02  0.79495263133E+02  0.10375087987E+03  0.41800000000E+01 0. -1.
         -5    1    3    3    0  502  0.31045772367E+01  0.35710083238E+02 -0.16445846162E+02  0.39658374912E+02  0.41800000000E+01 0. -1.
        -11    1    1    2    0    0 -0.37630732539E+02 -0.12733634733E+02  0.99399945735E+01  0.40951446581E+02  0.00000000000E+00 0.  1.
         11    1    1    2    0    0  0.38991687494E+02  0.43411312691E+02  0.13197541987E+02  0.59825319704E+02  0.00000000000E+00 0. -1.
</event>
<event>
 7    1  0.3056346E-009  0.2103334E+03  0.7561462E-02  0.1141302E+00
          1   -1    0    0  501    0  0.00000000000E+00  0.00000000000E+00  0.14488655196E+04  0.14488655196E+04  0.00000000000E+00 0. -1.
         -1   -1    0    0    0  501 -0.00000000000E+00 -0.00000000000E+00 -0.35410375524E+02  0.35410375524E+02  0.00000000000E+00 0.  1.
         25    2    1    2    0    0 -0.18487893023E+03 -0.55331502886E+02  0.88159195425E+03  0.91109469823E+03  0.12508949311E+03 0.  0.
          5    1    3    3  502    0 -0.34506001189E+02  0.18599612655E+02  0.38424721557E+03  0.38626416451E+03  0.41800000000E+01 0. -1.
         -5    1    3    3    0  502 -0.15037292904E+03 -0.73931115541E+02  0.49734473868E+03  0.52483053372E+03  0.41800000000E+01 0. -1.
        -11    1    1    2    0    0  0.93378645727E+02 -0.19538155401E+02  0.24366031234E+03  0.26167089789E+03  0.00000000000E+00 0.  1.
         11    1    1    2    0    0  0.91500284500E+02  0.74869658287E+02  0.28820287751E+03  0.31151029903E+03  0.00000000000E+00 0. -1.
</event>
<event>
 7    1  0.3056346E-009  0.1034561E+03  0.7561462E-02  0.1273192E+00
         -1   -1    0    0    0  501 -0.00000000000E+00  0.00000000000E+00  0.18376221655E+02  0.18376221655E+02  0.00000000000E+00 0.  1.
          1   -1    0    0  501    0  0.00000000000E+00 -0.00000000000E+00 -0.89709449846E+03  0.89709449846E+03  0.00000000000E+00 0. -1.
         25    2    1    2    0    0  0.54834878264E+02 -0.23973355285E+01 -0.63818776890E+03  0.65264291331E+03  0.12508610165E+03 0.  0.
          5    1    3    3  502    0  0.41515914272E+02 -0.56274863062E+02 -0.47699329120E+03  0.48211046825E+03  0.41800000000E+01 0.  1.
         -5    1    3    3    0  502  0.13318963992E+02  0.53877527534E+02 -0.16119447770E+03  0.17053244506E+03  0.41800000000E+01 0.  1.
        -11    1    1    2    0    0  0.73978878286E+01 -0.14875807808E+02 -0.32682894274E+01  0.16932221297E+02  0.00000000000E+00 0.  1.
         11    1    1    2    0    0 -0.62232766093E+02  0.17273143337E+02 -0.23726221848E+03  0.24589558551E+03  0.00000000000E+00 0. -1.
</event>
<event>
 7    1  0.3056346E-009  0.1361060E+03  0.7561462E-02  0.1218667E+00
          1   -1    0    0  501    0  0.00000000000E+00  0.00000000000E+00  0.70614257886E+03  0.70614257886E+03  0.00000000000E+00 0. -1.
         -1   -1    0    0    0  501 -0.00000000000E+00 -0.00000000000E+00 -0.50975195851E+02  0.50975195851E+02  0.00000000000E+00 0.  1.
         25    2    1    2    0    0  0.12997977095E+02 -0.11858797783E+03  0.14368155527E+03  0.22477692475E+03  0.12509284823E+03 0.  0.
          5    1    3    3  502    0 -0.12598682561E+02 -0.45214927453E+02 -0.13811824921E+02  0.49105553398E+02  0.41800000000E+01 0. -1.
         -5    1    3    3    0  502  0.25596659656E+02 -0.73373050376E+02  0.15749338019E+03  0.17567137135E+03  0.41800000000E+01 0. -1.
        -11    1    1    2    0    0  0.30522058969E+02  0.90404648765E+02  0.31555917964E+03  0.32966982339E+03  0.00000000000E+00 0. -1.
         11    1    1    2    0    0 -0.43520036065E+02  0.28183329064E+02  0.19592664810E+03  0.20267102657E+03  0.00000000000E+00 0.  1.
</event>
<event>
 7    1  0.3056346E-009  0.1220090E+03  0.7561462E-02  0.1239819E+00
          2   -1    0    0  501    0  0.00000000000E+00  0.00000000000E+00  0.45945838023E+03  0.45945838023E+03  0.00000000000E+00 0. -1.
         -2   -1    0    0    0  501 -0.00000000000E+00 -0.00000000000E+00 -0.46576591086E+02  0.46576591086E+02  0.00000000000E+00 0.  1.
         25    2    1    2    0    0 -0.92186027378E+02  0.29615615593E+02  0.25219804746E+03  0.29770165647E+03  0.12508826002E+03 0.  0.
          5    1    3    3  502    0 -0.29982754324E+02  0.64346395242E+02  0.61249898134E+02  0.93853324709E+02  0.41800000000E+01 0. -1.
         -5    1    3    3    0  502 -0.62203273055E+02 -0.34730779649E+02  0.19094814932E+03  0.20384833177E+03  0.41800000000E+01 0. -1.
        -11    1    1    2    0    0  0.62823453930E+02 -0.46423091861E+01  0.15752940840E+03  0.16965804405E+03  0.00000000000E+00 0. -1.
         11    1    1    2    0    0  0.29362573448E+02 -0.24973306407E+02  0.31543332813E+01  0.38675270792E+02  0.00000000000E+00 0.  1.
</event>
<event>
 7    1  0.3056346E-009  0.1448408E+03  0.7561462E-02  0.1206960E+00
         -1   -1    0    0    0  501 -0.00000000000E+00  0.00000000000E+00  0.12565582811E+04  0.12565582811E+04  0.00000000000E+00 0.  1.
          1   -1    0    0  501    0  0.00000000000E+00 -0.00000000000E+00 -0.24883152886E+02  0.24883152886E+02  0.00000000000E+00 0. -1.
         25    2    1    2    0    0 -0.26202007691E+00  0.12555449470E+03  0.43256832596E+03  0.46746896408E+03  0.12509147035E+03 0.  0.
          5    1    3    3  502    0 -0.23698720413E+02  0.88835424124E+02  0.11690708774E+03  0.14878878147E+03  0.41800000000E+01 0.  1.
         -5    1    3    3    0  502  0.23436700336E+02  0.36719070571E+02  0.31566123823E+03  0.31868018261E+03  0.41800000000E+01 0.  1.
        -11    1    1    2    0    0 -0.34671445349E+02 -0.14707498981E+02  0.15893090116E+03  0.16333233297E+03  0.00000000000E+00 0. -1.
         11    1    1    2    0    0  0.34933465426E+02 -0.11084699571E+03  0.64017590112E+03  0.65064013697E+03  0.00000000000E+00 0.  1.
</event>
<event>
 7    1  0.3056346E-009  0.1446156E+03  0.7561462E-02  0.1207250E+00
         -1   -1    0    0    0  501 -0.00000000000E+00  0.00000000000E+00  0.41065238497E+02  0.41065238497E+02  0.00000000000E+00 0.  1.
          1   -1    0    0  501    0  0.00000000000E+00 -0.00000000000E+00 -0.72295286914E+03  0.72295286914E+03  0.00000000000E+00 0. -1.
         25    2    1    2    0    0 -0.12153372927E+03 -0.21085248333E+02 -0.25201250741E+03  0.30720140578E+03  0.12508942709E+03 0.  0.
          5    1    3    3  502    0 -0.13531808417E+03 -0.31807372375E+02 -0.15376107256E+03  0.20732253297E+03  0.41800000000E+01 0. -1.
         -5    1    3    3    0  502  0.13784354894E+02  0.10722124042E+02 -0.98251434852E+02  0.99878872812E+02  0.41800000000E+01 0. -1.
        -11    1    1    2    0    0  0.22614047982E+02 -0.14745288871E+02 -0.19849912115E+02  0.33508770807E+02  0.00000000000E+00 0.  1.
         11    1    1    2    0    0  0.98919681289E+02  0.35830537204E+02 -0.41002521111E+03  0.42330793105E+03  0.00000000000E+00 0. -1.
</event>
<event>
 7    1  0.3056346E-009  0.1519471E+03  0.7561462E-02  0.1198101E+00
         -1   -1    0    0    0  501 -0.00000000000E+00  0.00000000000E+00  0.92176664808E+03  0.92176664808E+03  0.00000000000E+00 0.  1.
          1   -1    0    0  501    0  0.00000000000E+00 -0.00000000000E+00 -0.31033636969E+02  0.31033636969E+02  0.00000000000E+00 0. -1.
         25    2    1    2    0    0 -0.11132011591E+03  0.30756054746E+02  0.63492089147E+03  0.65735061306E+03  0.12508871635E+03 0.  0.
          5    1    3    3  502    0 -0.10669051220E+03  0.71497056213E+02  0.45734428178E+03  0.47505363794E+03  0.41800000000E+01 0.  1.
         -5    1    3    3    0  502 -0.46296037132E+01 -0.40741001467E+02  0.17757660969E+03  0.18229697513E+03  0.41800000000E+01 0.  1.
        -11    1    1    2    0    0  0.63678527151E+02 -0.51809606749E+02  0.90782412020E+02  0.12239541047E+03  0.00000000000E+00 0. -1.
         11    1    1    2    0    0  0.47641588764E+02  0.21053552003E+02  0.16502970762E+03  0.17305426152E+03  0.00000000000E+00 0.  1.
</event>
<event>
 7    1  0.3056346E-009  0.1342198E+03  0.7561462E-02  0.1221325E+00
          1   -1    0    0  501    0  0.00000000000E+00  0.00000000000E+00  0.10121553230E+03  0.10121553230E+03  0.00000000000E+00 0. -1.
         -1   -1    0    0    0  501 -0.00000000000E+00 -0.00000000000E+00 -0.23247204888E+03  0.23247204888E+03  0.00000000000E+00 0.  1.
         25    2    1    2    0    0  0.79439902801E+02  0.67563154961E+02 -0.37897404256E+02  0.16721921893E+03  0.12510226163E+03 0.  0.
          5    1    3    3  502    0  0.34060748105E+02 -0.35925968770E+02 -0.87743561373E+01  0.50450684030E+02  0.41800000000E+01 0. -1.
         -5    1    3    3    0  502  0.45379154696E+02  0.10348912373E+03 -0.29123048119E+02  0.11676853490E+03  0.41800000000E+01 0. -1.
        -11    1    1    2    0    0 -0.38252723590E+02 -0.21472746245E+02 -0.94995245782E+02  0.10463482410E+03  0.00000000000E+00 0.  1.
         11    1    1    2    0    0 -0.41187179210E+02 -0.46090408716E+02  0.16361334607E+01  0.61833538146E+02  0.00000000000E+00 0. -1.
</event>
<event>
 7    1  0.3056346E-009  0.1343213E+03  0.7561462E-02  0.1221181E+00
         -3   -1    0    0    0  501 -0.00000000000E+00  0.00000000000E+00  0.21069989794E+02  0.21069989794E+02  0.00000000000E+00 0.  1.
          3   -1    0    0  501    0  0.00000000000E+00 -0.00000000000E+00 -0.10621655088E+04  0.10621655088E+04  0.00000000000E+00 0. -1.
         25    2    1    2    0    0 -0.99614400914E+02  0.11681899294E+02 -0.48552781473E+03  0.51131632465E+03  0.12509048462E+03 0.  0.
          5    1    3    3  502    0  0.14256566848E+02  0.17590292669E+02 -0.23386364611E+03  0.23499435199E+03  0.41800000000E+01 0.  1.
         -5    1    3    3    0  502 -0.11387096776E+03 -0.59083933750E+01 -0.25166416862E+03  0.27632197267E+03  0.41800000000E+01 0.  1.
        -11    1    1    2    0    0  0.81725646868E+02  0.29285530108E+02 -0.29365071717E+03  0.30621474054E+03  0.00000000000E+00 0. -1.
         11    1    1    2    0    0  0.17888754046E+02 -0.40967429402E+02 -0.26191698708E+03  0.26570443337E+03  0.00000000000E+00 0.  1.
</event>
<event>
 7    1  0.3056346E-009  0.8885591E+02  0.7561462E-02  0.1305646E+00
          1   -1    0    0  501    0  0.00000000000E+00  0.00000000000E+00  0.84166940627E+02  0.84166940627E+02  0.00000000000E+00 0. -1.
         -1   -1    0    0    0  501 -0.00000000000E+00 -0.00000000000E+00 -0.15365469278E+03  0.15365469278E+03  0.00000000000E+00 0.  1.
         25    2    1    2    0    0  0.35460631518E+01 -0.25304400926E+02 -0.13453563596E+02  0.12838329523E+03  0.12509350443E+03 0.  0.
          5    1    3    3  502    0 -0.36988343122E+02 -0.62341098204E+02 -0.72884183161E+01  0.72973580792E+02  0.41800000000E+01 0. -1.
         -5    1    3    3    0  502  0.40534406274E+02  0.37036697278E+02 -0.61651452804E+01  0.55409714433E+02  0.41800000000E+01 0. -1.
        -11    1    1    2    0    0 -0.13179249866E+02 -0.79665784778E+01 -0.70308172865E+02  0.71974982954E+02  0.00000000000E+00 0.  1.
         11    1    1    2    0    0  0.96331867138E+01  0.33270979403E+02  0.14273984309E+02  0.37463355226E+02  0.00000000000E+00 0. -1.
</event>
<event>
 7    1  0.3056346E-009  0.1050497E+03  0.7561462E-02  0.1270022E+00
         -2   -1    0    0    0  501 -0.00000000000E+00  0.00000000000E+00  0.48983090627E+03  0.48983090627E+03  0.00000000000E+00 0.  1.
          2   -1    0    0  501    0  0.00000000000E+00 -0.00000000000E+00 -0.37684540775E+02  0.37684540775E+02  0.00000000000E+00 0. -1.
         25    2    1    2    0    0 -0.69394685209E+02 -0.37527874963E+02  0.20735021545E+03  0.25468455380E+03  0.12508455686E+03 0.  0.
          5    1    3    3  502    0  0.23357563394E+02 -0.22476175061E+02  0.71021791104E+01  0.33446488025E+02  0.41800000000E+01 0. -1.
         -5    1    3    3    0  502 -0.92752248604E+02 -0.15051699902E+02  0.20024803634E+03  0.22123806578E+03  0.41800000000E+01 0. -1.
        -11    1    1    2    0    0  0.37165192778E+02  0.34962415664E+02  0.23283068414E+03  0.23835634991E+03  0.00000000000E+00 0.  1.
         11    1    1    2    0    0  0.32229492431E+02  0.25654592986E+01  0.11965465900E+02  0.34474543332E+02  0.00000000000E+00 0. -1.
</event>
<event>
 7    1  0.3056346E-009  0.9310094E+02  0.7561462E-02  0.1295511E+00
          1   -1    0    0  501    0  0.00000000000E+00  0.00000000000E+00  0.17699322255E+04  0.17699322255E+04  0.00000000000E+00 0. -1.
         -1   -1    0    0    0  501 -0.00000000000E+00 -0.00000000000E+00 -0.93111141687E+01  0.93111141687E+01  0.00000000000E+00 0.  1.
         25    2    1    2    0    0 -0.12874095140E+02 -0.33725907918E+02  0.13660934840E+04  0.13722839520E+04  0.12509459875E+03 0.  0.
          5    1    3    3  502    0  0.84910004350E+01 -0.59754763221E+02  0.12465634271E+04  0.12480306803E+04  0.41800000000E+01 0.  1.
         -5    1    3    3    0  502 -0.21365095575E+02  0.26028855302E+02  0.11953005692E+03  0.12425327168E+03  0.41800000000E+01 0.  1.
        -11    1    1    2    0    0 -0.18109816847E+02 -0.21704299288E+02  0.58346459748E+02  0.64833258741E+02  0.00000000000E+00 0.  1.
         11    1    1    2    0    0  0.30983911987E+02  0.55430207206E+02  0.33618116757E+03  0.34212612894E+03  0.00000000000E+00 0. -1.
</event>
<event>
 7    1  0.3056346E-009  0.1255722E+03  0.7561462E-02  0.1234178E+00
          1   -1    0    0  501    0  0.00000000000E+00  0.00000000000E+00  0.39748030039E+03  0.39748030039E+03  0.00000000000E+00 0. -1.
         -1   -1    0    0    0  501 -0.00000000000E+00 -0.00000000000E+00 -0.43162178569E+02  0.43162178569E+02  0.00000000000E+00 0.  1.
         25    2    1    2    0    0 -0.67000365973E+02  0.24839872982E+02  0.16429623598E+03  0.21851144020E+03  0.12509167841E+03 0.  0.
          5    1    3    3  502    0 -0.51403986351E+02 -0.47352490586E+02  0.83328988129E+02  0.10883850808E+03  0.41800000000E+01 0. -1.
         -5    1    3    3    0  502 -0.15596379622E+02  0.72192363568E+02  0.80967247853E+02  0.10967293212E+03  0.41800000000E+01 0. -1.
        -11    1    1    2    0    0  0.80154407930E+02 -0.37859317311E+02  0.11693576984E+03  0.14673796811E+03  0.00000000000E+00 0.  1.
         11    1    1    2    0    0 -0.13154041957E+02  0.13019444329E+02  0.73086115997E+02  0.75393070649E+02  0.00000000000E+00 0. -1.
</event>
<event>
 7    1  0.3056346E-009  0.1600962E+03  0.7561462E-02  0.1188588E+00
         -1   -1    0    0    0  501 -0.00000000000E+00  0.00000000000E+00  0.42967477360E+02  0.42967477360E+02  0.00000000000E+00 0.  1.
          1   -1    0    0  501    0  0.00000000000E+00 -0.00000000000E+00 -0.82967011851E+03  0.82967011851E+03  0.00000000000E+00 0. -1.
         25    2    1    2    0    0  0.51802590931E+02  0.13193482386E+03 -0.27308904093E+03  0.33213865530E+03  0.12509258930E+03 0.  0.
          5    1    3    3  502    0  0.68500000958E+02  0.12523621634E+03 -0.14789257953E+03  0.20558708008E+03  0.41800000000E+01 0.  1.
         -5    1    3    3    0  502 -0.16697410027E+02  0.66986075107E+01 -0.12519646140E+03  0.12655157522E+03  0.41800000000E+01 0.  1.
        -11    1    1    2    0    0 -0.70188833469E+02 -0.10358299785E+03 -0.31341197614E+03  0.33746551909E+03  0.00000000000E+00 0.  1.
         11    1    1    2    0    0  0.18386242538E+02 -0.28351826004E+02 -0.20020162408E+03  0.20303342148E+03  0.00000000000E+00 0. -1.
</event>
<event>
 7    1  0.3203830E-009  0.1329360E+03  0.7561462E-02  0.1223163E+00
         -1   -1    0    0    0  501 -0.00000000000E+00  0.00000000000E+00  0.37254374627E+02  0.37254374627E+02  0.00000000000E+00 0.  1.
          1   -1    0    0  501    0  0.00000000000E+00 -0.00000000000E+00 -0.57675504478E+03  0.57675504478E+03  0.00000000000E+00 0. -1.
         25    2    1    2    0    0 -0.40245484552E+01 -0.97830218970E+02 -0.28037035046E+03  0.32224536990E+03  0.12509035243E+03 0.  0.
          5    1    3    3  502    0 -0.15964649055E+02 -0.11924533242E+03 -0.16513298260E+03  0.20435433361E+03  0.41800000000E+01 0. -1.
         -5    1    3    3    0  502  0.11940100600E+02  0.21415113446E+02 -0.11523736786E+03  0.11789103629E+03  0.41800000000E+01 0. -1.
        -11    1    1    2    0    0  0.36523084993E+02  0.39164292186E+02 -0.18120555773E+03  0.18895298799E+03  0.00000000000E+00 0.  1.
         11    1    1    2    0    0 -0.32498536538E+02  0.58665926784E+02 -0.77924761965E+02  0.10281106152E+03  0.00000000000E+00 0. -1.
</event>
<event>
 7    1  0.3056346E-009  0.2088041E+03  0.7561462E-02  0.1142517E+00
         -2   -1    0    0    0  501 -0.00000000000E+00  0.00000000000E+00  0.13320998085E+03  0.13320998085E+03  0.00000000000E+00 0. -1.
          2   -1    0    0  501    0  0.00000000000E+00 -0.00000000000E+00 -0.43863855349E+03  0.43863855349E+03  0.00000000000E+00 0.  1.
         25    2    1    2    0    0 -0.17974396450E+03  0.60811998744E+02 -0.28740254952E+03  0.36640648057E+03  0.12508993391E+03 0.  0.
          5    1    3    3  502    0  0.37432921642E+01  0.25433338000E+02 -0.93597463562E+02  0.97153612919E+02  0.41800000000E+01 0.  1.
         -5    1    3    3    0  502 -0.18348725666E+03  0.35378660744E+02 -0.19380508596E+03  0.26925286765E+03  0.41800000000E+01 0.  1.
        -11    1    1    2    0    0  0.75746391622E+02 -0.66079576148E+02 -0.88044354740E+01  0.10090363874E+03  0.00000000000E+00 0.  1.
         11    1    1    2    0    0  0.10399757288E+03  0.52675774046E+01 -0.92215876443E+01  0.10453841502E+03  0.00000000000E+00 0. -1.
</event>
<event>
 6    1  0.3056346E-009  0.1456599E+03  0.7561462E-02  0.1205910E+00
         -2   -1    0    0    0  501 -0.00000000000E+00  0.00000000000E+00  0.13508259842E+02  0.13508259842E+02  0.00000000000E+00 0. -1.
          2   -1    0    0  501    0  0.00000000000E+00 -0.00000000000E+00 -0.21297201375E+04  0.21297201375E+04  0.00000000000E+00 0.  1.
          5    1    1    2  502    0 -0.68641477667E+02  0.39702275820E+02 -0.10662515950E+04  0.10692043113E+04  0.41800000000E+01 0.  1.
         -5    1    1    2    0  502 -0.54804659956E+02  0.82979633457E+01 -0.13823210914E+03  0.14898991693E+03  0.41800000000E+01 0.  1.
        -11    1    1    2    0    0  0.72244007283E+02 -0.70003663857E+02 -0.58272161617E+03  0.59134101117E+03  0.00000000000E+00 0. -1.
         11    1    1    2    0    0  0.51202130340E+02  0.22003424691E+02 -0.32900655741E+03  0.33369315796E+03  0.00000000000E+00 0.  1.
</event>
<event>
 7    1  0.3056346E-009  0.1078512E+03  0.7561462E-02  0.1264602E+00
          2   -1    0    0  501    0  0.00000000000E+00  0.00000000000E+00  0.95878528211E+03  0.95878528211E+03  0.00000000000E+00 0. -1.
         -2   -1    0    0    0  501 -0.00000000000E+00 -0.00000000000E+00 -0.12676019062E+02  0.12676019062E+02  0.00000000000E+00 0.  1.
         25    2    1    2    0    0 -0.11184530955E+02 -0.74176997024E+00  0.47068210562E+03  0.48714749413E+03  0.12508154350E+03 0.  0.
          5    1    3    3  502    0 -0.36943655551E+02 -0.53136128193E+02  0.20166530143E+03  0.21183637082E+03  0.41800000000E+01 0.  1.
         -5    1    3    3    0  502  0.25759124597E+02  0.52394358223E+02  0.26901680420E+03  0.27531112330E+03  0.41800000000E+01 0.  1.
        -11    1    1    2    0    0 -0.40418993718E+02  0.39648746627E+01  0.21578144359E+03  0.21957014069E+03  0.00000000000E+00 0.  1.
         11    1    1    2    0    0  0.51603524673E+02 -0.32231046924E+01  0.25964571384E+03  0.26474366636E+03  0.00000000000E+00 0. -1.
</event>
<event>
 7    1  0.3056346E-009  0.1278986E+03  0.7561462E-02  0.1230608E+00
         -2   -1    0    0    0  501 -0.00000000000E+00  0.00000000000E+00  0.21527840122E+03  0.21527840122E+03  0.00000000000E+00 0.  1.
          2   -1    0    0  501    0  0.00000000000E+00 -0.00000000000E+00 -0.12110173771E+03  0.12110173771E+03  0.00000000000E+00 0. -1.
         25    2    1    2    0    0  0.31520720648E+02  0.67680994425E+02  0.14729193269E+03  0.20716216641E+03  0.12508787679E+03 0.  0.
          5    1    3    3  502    0 -0.17165693048E+02  0.87777606832E+02  0.70562972783E+02  0.11400076669E+03  0.41800000000E+01 0. -1.
         -5    1    3    3    0  502  0.48686413696E+02 -0.20096612407E+02  0.76728959903E+02  0.93161399713E+02  0.41800000000E+01 0. -1.
        -11    1    1    2    0    0 -0.28642169386E+02  0.13867926888E+02  0.56987820567E-01  0.31822892875E+02  0.00000000000E+00 0.  1.
         11    1    1    2    0    0 -0.28785512621E+01 -0.81548921312E+02 -0.53172257001E+02  0.97395079646E+02  0.00000000000E+00 0. -1.
</event>
<event>
 7    1  0.3056346E-009  0.1055052E+03  0.7561462E-02  0.1269127E+00
         -1   -1    0    0    0  501 -0.00000000000E+00  0.00000000000E+00  0.28944524096E+02  0.28944524096E+02  0.00000000000E+00 0.  1.
          1   -1    0    0  501    0  0.00000000000E+00 -0.00000000000E+00 -0.46145237748E+03  0.46145237748E+03  0.00000000000E+00 0. -1.
         25    2    1    2    0    0 -0.26075603956E+02  0.23360867961E+02 -0.30232906401E+03  0.32905365414E+03  0.12509107518E+03 0.  0.
          5    1    3    3  502    0 -0.44974764423E+02 -0.41585882745E+02 -0.12637923721E+03  0.14050373332E+03  0.41800000000E+01 0. -1.
         -5    1    3    3    0  502  0.18899160467E+02  0.64946750706E+02 -0.17594982680E+03  0.18854992083E+03  0.41800000000E+01 0. -1.
        -11    1    1    2    0    0 -0.23669769235E+02 -0.21636306266E+02 -0.95335326471E+02  0.10058435364E+03  0.00000000000E+00 0.  1.
         11    1    1    2    0    0  0.49745373191E+02 -0.17245616948E+01 -0.34843462905E+02  0.60758893787E+02  0.00000000000E+00 0. -1.
</event>
<event>
 7    1  0.3056346E-009  0.1967112E+03  0.7561462E-02  0.1152544E+00
         -2   -1    0    0    0  501 -0.00000000000E+00  0.00000000000E+00  0.13444483463E+03  0.13444483463E+03  0.00000000000E+00 0.  1.
          2   -1    0    0  501    0  0.00000000000E+00 -0.00000000000E+00 -0.38671513302E+03  0.38671513302E+03  0.00000000000E+00 0. -1.
         25    2    1    2    0    0  0.14077008959E+03  0.13213195581E+03 -0.19112405598E+03  0.29908417972E+03  0.12509144621E+03 0.  0.
          5    1    3    3  502    0  0.86525798584E+02  0.11217340512E+03 -0.56606671436E+02  0.15261511815E+03  0.41800000000E+01 0.  1.
         -5    1    3    3    0  502  0.54244291003E+02  0.19958550690E+02 -0.13451738454E+03  0.14646906157E+03  0.41800000000E+01 0.  1.
        -11    1    1    2    0    0 -0.67637097268E+02 -0.74564213515E+02  0.15052369074E+02  0.10178984566E+03  0.00000000000E+00 0.  1.
         11    1    1    2    0    0 -0.73132992319E+02 -0.57567742296E+02 -0.76198611483E+02  0.12028594228E+03  0.00000000000E+00 0. -1.
</event>
<event>
 7    1  0.3056346E-009  0.1444954E+03  0.7561462E-02  0.1207405E+00
          3   -1    0    0  501    0  0.00000000000E+00  0.00000000000E+00  0.41938117895E+02  0.41938117895E+02  0.00000000000E+00 0. -1.
         -3   -1    0    0    0  501 -0.00000000000E+00 -0.00000000000E+00 -0.14041847388E+04  0.14041847388E+04  0.00000000000E+00 0.  1.
         25    2    1    2    0    0  0.28365519525E+02 -0.97012047874E+02 -0.12736507978E+04  0.12837641967E+04  0.12509283650E+03 0.  0.
          5    1    3    3  502    0  0.50043062818E+02 -0.11513179403E+03 -0.85947828318E+03  0.86860809908E+03  0.41800000000E+01 0.  1.
         -5    1    3    3    0  502 -0.21677543293E+02  0.18119746157E+02 -0.41417251466E+03  0.41515609761E+03  0.41800000000E+01 0.  1.
        -11    1    1    2    0    0 -0.10567876556E+02  0.11142275174E+03 -0.81264220039E+02  0.13831335105E+03  0.00000000000E+00 0. -1.
         11    1    1    2    0    0 -0.17797642969E+02 -0.14410703864E+02 -0.73316030677E+01  0.24045308995E+02  0.00000000000E+00 0.  1.
</event>
<event>
 7    1  0.3056346E-009  0.1394245E+03  0.7561462E-02  0.1214105E+00
         -1   -1    0    0    0  501 -0.00000000000E+00  0.00000000000E+00  0.19631562879E+02  0.19631562879E+02  0.00000000000E+00 0.  1.
          1   -1    0    0  501    0  0.00000000000E+00 -0.00000000000E+00 -0.13892669007E+04  0.13892669007E+04  0.00000000000E+00 0. -1.
         25    2    1    2    0    0 -0.11289715364E+03  0.14507801774E+02 -0.94106867218E+03  0.95614539723E+03  0.12509009266E+03 0.  0.
          5    1    3    3  502    0 -0.12506291066E+03  0.43773280924E+02 -0.83175121358E+03  0.84224959806E+03  0.41800000000E+01 0. -1.
         -5    1    3    3    0  502  0.12165757026E+02 -0.29265479150E+02 -0.10931745860E+03  0.11389579917E+03  0.41800000000E+01 0. -1.
        -11    1    1    2    0    0  0.19104272818E+02 -0.64963146457E+01 -0.78792398908E+01  0.21662358254E+02  0.00000000000E+00 0.  1.
         11    1    1    2    0    0  0.93792880819E+02 -0.80114871282E+01 -0.42068742579E+03  0.43109070813E+03  0.00000000000E+00 0. -1.
</event>
<event>
 7    1  0.3056346E-009  0.5268796E+02  0.7561462E-02  0.1431360E+00
          2   -1    0    0  501    0  0.00000000000E+00  0.00000000000E+00  0.18467956780E+03  0.18467956780E+03  0.00000000000E+00 0. -1.
         -2   -1    0    0    0  501 -0.00000000000E+00 -0.00000000000E+00 -0.82964366768E+02  0.82964366768E+02  0.00000000000E+00 0.  1.
         25    2    1    2    0    0  0.28414297824E+02  0.58429126832E+01  0.63750525343E+02  0.14336057109E+03  0.12508641778E+03 0.  0.
          5    1    3    3  502    0  0.17041271859E+02 -0.23268788902E+02 -0.31567007250E+02  0.42962656229E+02  0.41800000000E+01 0. -1.
         -5    1    3    3    0  502  0.11373025965E+02  0.29111701585E+02  0.95317532593E+02  0.10039791486E+03  0.41800000000E+01 0. -1.
        -11    1    1    2    0    0 -0.13928821360E+02 -0.20048146015E+02 -0.38271159104E+02  0.45394072766E+02  0.00000000000E+00 0.  1.
         11    1    1    2    0    0 -0.14485476464E+02  0.14205233331E+02  0.76235834791E+02  0.78889290710E+02  0.00000000000E+00 0. -1.
</event>
<event>
 7    1  0.3056346E-009  0.1083157E+03  0.7561462E-02  0.1263721E+00
         -1   -1    0    0    0  501 -0.00000000000E+00  0.00000000000E+00  0.76303176073E+02  0.76303176073E+02  0.00000000000E+00 0.  1.
          1   -1    0    0  501    0  0.00000000000E+00 -0.00000000000E+00 -0.18778104400E+03  0.18778104400E+03  0.00000000000E+00 0. -1.
         25    2    1    2    0    0  0.42810992225E+02  0.28828589180E+02 -0.74698985441E+02  0.15456591538E+03  0.12508723021E+03 0.  0.
          5    1    3    3  502    0  0.80726803590E+02  0.32795941801E+02 -0.76705829606E+02  0.11616215955E+03  0.41800000000E+01 0. -1.
         -5    1    3    3    0  502 -0.37915811365E+02 -0.39673526219E+01  0.20068441646E+01  0.38403755829E+02  0.41800000000E+01 0. -1.
        -11    1    1    2    0    0 -0.12415015355E+02  0.25742659240E+02  0.11258658751E+02  0.30717657916E+02  0.00000000000E+00 0.  1.
         11    1    1    2    0    0 -0.30395976871E+02 -0.54571248419E+02 -0.48037541236E+02  0.78800646773E+02  0.00000000000E+00 0. -1.
</event>
<event>
 7    1  0.3056346E-009  0.1013713E+03  0.7561462E-02  0.1277438E+00
         -1   -1    0    0    0  501 -0.00000000000E+00  0.00000000000E+00  0.37840903666E+02  0.37840903666E+02  0.00000000000E+00 0.  1.
          1   -1    0    0  501    0  0.00000000000E+00 -0.00000000000E+00 -0.37133742402E+03  0.37133742402E+03  0.00000000000E+00 0. -1.
         25    2    1    2    0    0  0.41681092814E+02 -0.25611740240E+01 -0.22669182040E+03  0.26226317279E+03  0.12509563245E+03 0.  0.
          5    1    3    3  502    0  0.19138541100E+02  0.52155701887E+02 -0.46540047474E+02  0.72594417235E+02  0.41800000000E+01 0. -1.
         -5    1    3    3    0  502  0.22542551714E+02 -0.54716875911E+02 -0.18015177292E+03  0.18966875556E+03  0.41800000000E+01 0. -1.
        -11    1    1    2    0    0 -0.27891867455E+01 -0.34125024153E+02 -0.80187494989E+02  0.87191348130E+02  0.00000000000E+00 0. -1.
         11    1    1    2    0    0 -0.38891906069E+02  0.36686198177E+02 -0.26617204972E+02  0.59723806768E+02  0.00000000000E+00 0.  1.
</event>
<event>
 7    1  0.3056346E-009  0.1658963E+03  0.7561462E-02  0.1182196E+00
          2   -1    0    0  501    0  0.00000000000E+00  0.00000000000E+00  0.11827313814E+03  0.11827313814E+03  0.00000000000E+00 0. -1.
         -2   -1    0    0    0  501 -0.00000000000E+00 -0.00000000000E+00 -0.63915213852E+03  0.63915213852E+03  0.00000000000E+00 0.  1.
         25    2    1    2    0    0 -0.14202293764E+03 -0.55912468513E+02 -0.54292102775E+03  0.57767451278E+03  0.12509149208E+03 0.  0.
          5    1    3    3  502    0 -0.12019537432E+02 -0.38479593083E+01 -0.27509969521E+03  0.27542075226E+03  0.41800000000E+01 0.  1.
         -5    1    3    3    0  502 -0.13000340021E+03 -0.52064509205E+02 -0.26782133254E+03  0.30225376052E+03  0.41800000000E+01 0.  1.
        -11    1    1    2    0    0  0.55500768185E+02 -0.24136204357E+02  0.74006075024E+01  0.60972621899E+02  0.00000000000E+00 0.  1.
         11    1    1    2    0    0  0.86522169456E+02  0.80048672870E+02  0.14641419878E+02  0.11877814198E+03  0.00000000000E+00 0. -1.
</event>
<event>
 7    1  0.3056346E-009  0.1747463E+03  0.7561462E-02  0.1172987E+00
          3   -1    0    0  501    0  0.00000000000E+00  0.00000000000E+00  0.26774738532E+03  0.26774738532E+03  0.00000000000E+00 0. -1.
         -3   -1    0    0    0  501 -0.00000000000E+00 -0.00000000000E+00 -0.12519078023E+03  0.12519078023E+03  0.00000000000E+00 0.  1.
         25    2    1    2    0    0 -0.14055621021E+03 -0.58852134986E+02  0.46197258045E+02  0.20249324660E+03  0.12509878596E+03 0.  0.
          5    1    3    3  502    0 -0.16376657642E+03 -0.52175180374E+02  0.46025575564E+02  0.17798192887E+03  0.41800000000E+01 0.  1.
         -5    1    3    3    0  502  0.23210366205E+02 -0.66769546123E+01  0.17168248009E+00  0.24511317736E+02  0.41800000000E+01 0.  1.
        -11    1    1    2    0    0  0.60945141158E+02  0.33262796241E+02  0.78752334409E+02  0.10498882807E+03  0.00000000000E+00 0. -1.
         11    1    1    2    0    0  0.79611069051E+02  0.25589338745E+02  0.17607012640E+02  0.85456090872E+02  0.00000000000E+00 0.  1.
</event>
<event>
 7    1  0.3056346E-009  0.1072342E+03  0.7561462E-02  0.1265779E+00
          1   -1    0    0  501    0  0.00000000000E+00  0.00000000000E+00  0.12604285025E+03  0.12604285025E+03  0.00000000000E+00 0. -1.
         -1   -1    0    0    0  501 -0.00000000000E+00 -0.00000000000E+00 -0.10998925418E+03  0.10998925418E+03  0.00000000000E+00 0.  1.
         25    2    1    2    0    0  0.48640852964E+01 -0.41046942439E+02  0.25216563447E+02  0.13413237998E+03  0.12508840665E+03 0.  0.
          5    1    3    3  502    0  0.18589382017E+02  0.41739989520E+02 -0.16723949985E+01  0.45913627105E+02  0.41800000000E+01 0. -1.
         -5    1    3    3    0  502 -0.13725296721E+02 -0.82786931959E+02  0.26888958446E+02  0.88218752880E+02  0.41800000000E+01 0. -1.
        -11    1    1    2    0    0  0.13724993174E+02 -0.18014049206E+02 -0.29079688030E+02  0.36857966063E+02  0.00000000000E+00 0.  1.
         11    1    1    2    0    0 -0.18589078470E+02  0.59060991645E+02  0.19916720647E+02  0.65041758385E+02  0.00000000000E+00 0. -1.
</event>
<event>
 7    1  0.3056346E-009  0.1267797E+03  0.7561462E-02  0.1232314E+00
         -1   -1    0    0    0  501 -0.00000000000E+00  0.00000000000E+00  0.33774248550E+02  0.33774248550E+02  0.00000000000E+00 0.  1.
          1   -1    0    0  501    0  0.00000000000E+00 -0.00000000000E+00 -0.67681873650E+03  0.67681873650E+03  0.00000000000E+00 0. -1.
         25    2    1    2    0    0 -0.10432779735E+03  0.13494876256E+02 -0.35144734325E+03  0.38759453544E+03  0.12509151789E+03 0.  0.
          5    1    3    3  502    0 -0.10820897801E+03 -0.19639858040E+02 -0.32962187663E+03  0.34750965584E+03  0.41800000000E+01 0.  1.
         -5    1    3    3    0  502  0.38811806642E+01  0.33134734296E+02 -0.21825466613E+02  0.40084879606E+02  0.41800000000E+01 0.  1.
        -11    1    1    2    0    0  0.29253551208E+02 -0.18545986806E+02 -0.20659075662E+03  0.20947425762E+03  0.00000000000E+00 0. -1.
         11    1    1    2    0    0  0.75074246137E+02  0.50511105504E+01 -0.85006388090E+02  0.11352419199E+03  0.00000000000E+00 0.  1.
</event>
<event>
 7    1  0.3056346E-009  0.4466380E+03  0.7561462E-02  0.1028729E+00
         -1   -1    0    0    0  501 -0.00000000000E+00  0.00000000000E+00  0.10144110180E+03  0.10144110180E+03  0.00000000000E+00 0.  1.
          1   -1    0    0  501    0  0.00000000000E+00 -0.00000000000E+00 -0.20941705332E+04  0.20941705332E+04  0.00000000000E+00 0. -1.
         25    2    1    2    0    0 -0.40328303600E+03 -0.16921043816E+03 -0.12354302156E+04  0.13165128214E+04  0.12509521132E+03 0.  0.
          5    1    3    3  502    0 -0.37799151996E+03 -0.11876755237E+03 -0.10351636692E+04  0.11084063402E+04  0.41800000000E+01 0.  1.
         -5    1    3    3    0  502 -0.25291516037E+02 -0.50442885787E+02 -0.20026654635E+03  0.20810648115E+03  0.41800000000E+01 0.  1.
        -11    1    1    2    0    0  0.23830640800E+03  0.71874255733E+02 -0.35551169090E+03  0.43398665313E+03  0.00000000000E+00 0.  1.
         11    1    1    2    0    0  0.16497662799E+03  0.97336182423E+02 -0.40178752499E+03  0.44511216051E+03  0.00000000000E+00 0. -1.
</event>
<event>
 7    1  0.3056346E-009  0.1464330E+03  0.7561462E-02  0.1204926E+00
         -1   -1    0    0    0  501 -0.00000000000E+00  0.00000000000E+00  0.34685440512E+02  0.34685440512E+02  0.00000000000E+00 0.  1.
          1   -1    0    0  501    0  0.00000000000E+00 -0.00000000000E+00 -0.84106120184E+03  0.84106120184E+03  0.00000000000E+00 0. -1.
         25    2    1    2    0    0 -0.11154354365E+03  0.53988311985E+02 -0.54172703796E+03  0.56962445044E+03  0.12508849234E+03 0.  0.
          5    1    3    3  502    0 -0.83857730713E+01 -0.15564820431E+02 -0.52744796651E+01  0.18917646809E+02  0.41800000000E+01 0. -1.
         -5    1    3    3    0  502 -0.10315777058E+03  0.69553132416E+02 -0.53645255830E+03  0.55070680363E+03  0.41800000000E+01 0. -1.
        -11    1    1    2    0    0  0.11082104785E+03 -0.15711423335E+02 -0.16508971985E+03  0.19945618334E+03  0.00000000000E+00 0. -1.
         11    1    1    2    0    0  0.72249580176E+00 -0.38276888650E+02 -0.99559003507E+02  0.10666600857E+03  0.00000000000E+00 0.  1.
</event>
<event>
 7    1  0.3056346E-009  0.1687891E+03  0.7561462E-02  0.1179117E+00
         -2   -1    0    0    0  501 -0.00000000000E+00  0.00000000000E+00  0.36756009720E+02  0.36756009720E+02  0.00000000000E+00 0.  1.
          2   -1    0    0  501    0  0.00000000000E+00 -0.00000000000E+00 -0.10334127744E+04  0.10334127744E+04  0.00000000000E+00 0. -1.
         25    2    1    2    0    0  0.14636826614E+03 -0.52997981728E+02 -0.64219813950E+03  0.67253101628E+03  0.12508821719E+03 0.  0.
          5    1    3    3  502    0  0.39751164760E+02 -0.52996470143E+02 -0.42919582402E+03  0.43429864000E+03  0.41800000000E+01 0.  1.
         -5    1    3    3    0  502  0.10661710138E+03 -0.15115849771E-02 -0.21300231548E+03  0.23823237628E+03  0.41800000000E+01 0.  1.
        -11    1    1    2    0    0 -0.34477924769E+02 -0.10251460829E+02 -0.16379109233E+03  0.16769419093E+03  0.00000000000E+00 0. -1.
         11    1    1    2    0    0 -0.11189034137E+03  0.63249442557E+02 -0.19066753282E+03  0.22994357688E+03  0.00000000000E+00 0.  1.
</event>
<event>
 7    1  0.3056346E-009  0.1112330E+03  0.7561462E-02  0.1258303E+00
         -2   -1    0    0    0  501 -0.00000000000E+00  0.00000000000E+00  0.81692133421E+02  0.81692133421E+02  0.00000000000E+00 0.  1.
          2   -1    0    0  501    0  0.00000000000E+00 -0.00000000000E+00 -0.17977332766E+03  0.17977332766E+03  0.00000000000E+00 0. -1.
         25    2    1    2    0    0  0.16011039340E+02  0.21672760584E+02 -0.63475315256E+01  0.12811199644E+03  0.12508529308E+03 0.  0.
          5    1    3    3  502    0 -0.51298947008E+02  0.30395092716E+02 -0.63538858100E+01  0.60110630426E+02  0.41800000000E+01 0.  1.
         -5    1    3    3    0  502  0.67309986347E+02 -0.87223321322E+01  0.63542843487E-02  0.68001366018E+02  0.41800000000E+01 0.  1.
        -11    1    1    2    0    0  0.28370961593E+02 -0.37980978947E+02 -0.32116912204E+02  0.57262223787E+02  0.00000000000E+00 0.  1.
         11    1    1    2    0    0 -0.44382000932E+02  0.16308218363E+02 -0.59616750508E+02  0.76091240850E+02  0.00000000000E+00 0. -1.
</event>
<event>
 7    1  0.3056346E-009  0.9646561E+02  0.7561462E-02  0.1287909E+00
          1   -1    0    0  501    0  0.00000000000E+00  0.00000000000E+00  0.49557532219E+02  0.49557532219E+02  0.00000000000E+00 0. -1.
         -1   -1    0    0    0  501 -0.00000000000E+00 -0.00000000000E+00 -0.30605236084E+03  0.30605236084E+03  0.00000000000E+00 0.  1.
         25    2    1    2    0    0  0.52657111565E+00 -0.12497633273E+02 -0.22622620728E+03  0.25880761791E+03  0.12508644257E+03 0.  0.
          5    1    3    3  502    0 -0.28867372928E+02  0.43498775592E+02 -0.53713716567E+02  0.75020693447E+02  0.41800000000E+01 0. -1.
         -5    1    3    3    0  502  0.29393944044E+02 -0.55996408865E+02 -0.17251249071E+03  0.18378692446E+03  0.41800000000E+01 0. -1.
        -11    1    1    2    0    0 -0.12212681746E+02 -0.30376451675E+02  0.12577787456E+02  0.35072484216E+02  0.00000000000E+00 0. -1.
         11    1    1    2    0    0  0.11686110630E+02  0.42874084948E+02 -0.42846408798E+02  0.61729790934E+02  0.00000000000E+00 0.  1.
</event>
<event>
 7    1  0.3056346E-009  0.2096202E+03  0.7561462E-02  0.1141867E+00
         -1   -1    0    0    0  501 -0.00000000000E+00  0.00000000000E+00  0.71360953864E+02  0.71360953864E+02  0.00000000000E+00 0.  1.
          1   -1    0    0  501    0  0.00000000000E+00 -0.00000000000E+00 -0.79446784625E+03  0.79446784625E+03  0.00000000000E+00 0. -1.
         25    2    1    2    0    0  0.94623837323E+02 -0.16577921190E+03 -0.53883231904E+03  0.58517401005E+03  0.12510769885E+03 0.  0.
          5    1    3    3  502    0 -0.60146368752E+01 -0.93624654120E+02 -0.14900552372E+03  0.17613026490E+03  0.41800000000E+01 0.  1.
         -5    1    3    3    0  502  0.10063847420E+03 -0.72154557781E+02 -0.38982679531E+03  0.40904374514E+03  0.41800000000E+01 0.  1.
        -11    1    1    2    0    0 -0.73612690049E+02  0.64131087706E+02 -0.46450313173E+02  0.10811686335E+03  0.00000000000E+00 0.  1.
         11    1    1    2    0    0 -0.21011147274E+02  0.10164812420E+03 -0.13782426018E+03  0.17253792672E+03  0.00000000000E+00 0. -1.
</event>
<event>
 7    1  0.3056346E-009  0.1072395E+03  0.7561462E-02  0.1265769E+00
         -1   -1    0    0    0  501 -0.00000000000E+00  0.00000000000E+00  0.25306385617E+03  0.25306385617E+03  0.00000000000E+00 0.  1.
          1   -1    0    0  501    0  0.00000000000E+00 -0.00000000000E+00 -0.56979085169E+02  0.56979085169E+02  0.00000000000E+00 0. -1.
         25    2    1    2    0    0 -0.41881016973E+02 -0.28157684064E+02  0.96493870858E+02  0.16584469277E+03  0.12508605139E+03 0.  0.
          5    1    3    3  502    0 -0.60662292905E+02 -0.60339513365E+02  0.95563729985E+02  0.12833810635E+03  0.41800000000E+01 0.  1.
         -5    1    3    3    0  502  0.18781275932E+02  0.32181829300E+02  0.93014087301E+00  0.37506586419E+02  0.41800000000E+01 0.  1.
        -11    1    1    2    0    0  0.12936406640E+02  0.52146501105E+02  0.90935621369E+02  0.10562147238E+03  0.00000000000E+00 0.  1.
         11    1    1    2    0    0  0.28944610332E+02 -0.23988817041E+02  0.86552787733E+01  0.38576776186E+02  0.00000000000E+00 0. -1.
</event>
<event>
 7    1  0.3056346E-009  0.9450560E+02  0.7561462E-02  0.1292294E+00
          2   -1    0    0  501    0  0.00000000000E+00  0.00000000000E+00  0.56138637444E+02  0.56138637444E+02  0.00000000000E+00 0. -1.
         -2   -1    0    0    0  501 -0.00000000000E+00 -0.00000000000E+00 -0.31315931969E+03  0.31315931969E+03  0.00000000000E+00 0.  1.
         25    2    1    2    0    0 -0.20892984221E+02 -0.43185713844E+02 -0.22634550290E+03  0.26302756045E+03  0.12509871383E+03 0.  0.
          5    1    3    3  502    0  0.42207573601E+02 -0.38413476817E+02 -0.16560674234E+03  0.17521455413E+03  0.41800000000E+01 0. -1.
         -5    1    3    3    0  502 -0.63100557822E+02 -0.47722370263E+01 -0.60738760557E+02  0.87813006313E+02  0.41800000000E+01 0. -1.
        -11    1    1    2    0    0  0.23434272731E+02 -0.16208842202E+01 -0.51643577832E+02  0.56734923419E+02  0.00000000000E+00 0.  1.
         11    1    1    2    0    0 -0.25412885104E+01  0.44806598064E+02  0.20968398484E+02  0.49535473272E+02  0.00000000000E+00 0. -1.
</event>
<event>
 7    1  0.3056346E-009  0.6665635E+02  0.7561462E-02  0.1371847E+00
          1   -1    0    0  501    0  0.00000000000E+00  0.00000000000E+00  0.43303387586E+02  0.43303387586E+02  0.00000000000E+00 0. -1.
         -1   -1    0    0    0  501 -0.00000000000E+00 -0.00000000000E+00 -0.30184377500E+03  0.30184377500E+03  0.00000000000E+00 0.  1.
         25    2    1    2    0    0  0.20432756268E+02 -0.16692247105E+02 -0.11100969649E+03  0.16932013307E+03  0.12510006437E+03 0.  0.
          5    1    3    3  502    0  0.50750791895E+02 -0.12167273012E+02  0.17580284179E+01  0.52385575061E+02  0.41800000000E+01 0. -1.
         -5    1    3    3    0  502 -0.30318035628E+02 -0.45249740925E+01 -0.11276772491E+03  0.11693455801E+03  0.41800000000E+01 0. -1.
        -11    1    1    2    0    0 -0.31812527124E+02  0.20699942552E+02 -0.15634464653E+03  0.16088558979E+03  0.00000000000E+00 0.  1.
         11    1    1    2    0    0  0.11379770857E+02 -0.40076954468E+01  0.88139556110E+01  0.14941439725E+02  0.00000000000E+00 0. -1.
</event>
<event>
 7    1  0.3056346E-009  0.1123174E+03  0.7561462E-02  0.1256338E+00
          1   -1    0    0  501    0  0.00000000000E+00  0.00000000000E+00  0.81565978835E+03  0.81565978835E+03  0.00000000000E+00 0. -1.
         -1   -1    0    0    0  501 -0.00000000000E+00 -0.00000000000E+00 -0.24926983928E+02  0.24926983928E+02  0.00000000000E+00 0.  1.
         25    2    1    2    0    0 -0.56192271225E+02  0.72865101215E+02  0.46068299394E+03  0.48614924910E+03  0.12508148215E+03 0.  0.
          5    1    3    3  502    0  0.86729696767E+00  0.11448332393E+02 -0.48234460348E+01  0.13136002066E+02  0.41800000000E+01 0. -1.
         -5    1    3    3    0  502 -0.57059568192E+02  0.61416768821E+02  0.46550643997E+03  0.47301324703E+03  0.41800000000E+01 0. -1.
        -11    1    1    2    0    0  0.80083798758E+02 -0.45322145565E+02  0.21870667966E+03  0.23727647045E+03  0.00000000000E+00 0.  1.
         11    1    1    2    0    0 -0.23891527533E+02 -0.27542955650E+02  0.11134313082E+03  0.11716105272E+03  0.00000000000E+00 0. -1.
</event>
<event>
 7    1  0.3056346E-009  0.1506605E+03  0.7561462E-02  0.1199664E+00
         -2   -1    0    0    0  501 -0.00000000000E+00  0.00000000000E+00  0.58577320655E+03  0.58577320655E+03  0.00000000000E+00 0.  1.
          2   -1    0    0  501    0  0.00000000000E+00 -0.00000000000E+00 -0.60003903254E+02  0.60003903254E+02  0.00000000000E+00 0. -1.
         25    2    1    2    0    0 -0.17800183763E+02  0.13209508124E+03  0.15282036226E+03  0.23825835530E+03  0.12508806385E+03 0.  0.
          5    1    3    3  502    0  0.79537318895E+01  0.55040071615E+02 -0.96134668811E+01  0.56591187298E+02  0.41800000000E+01 0. -1.
         -5    1    3    3    0  502 -0.25753915652E+02  0.77055009623E+02  0.16243382914E+03  0.18166716800E+03  0.41800000000E+01 0. -1.
        -11    1    1    2    0    0  0.57666061335E+02 -0.78240789090E+02  0.22605300602E+03  0.24606291317E+03  0.00000000000E+00 0.  1.
         11    1    1    2    0    0 -0.39865877572E+02 -0.53854292148E+02  0.14689593502E+03  0.16145584134E+03  0.00000000000E+00 0. -1.
</event>
<event>
 7    1  0.3056346E-009  0.1519636E+03  0.7561462E-02  0.1198081E+00
          2   -1    0    0  501    0  0.00000000000E+00  0.00000000000E+00  0.89358403376E+03  0.89358403376E+03  0.00000000000E+00 0. -1.
         -2   -1    0    0    0  501 -0.00000000000E+00 -0.00000000000E+00 -0.36628455200E+02  0.36628455200E+02  0.00000000000E+00 0.  1.
         25    2    1    2    0    0 -0.10794043958E+03  0.28485889370E+02  0.21646978303E+03  0.27381006536E+03  0.12510076153E+03 0.  0.
          5    1    3    3  502    0  0.24252955432E+02 -0.20988767412E+01  0.69409316177E+02  0.73673174921E+02  0.41800000000E+01 0.  1.
         -5    1    3    3    0  502 -0.13219339501E+03  0.30584766111E+02  0.14706046686E+03  0.20013689044E+03  0.41800000000E+01 0.  1.
        -11    1    1    2    0    0 -0.15004911089E+02 -0.12436992514E+02  0.75874512657E+02  0.78337524919E+02  0.00000000000E+00 0. -1.
         11    1    1    2    0    0  0.12294535067E+03 -0.16048896856E+02  0.56461128287E+03  0.57806489868E+03  0.00000000000E+00 0.  1.
</event>
<event>
 7    1  0.3056346E-009  0.1030223E+03  0.7561462E-02  0.1274066E+00
          1   -1    0    0  501    0  0.00000000000E+00  0.00000000000E+00  0.38134122330E+03  0.38134122330E+03  0.00000000000E+00 0. -1.
         -1   -1    0    0    0  501 -0.00000000000E+00 -0.00000000000E+00 -0.42637801776E+02  0.42637801776E+02  0.00000000000E+00 0.  1.
         25    2    1    2    0    0 -0.34764882887E+01  0.42437363091E+00  0.30141259580E+03  0.32635529038E+03  0.12508379827E+03 0.  0.
          5    1    3    3  502    0  0.57309647230E+02 -0.20042852708E+02  0.14623984362E+03  0.15839720917E+03  0.41800000000E+01 0. -1.
         -5    1    3    3    0  502 -0.60786135519E+02  0.20467226339E+02  0.15517275218E+03  0.16795808121E+03  0.41800000000E+01 0. -1.
        -11    1    1    2    0    0 -0.28740691861E+02  0.26372677069E+02 -0.34745070032E+01  0.39161430813E+02  0.00000000000E+00 0.  1.
         11    1    1    2    0    0  0.32217180150E+02 -0.26797050700E+02  0.40765332731E+02  0.58462303886E+02  0.00000000000E+00 0. -1.
</event>
<event>
 7    1  0.3056346E-009  0.1624696E+03  0.7561462E-02  0.1185936E+00
          2   -1    0    0  501    0  0.00000000000E+00  0.00000000000E+00  0.61678489545E+03  0.61678489545E+03  0.00000000000E+00 0. -1.
         -2   -1    0    0    0  501 -0.00000000000E+00 -0.00000000000E+00 -0.44661023657E+02  0.44661023657E+02  0.00000000000E+00 0.  1.
         25    2    1    2    0    0  0.17540979173E+02 -0.12413647393E+03  0.29261225468E+03  0.34205290687E+03  0.12514275609E+03 0.  0.
          5    1    3    3  502    0 -0.36327851598E+02 -0.14850757426E+01  0.30411955724E+02  0.47584427102E+02  0.41800000000E+01 0.  1.
         -5    1    3    3    0  502  0.53868830771E+02 -0.12265139819E+03  0.26220029896E+03  0.29446847977E+03  0.41800000000E+01 0.  1.
        -11    1    1    2    0    0 -0.34439942638E+00 -0.14556989607E+02  0.31838838923E+02  0.35010515869E+02  0.00000000000E+00 0.  1.
         11    1    1    2    0    0 -0.17196579747E+02  0.13869346354E+03  0.24767277819E+03  0.28438249637E+03  0.00000000000E+00 0. -1.
</event>
<event>
 7    1  0.3056346E-009  0.1081046E+03  0.7561462E-02  0.1264121E+00
          1   -1    0    0  501    0  0.00000000000E+00  0.00000000000E+00  0.47201379145E+03  0.47201379145E+03  0.00000000000E+00 0. -1.
         -1   -1    0    0    0  501 -0.00000000000E+00 -0.00000000000E+00 -0.34267965973E+02  0.34267965973E+02  0.00000000000E+00 0.  1.
         25    2    1    2    0    0  0.16433429447E+02  0.65377483576E+02  0.19378965286E+03  0.24030626351E+03  0.12509355604E+03 0.  0.
          5    1    3    3  502    0  0.66539427273E+02  0.11747168551E+02  0.10636465688E+03  0.12608094219E+03  0.41800000000E+01 0. -1.
         -5    1    3    3    0  502 -0.50105997826E+02  0.53630315025E+02  0.87424995986E+02  0.11422532132E+03  0.41800000000E+01 0. -1.
        -11    1    1    2    0    0  0.94930061868E+01 -0.96614947475E+01 -0.85247423707E+00  0.13571601215E+02  0.00000000000E+00 0.  1.
         11    1    1    2    0    0 -0.25926435634E+02 -0.55715988829E+02  0.24480864685E+03  0.25240389270E+03  0.00000000000E+00 0. -1.
</event>
<event>
 7    1  0.3056346E-009  0.1932529E+03  0.7561462E-02  0.1155560E+00
         -2   -1    0    0    0  501 -0.00000000000E+00  0.00000000000E+00  0.37695064959E+03  0.37695064959E+03  0.00000000000E+00 0.  1.
          2   -1    0    0  501    0  0.00000000000E+00 -0.00000000000E+00 -0.10623059448E+03  0.10623059448E+03  0.00000000000E+00 0. -1.
         25    2    1    2    0    0 -0.12099712073E+03  0.11328216071E+03  0.18640763653E+03  0.27904899223E+03  0.12508949576E+03 0.  0.
          5    1    3    3  502    0 -0.14669643869E+03  0.99971824323E+02  0.15073009908E+03  0.23291896863E+03  0.41800000000E+01 0. -1.
         -5    1    3    3    0  502  0.25699317960E+02  0.13310336383E+02  0.35677537449E+02  0.46130023593E+02  0.41800000000E+01 0. -1.
        -11    1    1    2    0    0  0.19778941936E+02 -0.64245618642E+02  0.68557031409E+01  0.67570013500E+02  0.00000000000E+00 0. -1.
         11    1    1    2    0    0  0.10121817879E+03 -0.49036542064E+02  0.77456715448E+02  0.13656223835E+03  0.00000000000E+00 0.  1.
</event>
<event>
 7    1  0.3056346E-009  0.7600249E+02  0.7561462E-02  0.1340794E+00
          1   -1    0    0  501    0  0.00000000000E+00  0.00000000000E+00  0.10218279096E+03  0.10218279096E+03  0.00000000000E+00 0. -1.
         -1   -1    0    0    0  501 -0.00000000000E+00 -0.00000000000E+00 -0.12317002519E+03  0.12317002519E+03  0.00000000000E+00 0.  1.
         25    2    1    2    0    0  0.17520566902E+01  0.84704442431E+01 -0.46106268304E+02  0.13359064853E+03  0.12508339326E+03 0.  0.
          5    1    3    3  502    0 -0.45148730099E+02  0.37693343770E+02 -0.50997007397E+02  0.77957444529E+02  0.41800000000E+01 0.  1.
         -5    1    3    3    0  502  0.46900786789E+02 -0.29222899527E+02  0.48907390927E+01  0.55633203997E+02  0.41800000000E+01 0.  1.
        -11    1    1    2    0    0 -0.12421422219E+02  0.10231398225E+02  0.53653943410E+02  0.56015345068E+02  0.00000000000E+00 0. -1.
         11    1    1    2    0    0  0.10669365528E+02 -0.18701842468E+02 -0.28534909328E+02  0.35746822556E+02  0.00000000000E+00 0.  1.
</event>
<event>
 7    1  0.3056346E-009  0.3554846E+03  0.7561462E-02  0.1060386E+00
          2   -1    0    0  501    0  0.00000000000E+00  0.00000000000E+00  0.65566048907E+03  0.65566048907E+03  0.00000000000E+00 0. -1.
         -2   -1    0    0    0  501 -0.00000000000E+00 -0.00000000000E+00 -0.20193218037E+03  0.20193218037E+03  0.00000000000E+00 0.  1.
         25    2    1    2    0    0  0.16850444363E+03 -0.30115175386E+03  0.27467770265E+03  0.45845534911E+03  0.12508932977E+03 0.  0.
          5    1    3    3  502    0 -0.67193680496E+01  0.46468192838E+01  0.24676911098E+02  0.26328030268E+02  0.41800000000E+01 0. -1.
         -5    1    3    3    0  502  0.17522381168E+03 -0.30579857314E+03  0.25000079155E+03  0.43212731884E+03  0.41800000000E+01 0. -1.
        -11    1    1    2    0    0 -0.11361361673E+03  0.24860821116E+03  0.10434361293E+03  0.29257765828E+03  0.00000000000E+00 0.  1.
         11    1    1    2    0    0 -0.54890826899E+02  0.52543542697E+02  0.74706993127E+02  0.10655966206E+03  0.00000000000E+00 0. -1.
</event>
<event>
 7    1  0.3056346E-009  0.1029713E+03  0.7561462E-02  0.1274169E+00
         -4   -1    0    0    0  501 -0.00000000000E+00  0.00000000000E+00  0.57889365567E+02  0.57889365567E+02  0.00000000000E+00 0.  1.
          4   -1    0    0  501    0  0.00000000000E+00 -0.00000000000E+00 -0.27930703617E+03  0.27930703617E+03  0.00000000000E+00 0. -1.
         25    2    1    2    0    0 -0.55312818456E+02  0.32293051911E+02 -0.85189598603E+02  0.16433790326E+03  0.12508928671E+03 0.  0.
          5    1    3    3  502    0  0.30939106300E+02 -0.15773169828E+02 -0.46541921269E+02  0.58220649434E+02  0.41800000000E+01 0. -1.
         -5    1    3    3    0  502 -0.86251924756E+02  0.48066221739E+02 -0.38647677334E+02  0.10611725383E+03  0.41800000000E+01 0. -1.
        -11    1    1    2    0    0  0.17150254430E+02 -0.29178383778E+02 -0.27043386523E+01  0.33953243652E+02  0.00000000000E+00 0.  1.
         11    1    1    2    0    0  0.38162564026E+02 -0.31146681322E+01 -0.13352373335E+03  0.13890525482E+03  0.00000000000E+00 0. -1.
</event>
<event>
 7    1  0.3056346E-009  0.1092826E+03  0.7561462E-02  0.1261904E+00
          1   -1    0    0  501    0  0.00000000000E+00  0.00000000000E+00  0.54780196086E+03  0.54780196086E+03  0.00000000000E+00 0. -1.
         -1   -1    0    0    0  501 -0.00000000000E+00 -0.00000000000E+00 -0.37025201785E+02  0.37025201785E+02  0.00000000000E+00 0.  1.
         25    2    1    2    0    0  0.58144625451E+02 -0.40504945865E+02  0.40171433534E+03  0.42666583926E+03  0.12509149877E+03 0.  0.
          5    1    3    3  502    0 -0.35750352014E+00 -0.45773234255E+02  0.33305714095E+03  0.33621399186E+03  0.41800000000E+01 0.  1.
         -5    1    3    3    0  502  0.58502128971E+02  0.52682883898E+01  0.68657194391E+02  0.90451847401E+02  0.41800000000E+01 0.  1.
        -11    1    1    2    0    0 -0.35286472078E+02 -0.25712629661E+02  0.51313980835E+02  0.67375062633E+02  0.00000000000E+00 0. -1.
         11    1    1    2    0    0 -0.22858153373E+02  0.66217575526E+02  0.57748442902E+02  0.90786260754E+02  0.00000000000E+00 0.  1.
</event>
<event>
 7    1  0.3056346E-009  0.1081981E+03  0.7561462E-02  0.1263943E+00
         -2   -1    0    0    0  501 -0.00000000000E+00  0.00000000000E+00  0.45348627567E+02  0.45348627567E+02  0.00000000000E+00 0.  1.
          2   -1    0    0  501    0  0.00000000000E+00 -0.00000000000E+00 -0.38141810856E+03  0.38141810856E+03  0.00000000000E+00 0. -1.
         25    2    1    2    0    0 -0.36290550152E+01  0.71599347698E+02 -0.22795335827E+03  0.26972144740E+03  0.12508912426E+03 0.  0.
          5    1    3    3  502    0  0.38228711169E+02  0.90079147316E+02 -0.14708436828E+03  0.17671154725E+03  0.41800000000E+01 0.  1.
         -5    1    3    3    0  502 -0.41857766184E+02 -0.18479799618E+02 -0.80868989984E+02  0.93009900144E+02  0.41800000000E+01 0.  1.
        -11    1    1    2    0    0 -0.30881887721E+01 -0.43695754324E+02  0.14037221114E+01  0.43827232306E+02  0.00000000000E+00 0.  1.
         11    1    1    2    0    0  0.67172437872E+01 -0.27903593373E+02 -0.10951984484E+03  0.11321805642E+03  0.00000000000E+00 0. -1.
</event>
<event>
 7    1  0.3056346E-009  0.1377080E+03  0.7561462E-02  0.1216447E+00
          2   -1    0    0  501    0  0.00000000000E+00  0.00000000000E+00  0.68954252393E+03  0.68954252393E+03  0.00000000000E+00 0. -1.
         -2   -1    0    0    0  501 -0.00000000000E+00 -0.00000000000E+00 -0.38118735242E+02  0.38118735242E+02  0.00000000000E+00 0.  1.
         25    2    1    2    0    0 -0.64485646430E+02  0.93931626006E+02  0.43898049179E+03  0.47045986675E+03  0.12508822920E+03 0.  0.
          5    1    3    3  502    0 -0.27252824902E+02 -0.10470634907E+02  0.24687843358E+03  0.24863383524E+03  0.41800000000E+01 0. -1.
         -5    1    3    3    0  502 -0.37232821528E+02  0.10440226091E+03  0.19210205821E+03  0.22182603150E+03  0.41800000000E+01 0. -1.
        -11    1    1    2    0    0  0.66101478307E+02 -0.32697783483E+02  0.68024453117E+02  0.10032884282E+03  0.00000000000E+00 0.  1.
         11    1    1    2    0    0 -0.16158318773E+01 -0.61233842522E+02  0.14441884377E+03  0.15687254961E+03  0.00000000000E+00 0. -1.
</event>
<event>
 7    1  0.3056346E-009  0.8052032E+02  0.7561462E-02  0.1327581E+00
         -1   -1    0    0    0  501 -0.00000000000E+00  0.00000000000E+00  0.23617188190E+03  0.23617188190E+03  0.00000000000E+00 0.  1.
          1   -1    0    0  501    0  0.00000000000E+00 -0.00000000000E+00 -0.56633650229E+02  0.56633650229E+02  0.00000000000E+00 0. -1.
         25    2    1    2    0    0 -0.15760520604E+02  0.15934391195E+02  0.71247500227E+02  0.14570384800E+03  0.12510438122E+03 0.  0.
          5    1    3    3  502    0 -0.37989094893E+02 -0.33913537075E+02  0.75094727740E+02  0.90829454816E+02  0.41800000000E+01 0.  1.
         -5    1    3    3    0  502  0.22228574289E+02  0.49847928270E+02 -0.38472275132E+01  0.54874393184E+02  0.41800000000E+01 0.  1.
        -11    1    1    2    0    0  0.23434192022E+02  0.11935444229E+02  0.11454556205E+03  0.11752575024E+03  0.00000000000E+00 0.  1.
         11    1    1    2    0    0 -0.76736714179E+01 -0.27869835424E+02 -0.62548306027E+01  0.29575933890E+02  0.00000000000E+00 0. -1.
</event>
<event>
 7    1  0.3056346E-009  0.1078961E+03  0.7561462E-02  0.1264516E+00
          2   -1    0    0  501    0  0.00000000000E+00  0.00000000000E+00  0.56723011902E+03  0.56723011902E+03  0.00000000000E+00 0. -1.
         -2   -1    0    0    0  501 -0.00000000000E+00 -0.00000000000E+00 -0.25347392933E+02  0.25347392933E+02  0.00000000000E+00 0.  1.
         25    2    1    2    0    0  0.20024860841E+02  0.42116498960E+02  0.27104091955E+03  0.30213520969E+03  0.12509080834E+03 0.  0.
          5    1    3    3  502    0  0.42047425826E+02  0.73291826072E+02  0.23383713766E+03  0.24867037849E+03  0.41800000000E+01 0. -1.
         -5    1    3    3    0  502 -0.22022564985E+02 -0.31175327113E+02  0.37203781887E+02  0.53464831205E+02  0.41800000000E+01 0. -1.
        -11    1    1    2    0    0 -0.48928303824E+02 -0.41056607664E+02  0.23916775497E+03  0.24754966969E+03  0.00000000000E+00 0. -1.
         11    1    1    2    0    0  0.28903442982E+02 -0.10598912962E+01  0.31674051571E+02  0.42892632569E+02  0.00000000000E+00 0.  1.
</event>
<event>
 7    1  0.3056346E-009  0.1049687E+03  0.7561462E-02  0.1270181E+00
         -2   -1    0    0    0  501 -0.00000000000E+00  0.00000000000E+00  0.16809663391E+03  0.16809663391E+03  0.00000000000E+00 0.  1.
          2   -1    0    0  501    0  0.00000000000E+00 -0.00000000000E+00 -0.13099446026E+03  0.13099446026E+03  0.00000000000E+00 0. -1.
         25    2    1    2    0    0  0.36974264544E+02 -0.31892266826E+00  0.11463304011E+03  0.17363687187E+03  0.12506730763E+03 0.  0.
          5    1    3    3  502    0  0.13820527727E+02  0.56325089745E+02  0.90822788722E+02  0.10784143022E+03  0.41800000000E+01 0. -1.
         -5    1    3    3    0  502  0.23153736817E+02 -0.56644012413E+02  0.23810251389E+02  0.65795441651E+02  0.41800000000E+01 0. -1.
        -11    1    1    2    0    0 -0.29051551059E+02  0.40309353138E+02 -0.17079753938E+02  0.52540979853E+02  0.00000000000E+00 0.  1.
         11    1    1    2    0    0 -0.79227134850E+01 -0.39990430470E+02 -0.60451112529E+02  0.72913242447E+02  0.00000000000E+00 0. -1.
</event>
<event>
 7    1  0.3056346E-009  0.1164744E+03  0.7561462E-02  0.1249029E+00
         -1   -1    0    0    0  501 -0.00000000000E+00  0.00000000000E+00  0.28852017723E+02  0.28852017723E+02  0.00000000000E+00 0.  1.
          1   -1    0    0  501    0  0.00000000000E+00 -0.00000000000E+00 -0.83178302147E+03  0.83178302147E+03  0.00000000000E+00 0. -1.
         25    2    1    2    0    0  0.66921528557E+02  0.57384914756E+02 -0.31482059191E+03  0.35004461841E+03  0.12509080846E+03 0.  0.
          5    1    3    3  502    0  0.43653188985E+02  0.54699702440E+02 -0.54922171586E+02  0.89059394155E+02  0.41800000000E+01 0. -1.
         -5    1    3    3    0  502  0.23268339572E+02  0.26852123153E+01 -0.25989842033E+03  0.26098522426E+03  0.41800000000E+01 0. -1.
        -11    1    1    2    0    0 -0.72383655227E+02 -0.84571429859E+02 -0.44934334760E+03  0.46292673754E+03  0.00000000000E+00 0. -1.
         11    1    1    2    0    0  0.54621266698E+01  0.27186515103E+02 -0.38767064234E+02  0.47663683245E+02  0.00000000000E+00 0.  1.
</event>
<event>
 7    1  0.3056346E-009  0.1210921E+03  0.7561462E-02  0.1241306E+00
         -1   -1    0    0    0  501 -0.00000000000E+00  0.00000000000E+00  0.53247948717E+02  0.53247948717E+02  0.00000000000E+00 0.  1.
          1   -1    0    0  501    0  0.00000000000E+00 -0.00000000000E+00 -0.46752797250E+03  0.46752797250E+03  0.00000000000E+00 0. -1.
         25    2    1    2    0    0  0.75110734274E+02 -0.11153990388E+02 -0.82152709517E+02  0.16781881150E+03  0.12509217364E+03 0.  0.
          5    1    3    3  502    0 -0.13990854962E+02 -0.37516786496E+02  0.47347275114E+01  0.40535704461E+02  0.41800000000E+01 0.  1.
         -5    1    3    3    0  502  0.89101589236E+02  0.26362796107E+02 -0.86887437029E+02  0.12728310704E+03  0.41800000000E+01 0.  1.
        -11    1    1    2    0    0 -0.17976838337E+02 -0.32411778885E+02 -0.52618300968E+02  0.64361290570E+02  0.00000000000E+00 0.  1.
         11    1    1    2    0    0 -0.57133895937E+02  0.43565769273E+02 -0.27950901330E+03  0.28859581915E+03  0.00000000000E+00 0. -1.
</event>
<event>
 7    1  0.3056346E-009  0.8602575E+02  0.7561462E-02  0.1312772E+00
          1   -1    0    0  501    0  0.00000000000E+00  0.00000000000E+00  0.40895046439E+02  0.40895046439E+02  0.00000000000E+00 0. -1.
         -1   -1    0    0    0  501 -0.00000000000E+00 -0.00000000000E+00 -0.35044036102E+03  0.35044036102E+03  0.00000000000E+00 0.  1.
         25    2    1    2    0    0  0.15038727520E+02  0.33747181775E+02 -0.23274995936E+03  0.26681108422E+03  0.12510226008E+03 0.  0.
          5    1    3    3  502    0  0.44558714152E+02  0.30017641943E+02 -0.23046056594E+03  0.23667716977E+03  0.41800000000E+01 0.  1.
         -5    1    3    3    0  502 -0.29519986633E+02  0.37295398320E+01 -0.22893934222E+01  0.30133914455E+02  0.41800000000E+01 0.  1.
        -11    1    1    2    0    0 -0.34897442869E+02  0.13067064300E+02 -0.65980578795E+01  0.37843282838E+02  0.00000000000E+00 0. -1.
         11    1    1    2    0    0  0.19858715349E+02 -0.46814246075E+02 -0.70197297335E+02  0.86681040396E+02  0.00000000000E+00 0.  1.
</event>
<event>
 7    1  0.3164797E-009  0.1167350E+03  0.7561462E-02  0.1248583E+00
          1   -1    0    0  501    0  0.00000000000E+00  0.00000000000E+00  0.20424296638E+03  0.20424296638E+03  0.00000000000E+00 0. -1.
         -1   -1    0    0    0  501 -0.00000000000E+00 -0.00000000000E+00 -0.91574056845E+02  0.91574056845E+02  0.00000000000E+00 0.  1.
         25    2    1    2    0    0  0.12699661211E+02 -0.67780161319E+02  0.11885600014E+02  0.14333390897E+03  0.12509160767E+03 0.  0.
          5    1    3    3  502    0  0.42822402132E+02 -0.92671392838E+02 -0.35314578384E+00  0.10217309962E+03  0.41800000000E+01 0. -1.
         -5    1    3    3    0  502 -0.30122740921E+02  0.24891231518E+02  0.12238745798E+02  0.41160809343E+02  0.41800000000E+01 0. -1.
        -11    1    1    2    0    0  0.17729091472E+02  0.57036924993E+02  0.16101310769E+02  0.61861003108E+02  0.00000000000E+00 0.  1.
         11    1    1    2    0    0 -0.30428752683E+02  0.10743236326E+02  0.84681998753E+02  0.90622111151E+02  0.00000000000E+00 0. -1.
</event>
<event>
 7    1  0.3056346E-009  0.6402011E+02  0.7561462E-02  0.1381696E+00
         -1   -1    0    0    0  501 -0.00000000000E+00  0.00000000000E+00  0.46579267742E+02  0.46579267742E+02  0.00000000000E+00 0.  1.
          1   -1    0    0  501    0  0.00000000000E+00 -0.00000000000E+00 -0.28677679130E+03  0.28677679130E+03  0.00000000000E+00 0. -1.
         25    2    1    2    0    0 -0.35973550377E+02  0.15086921738E+02 -0.15690665976E+03  0.20443738183E+03  0.12511287575E+03 0.  0.
          5    1    3    3  502    0 -0.44004234068E+02 -0.39745391066E+01  0.17193109363E+01  0.44413939333E+02  0.41800000000E+01 0.  1.
         -5    1    3    3    0  502  0.80306836909E+01  0.19061460845E+02 -0.15862597070E+03  0.16002344250E+03  0.41800000000E+01 0.  1.
        -11    1    1    2    0    0 -0.95507881378E+01 -0.14090224707E+02 -0.81595233711E+02  0.83351869510E+02  0.00000000000E+00 0. -1.
         11    1    1    2    0    0  0.45524338515E+02 -0.99669703095E+00 -0.16956300817E+01  0.45566807695E+02  0.00000000000E+00 0.  1.
</event>
<event>
 7    1  0.3056346E-009  0.1209655E+03  0.7561462E-02  0.1241513E+00
         -1   -1    0    0    0  501 -0.00000000000E+00  0.00000000000E+00  0.79520322635E+03  0.79520322635E+03  0.00000000000E+00 0.  1.
          1   -1    0    0  501    0  0.00000000000E+00 -0.00000000000E+00 -0.23277574219E+02  0.23277574219E+02  0.00000000000E+00 0. -1.
         25    2    1    2    0    0 -0.40747344115E+02  0.67404948146E+02  0.48887929453E+03  0.51074138451E+03  0.12510005651E+03 0.  0.
          5    1    3    3  502    0  0.16313330073E+02  0.71388785658E+02  0.38644655476E+03  0.39334577097E+03  0.41800000000E+01 0.  1.
         -5    1    3    3    0  502 -0.57060674188E+02 -0.39838375118E+01  0.10243273978E+03  0.11739561354E+03  0.41800000000E+01 0.  1.
        -11    1    1    2    0    0 -0.19865113576E+02  0.93108901810E+00  0.16067117577E+02  0.25566421951E+02  0.00000000000E+00 0. -1.
         11    1    1    2    0    0  0.60612457691E+02 -0.68336037164E+02  0.26697924002E+03  0.28217299411E+03  0.00000000000E+00 0.  1.
</event>
<event>
 7    1  0.3056346E-009  0.1197323E+03  0.7561462E-02  0.1243539E+00
         -1   -1    0    0    0  501 -0.00000000000E+00  0.00000000000E+00  0.26955129320E+02  0.26955129320E+02  0.00000000000E+00 0.  1.
          1   -1    0    0  501    0  0.00000000000E+00 -0.00000000000E+00 -0.53909811939E+03  0.53909811939E+03  0.00000000000E+00 0. -1.
         25    2    1    2    0    0  0.25238999465E+02 -0.43469693358E+02 -0.26178790225E+03  0.29446180002E+03  0.12509286378E+03 0.  0.
          5    1    3    3  502    0  0.23543540797E+02  0.42177103652E+02 -0.10778606147E+03  0.11818846743E+03  0.41800000000E+01 0.  1.
         -5    1    3    3    0  502  0.16954586678E+01 -0.85646797011E+02 -0.15400184078E+03  0.17627333259E+03  0.41800000000E+01 0.  1.
        -11    1    1    2    0    0  0.22716288806E+01 -0.28280558616E+02 -0.63297088197E+02  0.69364772527E+02  0.00000000000E+00 0.  1.
         11    1    1    2    0    0 -0.27510628346E+02  0.71750251975E+02 -0.18705799963E+03  0.20222667617E+03  0.00000000000E+00 0. -1.
</event>
<event>
 7    1  0.3056346E-009  0.9394034E+02  0.7561462E-02  0.1293581E+00
         -2   -1    0    0    0  501 -0.00000000000E+00  0.00000000000E+00  0.46750021174E+02  0.46750021174E+02  0.00000000000E+00 0.  1.
          2   -1    0    0  501    0  0.00000000000E+00 -0.00000000000E+00 -0.36488021690E+03  0.36488021690E+03  0.00000000000E+00 0. -1.
         25    2    1    2    0    0 -0.37788229072E+02  0.23059078605E+02 -0.83979760966E+02  0.15703184377E+03  0.12508688317E+03 0.  0.
          5    1    3    3  502    0 -0.60591264273E+02 -0.13304502701E+02  0.50450376122E+00  0.62177471984E+02  0.41800000000E+01 0. -1.
         -5    1    3    3    0  502  0.22803035201E+02  0.36363581306E+02 -0.84484264727E+02  0.94854371782E+02  0.41800000000E+01 0. -1.
        -11    1    1    2    0    0 -0.16695546087E+02 -0.22595638772E+02 -0.16074386212E+03  0.16318055448E+03  0.00000000000E+00 0. -1.
         11    1    1    2    0    0  0.54483775159E+02 -0.46343983293E+00 -0.73406572638E+02  0.91417839826E+02  0.00000000000E+00 0.  1.
</event>
<event>
 7    1  0.3530520E-009  0.1159015E+03  0.7561462E-02  0.1250016E+00
          1   -1    0    0  501    0  0.00000000000E+00  0.00000000000E+00  0.37802137838E+03  0.37802137838E+03  0.00000000000E+00 0. -1.
         -1   -1    0    0    0  501 -0.00000000000E+00 -0.00000000000E+00 -0.48354271910E+02  0.48354271910E+02  0.00000000000E+00 0.  1.
         25    2    1    2    0    0 -0.59926698938E+02 -0.53738355347E+02  0.18617261021E+03  0.23830255736E+03  0.12509535551E+03 0.  0.
          5    1    3    3  502    0 -0.66424348659E+02  0.14036517307E+02  0.45127772372E+02  0.81628464105E+02  0.41800000000E+01 0.  1.
         -5    1    3    3    0  502  0.64976497209E+01 -0.67774872654E+02  0.14104483784E+03  0.15667409325E+03  0.41800000000E+01 0.  1.
        -11    1    1    2    0    0  0.26138237341E+02  0.55902824455E+02  0.14124836241E+03  0.15414095211E+03  0.00000000000E+00 0.  1.
         11    1    1    2    0    0  0.33788461597E+02 -0.21644691080E+01  0.22461338479E+01  0.33932140824E+02  0.00000000000E+00 0. -1.
</event>
<event>
 7    1  0.3056346E-009  0.1103733E+03  0.7561462E-02  0.1259880E+00
          1   -1    0    0  501    0  0.00000000000E+00  0.00000000000E+00  0.48883580825E+02  0.48883580825E+02  0.00000000000E+00 0. -1.
         -1   -1    0    0    0  501 -0.00000000000E+00 -0.00000000000E+00 -0.26843409910E+03  0.26843409910E+03  0.00000000000E+00 0.  1.
         25    2    1    2    0    0 -0.82565915382E+01  0.32128844122E+02 -0.10626738192E+03  0.16745343155E+03  0.12508981313E+03 0.  0.
          5    1    3    3  502    0  0.13857075045E+02  0.74956360632E+02 -0.42384119709E+02  0.87317584320E+02  0.41800000000E+01 0.  1.
         -5    1    3    3    0  502 -0.22113666584E+02 -0.42827516510E+02 -0.63883262214E+02  0.80135847230E+02  0.41800000000E+01 0.  1.
        -11    1    1    2    0    0 -0.18179689282E+02  0.26255099819E+02 -0.53001341466E+02  0.61878700423E+02  0.00000000000E+00 0.  1.
         11    1    1    2    0    0  0.26436280820E+02 -0.58383943941E+02 -0.60281794887E+02  0.87985547953E+02  0.00000000000E+00 0. -1.
</event>
<event>
 7    1  0.3056346E-009  0.9385216E+02  0.7561462E-02  0.1293782E+00
          1   -1    0    0  501    0  0.00000000000E+00  0.00000000000E+00  0.11906277020E+04  0.11906277020E+04  0.00000000000E+00 0. -1.
         -1   -1    0    0    0  501 -0.00000000000E+00 -0.00000000000E+00 -0.18391940719E+02  0.18391940719E+02  0.00000000000E+00 0.  1.
         25    2    1    2    0    0  0.33454321281E+02  0.28766590410E+02  0.98602711682E+03  0.99490896022E+03  0.12509058993E+03 0.  0.
          5    1    3    3  502    0  0.37722662415E+02 -0.21717955068E+02  0.12584208889E+03  0.13322301816E+03  0.41800000000E+01 0.  1.
         -5    1    3    3    0  502 -0.42683411336E+01  0.50484545479E+02  0.86018502793E+03  0.86168594206E+03  0.41800000000E+01 0.  1.
        -11    1    1    2    0    0 -0.57568348050E+02 -0.27029809905E+01  0.60807151307E+02  0.83779057368E+02  0.00000000000E+00 0.  1.
         11    1    1    2    0    0  0.24114026769E+02 -0.26063609420E+02  0.12540149312E+03  0.13033162510E+03  0.00000000000E+00 0. -1.
</event>
<event>
 7    1  0.3056346E-009  0.1050601E+03  0.7561462E-02  0.1270001E+00
         -4   -1    0    0    0  501 -0.00000000000E+00  0.00000000000E+00  0.52460249614E+02  0.52460249614E+02  0.00000000000E+00 0.  1.
          4   -1    0    0  501    0  0.00000000000E+00 -0.00000000000E+00 -0.21812487924E+03  0.21812487924E+03  0.00000000000E+00 0. -1.
         25    2    1    2    0    0  0.13997269398E+00  0.64900100302E+01 -0.10115518443E+03  0.16100349046E+03  0.12509041842E+03 0.  0.
          5    1    3    3  502    0  0.60349819013E+02  0.93813194960E+01 -0.31682649166E+02  0.68930199975E+02  0.41800000000E+01 0. -1.
         -5    1    3    3    0  502 -0.60209846319E+02 -0.28913094659E+01 -0.69472535268E+02  0.92073290485E+02  0.41800000000E+01 0. -1.
        -11    1    1    2    0    0  0.28096994287E+02 -0.37292352462E+02 -0.31404920585E+02  0.56271037640E+02  0.00000000000E+00 0.  1.
         11    1    1    2    0    0 -0.28236966981E+02  0.30802342432E+02 -0.33104524612E+02  0.53310600760E+02  0.00000000000E+00 0. -1.
</event>
<event>
 7    1  0.3056346E-009  0.1240432E+03  0.7561462E-02  0.1236572E+00
         -3   -1    0    0    0  501 -0.00000000000E+00  0.00000000000E+00  0.18501441687E+03  0.18501441687E+03  0.00000000000E+00 0.  1.
          3   -1    0    0  501    0  0.00000000000E+00 -0.00000000000E+00 -0.12045812475E+03  0.12045812475E+03  0.00000000000E+00 0. -1.
         25    2    1    2    0    0  0.79113402759E+02  0.58440925698E+02  0.59371092840E+02  0.16984285966E+03  0.12508956000E+03 0.  0.
          5    1    3    3  502    0 -0.17647659488E+02 -0.18107601904E+02 -0.10837021352E+02  0.27825142658E+02  0.41800000000E+01 0. -1.
         -5    1    3    3    0  502  0.96761062248E+02  0.76548527602E+02  0.70208114193E+02  0.14201771701E+03  0.41800000000E+01 0. -1.
        -11    1    1    2    0    0 -0.70250198536E+02 -0.46942835301E+02  0.43230666904E+02  0.94908433457E+02  0.00000000000E+00 0.  1.
         11    1    1    2    0    0 -0.88632042239E+01 -0.11498090397E+02 -0.38045467629E+02  0.40721248495E+02  0.00000000000E+00 0. -1.
</event>
<event>
 7    1  0.3056346E-009  0.2180205E+03  0.7561462E-02  0.1135368E+00
          1   -1    0    0  501    0  0.00000000000E+00  0.00000000000E+00  0.53391177064E+02  0.53391177064E+02  0.00000000000E+00 0. -1.
         -1   -1    0    0    0  501 -0.00000000000E+00 -0.00000000000E+00 -0.92393045024E+03  0.92393045024E+03  0.00000000000E+00 0.  1.
         25    2    1    2    0    0 -0.67963913597E+02 -0.18089198767E+03 -0.43433693368E+03  0.49156717940E+03  0.12509482463E+03 0.  0.
          5    1    3    3  502    0 -0.98711504244E+02 -0.10889509194E+03 -0.23312108772E+03  0.27561751769E+03  0.41800000000E+01 0. -1.
         -5    1    3    3    0  502  0.30747590647E+02 -0.71996895723E+02 -0.20121584597E+03  0.21594966171E+03  0.41800000000E+01 0. -1.
        -11    1    1    2    0    0  0.41889931285E+02  0.17968560854E+03 -0.34954024754E+03  0.39524684554E+03  0.00000000000E+00 0.  1.
         11    1    1    2    0    0  0.26073982312E+02  0.12063791305E+01 -0.86662091954E+02  0.90507602366E+02  0.00000000000E+00 0. -1.
</event>
<event>
 7    1  0.3056346E-009  0.1542905E+03  0.7561462E-02  0.1195298E+00
          1   -1    0    0  501    0  0.00000000000E+00  0.00000000000E+00  0.27266189002E+03  0.27266189002E+03  0.00000000000E+00 0. -1.
         -1   -1    0    0    0  501 -0.00000000000E+00 -0.00000000000E+00 -0.10308856878E+03  0.10308856878E+03  0.00000000000E+00 0.  1.
         25    2    1    2    0    0  0.80224537597E+02 -0.10027582499E+03  0.10899738679E+03  0.20980854645E+03  0.12509187953E+03 0.  0.
          5    1    3    3  502    0  0.58414895907E+02 -0.12927071301E+03  0.94567800686E+02  0.17053961016E+03  0.41800000000E+01 0. -1.
         -5    1    3    3    0  502  0.21809641689E+02  0.28994888021E+02  0.14429586107E+02  0.39268936288E+02  0.41800000000E+01 0. -1.
        -11    1    1    2    0    0 -0.38665575901E+02  0.31899240584E+02 -0.18513840783E+02  0.53435480817E+02  0.00000000000E+00 0.  1.
         11    1    1    2    0    0 -0.41558961695E+02  0.68376584407E+02  0.79089775224E+02  0.11250643154E+03  0.00000000000E+00 0. -1.
</event>
<event>
 7    1  0.3056346E-009  0.1440889E+03  0.7561462E-02  0.1207931E+00
          1   -1    0    0  501    0  0.00000000000E+00  0.00000000000E+00  0.49826835681E+02  0.49826835681E+02  0.00000000000E+00 0. -1.
         -1   -1    0    0    0  501 -0.00000000000E+00 -0.00000000000E+00 -0.57777945630E+03  0.57777945630E+03  0.00000000000E+00 0.  1.
         25    2    1    2    0    0 -0.97270901177E+02  0.85810594335E+02 -0.26598110766E+03  0.32127588423E+03  0.12508859996E+03 0.  0.
          5    1    3    3  502    0 -0.62061473122E+02  0.40209937086E+02 -0.25086056791E+03  0.26156636332E+03  0.41800000000E+01 0. -1.
         -5    1    3    3    0  502 -0.35209428055E+02  0.45600657249E+02 -0.15120539752E+02  0.59709520915E+02  0.41800000000E+01 0. -1.
        -11    1    1    2    0    0  0.58022495748E+02  0.41774923808E+01 -0.12430501806E+03  0.13724357533E+03  0.00000000000E+00 0.  1.
         11    1    1    2    0    0  0.39248405429E+02 -0.89988086716E+02 -0.13766649490E+03  0.16908683242E+03  0.00000000000E+00 0. -1.
</event>
<event>
 7    1  0.3056346E-009  0.1400977E+03  0.7561462E-02  0.1213197E+00
         -1   -1    0    0    0  501 -0.00000000000E+00  0.00000000000E+00  0.10292431240E+03  0.10292431240E+03  0.00000000000E+00 0.  1.
          1   -1    0    0  501    0  0.00000000000E+00 -0.00000000000E+00 -0.29106594715E+03  0.29106594715E+03  0.00000000000E+00 0. -1.
         25    2    1    2    0    0  0.12126099993E+03 -0.38176080932E+02 -0.14165963153E+03  0.22776516108E+03  0.12509146309E+03 0.  0.
          5    1    3    3  502    0  0.34736222703E+02 -0.29176694771E+02 -0.13259515155E+03  0.14020282202E+03  0.41800000000E+01 0.  1.
         -5    1    3    3    0  502  0.86524777229E+02 -0.89993861616E+01 -0.90644799786E+01  0.87562339068E+02  0.41800000000E+01 0.  1.
        -11    1    1    2    0    0  0.82037533695E+01  0.13432332416E+02  0.14127327692E+02  0.21149716575E+02  0.00000000000E+00 0.  1.
         11    1    1    2    0    0 -0.12946475330E+03  0.24743748517E+02 -0.60609330902E+02  0.14507538189E+03  0.00000000000E+00 0. -1.
</event>
<event>
 7    1  0.3056346E-009  0.1210140E+03  0.7561462E-02  0.1241434E+00
          1   -1    0    0  501    0  0.00000000000E+00  0.00000000000E+00  0.70427497775E+03  0.70427497775E+03  0.00000000000E+00 0. -1.
         -1   -1    0    0    0  501 -0.00000000000E+00 -0.00000000000E+00 -0.28402195734E+02  0.28402195734E+02  0.00000000000E+00 0.  1.
         25    2    1    2    0    0 -0.81142541610E+02 -0.13319654328E+02  0.46923057600E+03  0.49253040646E+03  0.12508933843E+03 0.  0.
          5    1    3    3  502    0 -0.26366963100E+02 -0.60531328439E+02  0.13250859816E+03  0.14810556861E+03  0.41800000000E+01 0. -1.
         -5    1    3    3    0  502 -0.54775578510E+02  0.47211674111E+02  0.33672197784E+03  0.34442483786E+03  0.41800000000E+01 0. -1.
        -11    1    1    2    0    0  0.73187604837E+02  0.34426609632E+02  0.88584047751E+02  0.11995311779E+03  0.00000000000E+00 0.  1.
         11    1    1    2    0    0  0.79549367722E+01 -0.21106955304E+02  0.11805815826E+03  0.12019364922E+03  0.00000000000E+00 0. -1.
</event>
<event>
 7    1  0.3056346E-009  0.1137025E+03  0.7561462E-02  0.1253863E+00
         -1   -1    0    0    0  501 -0.00000000000E+00  0.00000000000E+00  0.12732333478E+02  0.12732333478E+02  0.00000000000E+00 0.  1.
          1   -1    0    0  501    0  0.00000000000E+00 -0.00000000000E+00 -0.14608254521E+04  0.14608254521E+04  0.00000000000E+00 0. -1.
         25    2    1    2    0    0  0.68893697715E+02  0.43083083954E+02 -0.77200585716E+03  0.78628377467E+03  0.12508651853E+03 0.  0.
          5    1    3    3  502    0 -0.56460290072E+01 -0.10081695769E+02 -0.41385709678E+01  0.12966048079E+02  0.41800000000E+01 0. -1.
         -5    1    3    3    0  502  0.74539726722E+02  0.53164779723E+02 -0.76786728619E+03  0.77331772659E+03  0.41800000000E+01 0. -1.
        -11    1    1    2    0    0  0.19407964069E+02  0.85142794995E+01 -0.12209736357E+03  0.12392307378E+03  0.00000000000E+00 0.  1.
         11    1    1    2    0    0 -0.88301661784E+02 -0.51597363454E+02 -0.55398989787E+03  0.56335093710E+03  0.00000000000E+00 0. -1.
</event>
<event>
 7    1  0.3056346E-009  0.1675610E+03  0.7561462E-02  0.1180416E+00
          1   -1    0    0  501    0  0.00000000000E+00  0.00000000000E+00  0.60250957811E+03  0.60250957811E+03  0.00000000000E+00 0. -1.
         -1   -1    0    0    0  501 -0.00000000000E+00 -0.00000000000E+00 -0.65249985059E+02  0.65249985059E+02  0.00000000000E+00 0.  1.
         25    2    1    2    0    0 -0.38561758722E+02  0.12989474683E+03  0.43952009613E+03  0.47663972872E+03  0.12509141296E+03 0.  0.
          5    1    3    3  502    0  0.25108596431E+02  0.10292336052E+03  0.33389922477E+03  0.35032816680E+03  0.41800000000E+01 0.  1.
         -5    1    3    3    0  502 -0.63670355152E+02  0.26971386309E+02  0.10562087136E+03  0.12631156191E+03  0.41800000000E+01 0.  1.
        -11    1    1    2    0    0  0.43354073554E+02 -0.16592945143E+02  0.49564262160E+02  0.67908155664E+02  0.00000000000E+00 0. -1.
         11    1    1    2    0    0 -0.47923148328E+01 -0.11330180168E+03  0.48175234756E+02  0.12321167879E+03  0.00000000000E+00 0.  1.
</event>
<event>
 7    1  0.3056346E-009  0.1392426E+03  0.7561462E-02  0.1214352E+00
          1   -1    0    0  501    0  0.00000000000E+00  0.00000000000E+00  0.39659223590E+02  0.39659223590E+02  0.00000000000E+00 0. -1.
         -1   -1    0    0    0  501 -0.00000000000E+00 -0.00000000000E+00 -0.63777971155E+03  0.63777971155E+03  0.00000000000E+00 0.  1.
         25    2    1    2    0    0 -0.67359592007E+02 -0.88790485171E+02 -0.38152754974E+03  0.41669187579E+03  0.12509109977E+03 0.  0.
          5    1    3    3  502    0  0.22672799910E+02 -0.65153867050E+02 -0.11302057031E+03  0.13247718279E+03  0.41800000000E+01 0. -1.
         -5    1    3    3    0  502 -0.90032391917E+02 -0.23636618121E+02 -0.26850697943E+03  0.28421469299E+03  0.41800000000E+01 0. -1.
        -11    1    1    2    0    0  0.44559116268E+02  0.31597685416E+02 -0.26079495790E+02  0.60531551004E+02  0.00000000000E+00 0. -1.
         11    1    1    2    0    0  0.22800475739E+02  0.57192799755E+02 -0.19051344243E+03  0.20021550835E+03  0.00000000000E+00 0.  1.
</event>
<event>
 7    1  0.3056346E-009  0.1137343E+03  0.7561462E-02  0.1253807E+00
          2   -1    0    0  501    0  0.00000000000E+00  0.00000000000E+00  0.24045989668E+03  0.24045989668E+03  0.00000000000E+00 0. -1.
         -2   -1    0    0    0  501 -0.00000000000E+00 -0.00000000000E+00 -0.10865707808E+03  0.10865707808E+03  0.00000000000E+00 0.  1.
         25    2    1    2    0    0  0.54579604356E+02  0.84254361306E+02 -0.88850479661E+00  0.16039368548E+03  0.12509042446E+03 0.  0.
          5    1    3    3  502    0  0.23809857497E+02  0.56711754763E+02  0.60443416151E+02  0.86336616787E+02  0.41800000000E+01 0.  1.
         -5    1    3    3    0  502  0.30769746859E+02  0.27542606543E+02 -0.61331920947E+02  0.74057068697E+02  0.41800000000E+01 0.  1.
        -11    1    1    2    0    0 -0.43135794044E+02 -0.40831679956E+01  0.14981040907E+02  0.45845398628E+02  0.00000000000E+00 0.  1.
         11    1    1    2    0    0 -0.11443810311E+02 -0.80171193310E+02  0.11771028249E+03  0.14287789064E+03  0.00000000000E+00 0. -1.
</event>
<event>
 7    1  0.3056346E-009  0.1814461E+03  0.7561462E-02  0.1166411E+00
          2   -1    0    0  501    0  0.00000000000E+00  0.00000000000E+00  0.13654365582E+03  0.13654365582E+03  0.00000000000E+00 0.  1.
         -2   -1    0    0    0  501 -0.00000000000E+00 -0.00000000000E+00 -0.27875163810E+03  0.27875163810E+03  0.00000000000E+00 0. -1.
         25    2    1    2    0    0  0.11624310870E+03 -0.97364486441E+02 -0.15831202330E+02  0.19722853664E+03  0.12512459853E+03 0.  0.
          5    1    3    3  502    0  0.13755015480E+03 -0.64317112734E+02  0.60756572272E+01  0.15202342611E+03  0.41800000000E+01 0.  1.
         -5    1    3    3    0  502 -0.21307046099E+02 -0.33047373706E+02 -0.21906859557E+02  0.45205110530E+02  0.41800000000E+01 0.  1.
        -11    1    1    2    0    0 -0.99968230563E+02  0.33330699823E+02 -0.48686821280E+02  0.11608182131E+03  0.00000000000E+00 0.  1.
         11    1    1    2    0    0 -0.16274878138E+02  0.64033786618E+02 -0.77689958663E+02  0.10198493597E+03  0.00000000000E+00 0. -1.
</event>
<event>
 7    1  0.3056346E-009  0.8840479E+02  0.7561462E-02  0.1306761E+00
         -2   -1    0    0    0  501 -0.00000000000E+00  0.00000000000E+00  0.68859383033E+02  0.68859383033E+02  0.00000000000E+00 0.  1.
          2   -1    0    0  501    0  0.00000000000E+00 -0.00000000000E+00 -0.24731779050E+03  0.24731779050E+03  0.00000000000E+00 0. -1.
         25    2    1    2    0    0 -0.10797582733E+02 -0.59972499544E+02 -0.51111179214E+02  0.14823164006E+03  0.12508788103E+03 0.  0.
          5    1    3    3  502    0 -0.33456977392E+02 -0.20156680475E+02  0.33693673327E+02  0.51753233003E+02  0.41800000000E+01 0. -1.
         -5    1    3    3    0  502  0.22659394658E+02 -0.39815819069E+02 -0.84804852541E+02  0.96478407061E+02  0.41800000000E+01 0. -1.
        -11    1    1    2    0    0  0.18291501252E+02  0.73672241439E+02 -0.13145586520E+03  0.15179862539E+03  0.00000000000E+00 0. -1.
         11    1    1    2    0    0 -0.74939185188E+01 -0.13699741895E+02  0.41086369453E+01  0.16146908073E+02  0.00000000000E+00 0.  1.
</event>
<event>
 7    1  0.3056346E-009  0.8874930E+02  0.7561462E-02  0.1305909E+00
         -2   -1    0    0    0  501 -0.00000000000E+00  0.00000000000E+00  0.16854736008E+03  0.16854736008E+03  0.00000000000E+00 0.  1.
          2   -1    0    0  501    0  0.00000000000E+00 -0.00000000000E+00 -0.90097395865E+02  0.90097395865E+02  0.00000000000E+00 0. -1.
         25    2    1    2    0    0 -0.33357841832E+02 -0.42418126562E+02  0.20799904629E+02  0.13781241581E+03  0.12509029877E+03 0.  0.
          5    1    3    3  502    0  0.14807731670E+02 -0.26432679454E+00 -0.44012893617E+02  0.46625593727E+02  0.41800000000E+01 0. -1.
         -5    1    3    3    0  502 -0.48165573502E+02 -0.42153799768E+02  0.64812798246E+02  0.91186822086E+02  0.41800000000E+01 0. -1.
        -11    1    1    2    0    0 -0.26630988939E+02  0.22174927310E+02 -0.80137343348E+00  0.34663802049E+02  0.00000000000E+00 0. -1.
         11    1    1    2    0    0  0.59988830772E+02  0.20243199252E+02  0.58451433016E+02  0.86168538080E+02  0.00000000000E+00 0.  1.
</event>
<event>
 7    1  0.3056346E-009  0.1377464E+03  0.7561462E-02  0.1216394E+00
         -1   -1    0    0    0  501 -0.00000000000E+00  0.00000000000E+00  0.28556498685E+03  0.28556498685E+03  0.00000000000E+00 0.  1.
          1   -1    0    0  501    0  0.00000000000E+00 -0.00000000000E+00 -0.94537072255E+02  0.94537072255E+02  0.00000000000E+00 0. -1.
         25    2    1    2    0    0  0.11535095518E+03  0.27394995390E+02  0.13996109827E+03  0.22201947956E+03  0.12508881501E+03 0.  0.
          5    1    3    3  502    0  0.79300741342E+02 -0.20402040945E+02  0.13972613476E+03  0.16200529617E+03  0.41800000000E+01 0.  1.
         -5    1    3    3    0  502  0.36050213842E+02  0.47797036335E+02  0.23496351466E+00  0.60014183393E+02  0.41800000000E+01 0.  1.
        -11    1    1    2    0    0  0.22446163089E+01 -0.15085076923E+02  0.35736462421E+02  0.38854762829E+02  0.00000000000E+00 0.  1.
         11    1    1    2    0    0 -0.11759557149E+03 -0.12309918467E+02  0.15330353898E+02  0.11922781671E+03  0.00000000000E+00 0. -1.
</event>
<event>
 7    1  0.3056346E-009  0.1271846E+03  0.7561462E-02  0.1231694E+00
          2   -1    0    0  501    0  0.00000000000E+00  0.00000000000E+00  0.80035284192E+03  0.80035284192E+03  0.00000000000E+00 0. -1.
         -2   -1    0    0    0  501 -0.00000000000E+00 -0.00000000000E+00 -0.24087191778E+02  0.24087191778E+02  0.00000000000E+00 0.  1.
         25    2    1    2    0    0 -0.66871037512E+02 -0.47943863987E+02  0.49700145958E+03  0.51906658587E+03  0.12509724215E+03 0.  0.
          5    1    3    3  502    0  0.32000951600E+02 -0.22655664036E+02  0.22684062379E+03  0.23024222249E+03  0.41800000000E+01 0. -1.
         -5    1    3    3    0  502 -0.98871989112E+02 -0.25288199951E+02  0.27016083580E+03  0.28882436339E+03  0.41800000000E+01 0. -1.
        -11    1    1    2    0    0  0.43498922928E+02  0.68849894861E+02  0.24825766831E+03  0.26127444229E+03  0.00000000000E+00 0. -1.
         11    1    1    2    0    0  0.23372114584E+02 -0.20906030874E+02  0.31006522244E+02  0.44099005530E+02  0.00000000000E+00 0.  1.
</event>
<event>
 7    1  0.3056346E-009  0.1142929E+03  0.7561462E-02  0.1252821E+00
         -2   -1    0    0    0  501 -0.00000000000E+00  0.00000000000E+00  0.12226310164E+03  0.12226310164E+03  0.00000000000E+00 0. -1.
          2   -1    0    0  501    0  0.00000000000E+00 -0.00000000000E+00 -0.20417688914E+03  0.20417688914E+03  0.00000000000E+00 0.  1.
         25    2    1    2    0    0 -0.81941196640E+02  0.52876459525E+02  0.16971770954E+02  0.15952415359E+03  0.12509850075E+03 0.  0.
          5    1    3    3  502    0 -0.47884054311E+01 -0.14209393159E+02 -0.39636702881E+02  0.42583756244E+02  0.41800000000E+01 0.  1.
         -5    1    3    3    0  502 -0.77152791209E+02  0.67085852684E+02  0.56608473836E+02  0.11694039735E+03  0.41800000000E+01 0.  1.
        -11    1    1    2    0    0 -0.70530297108E+01 -0.91062663169E+01 -0.58846099764E+02  0.59962761542E+02  0.00000000000E+00 0.  1.
         11    1    1    2    0    0  0.88994226351E+02 -0.43770193208E+02 -0.40039458692E+02  0.10695307564E+03  0.00000000000E+00 0. -1.
</event>
<event>
 7    1  0.3056346E-009  0.1256567E+03  0.7561462E-02  0.1234047E+00
         -2   -1    0    0    0  501 -0.00000000000E+00  0.00000000000E+00  0.20459373637E+03  0.20459373637E+03  0.00000000000E+00 0.  1.
          2   -1    0    0  501    0  0.00000000000E+00 -0.00000000000E+00 -0.12071546162E+03  0.12071546162E+03  0.00000000000E+00 0. -1.
         25    2    1    2    0    0 -0.58869533242E+02 -0.37341566066E+02 -0.47538385113E+02  0.15089671073E+03  0.12509957933E+03 0.  0.
          5    1    3    3  502    0  0.73971852278E+01  0.36448804911E+02  0.63278238304E+01  0.37957179600E+02  0.41800000000E+01 0. -1.
         -5    1    3    3    0  502 -0.66266718470E+02 -0.73790370977E+02 -0.53866208943E+02  0.11293953113E+03  0.41800000000E+01 0. -1.
        -11    1    1    2    0    0  0.79745338912E+02  0.45954086006E+02  0.10753025646E+03  0.14154099460E+03  0.00000000000E+00 0.  1.
         11    1    1    2    0    0 -0.20875805670E+02 -0.86125199401E+01  0.23886403409E+02  0.32871492664E+02  0.00000000000E+00 0. -1.
</event>
<event>
 7    1  0.3056346E-009  0.1004464E+03  0.7561462E-02  0.1279360E+00
         -1   -1    0    0    0  501 -0.00000000000E+00  0.00000000000E+00  0.26417627445E+02  0.26417627445E+02  0.00000000000E+00 0.  1.
          1   -1    0    0  501    0  0.00000000000E+00 -0.00000000000E+00 -0.71880444443E+03  0.71880444443E+03  0.00000000000E+00 0. -1.
         25    2    1    2    0    0 -0.71814614906E+02  0.36970716962E+02 -0.43434293807E+03  0.45915849792E+03  0.12509422662E+03 0.  0.
          5    1    3    3  502    0  0.18545738861E+01  0.42692910066E+02 -0.32056617773E+03  0.32342892684E+03  0.41800000000E+01 0. -1.
         -5    1    3    3    0  502 -0.73669188792E+02 -0.57221931042E+01 -0.11377676034E+03  0.13572957108E+03  0.41800000000E+01 0. -1.
        -11    1    1    2    0    0  0.23140823613E+02 -0.24499321905E+02 -0.13324084257E+02  0.36238732215E+02  0.00000000000E+00 0.  1.
         11    1    1    2    0    0  0.48673791293E+02 -0.12471395057E+02 -0.24471979466E+03  0.24982484174E+03  0.00000000000E+00 0. -1.
</event>
<event>
 7    1  0.3056346E-009  0.1537772E+03  0.7561462E-02  0.1195907E+00
         -2   -1    0    0    0  501 -0.00000000000E+00  0.00000000000E+00  0.30799512581E+02  0.30799512581E+02  0.00000000000E+00 0.  1.
          2   -1    0    0  501    0  0.00000000000E+00 -0.00000000000E+00 -0.97273501450E+03  0.97273501450E+03  0.00000000000E+00 0. -1.
         25    2    1    2    0    0  0.10000176638E+03 -0.78990605999E+02 -0.41963346540E+03  0.45605228407E+03  0.12510624048E+03 0.  0.
          5    1    3    3  502    0  0.36913957086E+02 -0.86728619636E+02 -0.13710594752E+03  0.16643319061E+03  0.41800000000E+01 0. -1.
         -5    1    3    3    0  502  0.63087809292E+02  0.77380136372E+01 -0.28252751788E+03  0.28961909346E+03  0.41800000000E+01 0. -1.
        -11    1    1    2    0    0 -0.10457504736E+03  0.42745952129E+02 -0.47188987175E+03  0.48522490457E+03  0.00000000000E+00 0. -1.
         11    1    1    2    0    0  0.45732809857E+01  0.36244653870E+02 -0.50412164765E+02  0.62257338439E+02  0.00000000000E+00 0.  1.
</event>
<event>
 7    1  0.3056346E-009  0.3590323E+03  0.7561462E-02  0.1058968E+00
          2   -1    0    0  501    0  0.00000000000E+00  0.00000000000E+00  0.98983989154E+03  0.98983989154E+03  0.00000000000E+00 0. -1.
         -2   -1    0    0    0  501 -0.00000000000E+00 -0.00000000000E+00 -0.13526154756E+03  0.13526154756E+03  0.00000000000E+00 0.  1.
         25    2    1    2    0    0 -0.14287791598E+03 -0.31578441071E+03  0.37093543184E+03  0.52285308272E+03  0.12509339945E+03 0.  0.
          5    1    3    3  502    0 -0.15366563111E+03 -0.20559018342E+03  0.27621219323E+03  0.37708234882E+03  0.41800000000E+01 0. -1.
         -5    1    3    3    0  502  0.10787715137E+02 -0.11019422729E+03  0.94723238617E+02  0.14577073390E+03  0.41800000000E+01 0. -1.
        -11    1    1    2    0    0  0.23645988656E+02  0.11189071673E+03  0.10099963171E+03  0.15257650827E+03  0.00000000000E+00 0. -1.
         11    1    1    2    0    0  0.11923192732E+03  0.20389369399E+03  0.38264328042E+03  0.44967184812E+03  0.00000000000E+00 0.  1.
</event>
<event>
 7    1  0.3056346E-009  0.2274883E+03  0.7561462E-02  0.1128420E+00
         -2   -1    0    0    0  501 -0.00000000000E+00  0.00000000000E+00  0.66083407351E+02  0.66083407351E+02  0.00000000000E+00 0.  1.
          2   -1    0    0  501    0  0.00000000000E+00 -0.00000000000E+00 -0.93143465803E+03  0.93143465803E+03  0.00000000000E+00 0. -1.
         25    2    1    2    0    0  0.50870338728E+02 -0.20761181243E+03 -0.31707710925E+03  0.40233682505E+03  0.12508625646E+03 0.  0.
          5    1    3    3  502    0 -0.25966960652E+02 -0.15525885424E+02 -0.90376629931E+02  0.95397818641E+02  0.41800000000E+01 0. -1.
         -5    1    3    3    0  502  0.76837299380E+02 -0.19208592701E+03 -0.22670047932E+03  0.30693900641E+03  0.41800000000E+01 0. -1.
        -11    1    1    2    0    0  0.68651292661E+01  0.16653621560E+02 -0.88913810197E+01  0.20088050362E+02  0.00000000000E+00 0.  1.
         11    1    1    2    0    0 -0.57735467994E+02  0.19095819087E+03 -0.53938276040E+03  0.57509318996E+03  0.00000000000E+00 0. -1.
</event>
<event>
 7    1  0.3056346E-009  0.8509063E+02  0.7561462E-02  0.1315196E+00
          4   -1    0    0  501    0  0.00000000000E+00  0.00000000000E+00  0.31145033197E+03  0.31145033197E+03  0.00000000000E+00 0.  1.
         -4   -1    0    0    0  501 -0.00000000000E+00 -0.00000000000E+00 -0.42967625173E+02  0.42967625173E+02  0.00000000000E+00 0. -1.
         25    2    1    2    0    0 -0.26663754565E+02 -0.15629813962E+01  0.99712642152E+02  0.16218518649E+03  0.12509206607E+03 0.  0.
          5    1    3    3  502    0 -0.37852819270E+02 -0.38541337941E+02 -0.10461448098E+01  0.54192596136E+02  0.41800000000E+01 0. -1.
         -5    1    3    3    0  502  0.11189064705E+02  0.36978356544E+02  0.10075878696E+03  0.10799259036E+03  0.41800000000E+01 0. -1.
        -11    1    1    2    0    0  0.37929220121E+02 -0.26918586110E+02  0.14822725251E+03  0.15535299934E+03  0.00000000000E+00 0.  1.
         11    1    1    2    0    0 -0.11265465556E+02  0.28481567506E+02  0.20542812142E+02  0.36879771318E+02  0.00000000000E+00 0. -1.
</event>
<event>
 7    1  0.3056346E-009  0.8510114E+02  0.7561462E-02  0.1315168E+00
         -4   -1    0    0    0  501 -0.00000000000E+00  0.00000000000E+00  0.79402045781E+02  0.79402045781E+02  0.00000000000E+00 0.  1.
          4   -1    0    0  501    0  0.00000000000E+00 -0.00000000000E+00 -0.20969265522E+03  0.20969265522E+03  0.00000000000E+00 0. -1.
         25    2    1    2    0    0 -0.57287647127E+02  0.26630401772E+02 -0.10726721735E+03  0.17648009495E+03  0.12509162715E+03 0.  0.
          5    1    3    3  502    0 -0.20175616595E+02  0.42506377952E+02 -0.12391793599E+03  0.13261589245E+03  0.41800000000E+01 0. -1.
         -5    1    3    3    0  502 -0.37112030532E+02 -0.15875976181E+02  0.16650718634E+02  0.43864202499E+02  0.41800000000E+01 0. -1.
        -11    1    1    2    0    0  0.39124339136E+02 -0.42856208113E+02 -0.49764042662E+02  0.76444937234E+02  0.00000000000E+00 0. -1.
         11    1    1    2    0    0  0.18163307991E+02  0.16225806342E+02  0.26740650579E+02  0.36169668812E+02  0.00000000000E+00 0.  1.
</event>
<event>
 7    1  0.3056346E-009  0.1093034E+03  0.7561462E-02  0.1261865E+00
          1   -1    0    0  501    0  0.00000000000E+00  0.00000000000E+00  0.25578280078E+02  0.25578280078E+02  0.00000000000E+00 0. -1.
         -1   -1    0    0    0  501 -0.00000000000E+00 -0.00000000000E+00 -0.50046160454E+03  0.50046160454E+03  0.00000000000E+00 0.  1.
         25    2    1    2    0    0  0.25061786863E+02  0.13886698574E+02 -0.31316347668E+03  0.33843319132E+03  0.12507888832E+03 0.  0.
          5    1    3    3  502    0 -0.29843756600E+02  0.50349565433E+02 -0.10812768292E+03  0.12302356181E+03  0.41800000000E+01 0. -1.
         -5    1    3    3    0  502  0.54905543463E+02 -0.36462866859E+02 -0.20503579376E+03  0.21540962951E+03  0.41800000000E+01 0. -1.
        -11    1    1    2    0    0 -0.47364634077E+02 -0.38231337014E+02 -0.89985470799E+02  0.10863898309E+03  0.00000000000E+00 0. -1.
         11    1    1    2    0    0  0.22302847214E+02  0.24344638440E+02 -0.71734376982E+02  0.78967710209E+02  0.00000000000E+00 0.  1.
</event>
<event>
 7    1  0.3056346E-009  0.1203102E+03  0.7561462E-02  0.1242586E+00
          1   -1    0    0  501    0  0.00000000000E+00  0.00000000000E+00  0.92557526866E+03  0.92557526866E+03  0.00000000000E+00 0. -1.
         -1   -1    0    0    0  501 -0.00000000000E+00 -0.00000000000E+00 -0.27853611016E+02  0.27853611016E+02  0.00000000000E+00 0.  1.
         25    2    1    2    0    0 -0.89034685749E+01 -0.11923440211E+03  0.53687518861E+03  0.56407335863E+03  0.12509065260E+03 0.  0.
          5    1    3    3  502    0  0.29070538488E+00 -0.44370016218E+02  0.35333738666E+02  0.56874672192E+02  0.41800000000E+01 0. -1.
         -5    1    3    3    0  502 -0.91941739597E+01 -0.74864385897E+02  0.50154144995E+03  0.50719868644E+03  0.41800000000E+01 0. -1.
        -11    1    1    2    0    0 -0.37013394781E+01  0.50081008579E+02  0.26926392049E+03  0.27390667428E+03  0.00000000000E+00 0. -1.
         11    1    1    2    0    0  0.12604808053E+02  0.69153393536E+02  0.91582548537E+02  0.11544884677E+03  0.00000000000E+00 0.  1.
</event>
<event>
 7    1  0.3056346E-009  0.1128968E+03  0.7561462E-02  0.1255298E+00
          2   -1    0    0  501    0  0.00000000000E+00  0.00000000000E+00  0.10112759843E+03  0.10112759843E+03  0.00000000000E+00 0. -1.
         -2   -1    0    0    0  501 -0.00000000000E+00 -0.00000000000E+00 -0.14962959333E+03  0.14962959333E+03  0.00000000000E+00 0.  1.
         25    2    1    2    0    0 -0.30613898490E+02  0.21053735924E+02  0.19638878845E+02  0.13195945319E+03  0.12508853324E+03 0.  0.
          5    1    3    3  502    0 -0.68327929550E+02  0.48067734954E+02  0.16632675874E+02  0.85283828519E+02  0.41800000000E+01 0.  1.
         -5    1    3    3    0  502  0.37714031060E+02 -0.27013999030E+02  0.30062029715E+01  0.46675624674E+02  0.41800000000E+01 0.  1.
        -11    1    1    2    0    0  0.40823643087E+02 -0.50189462127E+02 -0.35203408437E+02  0.73653458229E+02  0.00000000000E+00 0. -1.
         11    1    1    2    0    0 -0.10209744597E+02  0.29135726203E+02 -0.32937465304E+02  0.45144280333E+02  0.00000000000E+00 0.  1.
</event>
<event>
 7    1  0.3056346E-009  0.8127675E+02  0.7561462E-02  0.1325467E+00
         -2   -1    0    0    0  501 -0.00000000000E+00  0.00000000000E+00  0.65975594939E+02  0.65975594939E+02  0.00000000000E+00 0.  1.
          2   -1    0    0  501    0  0.00000000000E+00 -0.00000000000E+00 -0.21978283850E+03  0.21978283850E+03  0.00000000000E+00 0. -1.
         25    2    1    2    0    0 -0.33182823544E+02 -0.45496683992E+02 -0.57864877243E+02  0.14888517638E+03  0.12508958267E+03 0.  0.
          5    1    3    3  502    0 -0.13626764962E+02  0.12381006657E+02  0.33760515966E+02  0.38681040414E+02  0.41800000000E+01 0.  1.
         -5    1    3    3    0  502 -0.19556058582E+02 -0.57877690649E+02 -0.91625393210E+02  0.11020413596E+03  0.41800000000E+01 0.  1.
        -11    1    1    2    0    0  0.10964449922E+02  0.56563588361E+02 -0.96102580452E+02  0.11205072360E+03  0.00000000000E+00 0. -1.
         11    1    1    2    0    0  0.22218373622E+02 -0.11066904369E+02  0.16021413707E+00  0.24822533458E+02  0.00000000000E+00 0.  1.
</event>
<event>
 7    1  0.3056346E-009  0.1148105E+03  0.7561462E-02  0.1251912E+00
          2   -1    0    0  501    0  0.00000000000E+00  0.00000000000E+00  0.47647129313E+03  0.47647129313E+03  0.00000000000E+00 0. -1.
         -2   -1    0    0    0  501 -0.00000000000E+00 -0.00000000000E+00 -0.32881608087E+02  0.32881608087E+02  0.00000000000E+00 0.  1.
         25    2    1    2    0    0 -0.18127285966E+02 -0.59377238335E+02  0.23394137819E+03  0.27245221849E+03  0.12508951995E+03 0.  0.
          5    1    3    3  502    0 -0.45629593481E+02  0.21542283171E+02  0.11756153098E+03  0.12800123332E+03  0.41800000000E+01 0.  1.
         -5    1    3    3    0  502  0.27502307515E+02 -0.80919521507E+02  0.11637984722E+03  0.14445098517E+03  0.41800000000E+01 0.  1.
        -11    1    1    2    0    0  0.18030961903E+02  0.75335243984E+02  0.20661224950E+03  0.22065614928E+03  0.00000000000E+00 0. -1.
         11    1    1    2    0    0  0.96324063346E-01 -0.15958005649E+02  0.30360573539E+01  0.16244533446E+02  0.00000000000E+00 0.  1.
</event>
<event>
 7    1  0.3056346E-009  0.6471364E+02  0.7561462E-02  0.1379052E+00
          1   -1    0    0  501    0  0.00000000000E+00  0.00000000000E+00  0.12852737799E+03  0.12852737799E+03  0.00000000000E+00 0. -1.
         -1   -1    0    0    0  501 -0.00000000000E+00 -0.00000000000E+00 -0.10745387662E+03  0.10745387662E+03  0.00000000000E+00 0.  1.
         25    2    1    2    0    0 -0.14284048003E+01  0.82407685061E+01  0.51030854443E+02  0.13535837700E+03  0.12509113283E+03 0.  0.
          5    1    3    3  502    0 -0.41434272571E+02  0.99143431095E+01  0.76540398184E+02  0.87698335771E+02  0.41800000000E+01 0.  1.
         -5    1    3    3    0  502  0.40005867771E+02 -0.16735746034E+01 -0.25509543741E+02  0.47660041229E+02  0.41800000000E+01 0.  1.
        -11    1    1    2    0    0 -0.11406508983E+02  0.15575639161E+02 -0.58316208934E+02  0.61428732747E+02  0.00000000000E+00 0.  1.
         11    1    1    2    0    0  0.12834913783E+02 -0.23816407667E+02  0.28358855864E+02  0.39194144868E+02  0.00000000000E+00 0. -1.
</event>
<event>
 7    1  0.3056346E-009  0.2617904E+03  0.7561462E-02  0.1106072E+00
         -2   -1    0    0    0  501 -0.00000000000E+00  0.00000000000E+00  0.78132481598E+03  0.78132481598E+03  0.00000000000E+00 0.  1.
          2   -1    0    0  501    0  0.00000000000E+00 -0.00000000000E+00 -0.99383735608E+02  0.99383735608E+02  0.00000000000E+00 0. -1.
         25    2    1    2    0    0 -0.10766083724E+03 -0.21705574853E+03  0.21683790010E+03  0.34838580612E+03  0.12509972479E+03 0.  0.
          5    1    3    3  502    0  0.27553032213E+02 -0.36491190831E+02  0.49260857508E+02  0.67341525635E+02  0.41800000000E+01 0.  1.
         -5    1    3    3    0  502 -0.13521386946E+03 -0.18056455770E+03  0.16757704259E+03  0.28104428048E+03  0.41800000000E+01 0.  1.
        -11    1    1    2    0    0 -0.80563901994E+01  0.38060229496E+02  0.35120065958E+02  0.52410929444E+02  0.00000000000E+00 0.  1.
         11    1    1    2    0    0  0.11571722744E+03  0.17899551903E+03  0.42998311432E+03  0.47991181603E+03  0.00000000000E+00 0. -1.
</event>
<event>
 7    1  0.3056346E-009  0.1546339E+03  0.7561462E-02  0.1194892E+00
         -1   -1    0    0    0  501 -0.00000000000E+00  0.00000000000E+00  0.38424531694E+02  0.38424531694E+02  0.00000000000E+00 0.  1.
          1   -1    0    0  501    0  0.00000000000E+00 -0.00000000000E+00 -0.73351240765E+03  0.73351240765E+03  0.00000000000E+00 0. -1.
         25    2    1    2    0    0 -0.81465508610E+02 -0.96801623498E+02 -0.31775780672E+03  0.36417092525E+03  0.12507300133E+03 0.  0.
          5    1    3    3  502    0 -0.57913488418E+02 -0.12170253745E+03 -0.29018205827E+03  0.31998215435E+03  0.41800000000E+01 0. -1.
         -5    1    3    3    0  502 -0.23552020193E+02  0.24900913952E+02 -0.27575748446E+02  0.44188770895E+02  0.41800000000E+01 0. -1.
        -11    1    1    2    0    0  0.74568379135E+02  0.10525018795E+03 -0.37506690670E+03  0.39662731843E+03  0.00000000000E+00 0. -1.
         11    1    1    2    0    0  0.68971294754E+01 -0.84485644500E+01 -0.22631625398E+01  0.11138695657E+02  0.00000000000E+00 0.  1.
</event>
<event>
 7    1  0.3056346E-009  0.7630992E+02  0.7561462E-02  0.1339862E+00
          1   -1    0    0  501    0  0.00000000000E+00  0.00000000000E+00  0.41357513692E+03  0.41357513692E+03  0.00000000000E+00 0.  1.
         -1   -1    0    0    0  501 -0.00000000000E+00 -0.00000000000E+00 -0.38213294505E+02  0.38213294505E+02  0.00000000000E+00 0. -1.
         25    2    1    2    0    0 -0.16507398560E+02  0.60781750052E+02  0.22377896401E+03  0.26399092169E+03  0.12508903490E+03 0.  0.
          5    1    3    3  502    0 -0.18861022047E+02  0.42439240851E+02  0.23656903518E+03  0.24112073350E+03  0.41800000000E+01 0.  1.
         -5    1    3    3    0  502  0.23536234873E+01  0.18342509201E+02 -0.12790071169E+02  0.22870188189E+02  0.41800000000E+01 0.  1.
        -11    1    1    2    0    0 -0.22888766753E+02 -0.21831101871E+02  0.11984746642E+03  0.12395123178E+03  0.00000000000E+00 0.  1.
         11    1    1    2    0    0  0.39396165313E+02 -0.38950648181E+02  0.31735411980E+02  0.63846277954E+02  0.00000000000E+00 0. -1.
</event>
<event>
 7    1  0.3056346E-009  0.1361110E+03  0.7561462E-02  0.1218660E+00
         -1   -1    0    0    0  501 -0.00000000000E+00  0.00000000000E+00  0.15885150130E+03  0.15885150130E+03  0.00000000000E+00 0.  1.
          1   -1    0    0  501    0  0.00000000000E+00 -0.00000000000E+00 -0.16518424240E+03  0.16518424240E+03  0.00000000000E+00 0. -1.
         25    2    1    2    0    0 -0.81514774081E+02 -0.16632447578E+02 -0.88862592333E+02  0.17454223596E+03  0.12508850912E+03 0.  0.
          5    1    3    3  502    0  0.45448168283E+00 -0.57443158868E+02 -0.24782836613E+02  0.62702348001E+02  0.41800000000E+01 0.  1.
         -5    1    3    3    0  502 -0.81969255764E+02  0.40810711290E+02 -0.64079755720E+02  0.11183988796E+03  0.41800000000E+01 0.  1.
        -11    1    1    2    0    0 -0.45473944774E+01 -0.26367391667E+02  0.28755393516E+02  0.39278375681E+02  0.00000000000E+00 0.  1.
         11    1    1    2    0    0  0.86062168559E+02  0.42999839244E+02  0.53774457710E+02  0.11021513206E+03  0.00000000000E+00 0. -1.
</event>
<event>
 7    1  0.3056346E-009  0.1091181E+03  0.7561462E-02  0.1262212E+00
         -1   -1    0    0    0  501 -0.00000000000E+00  0.00000000000E+00  0.56488779300E+02  0.56488779300E+02  0.00000000000E+00 0.  1.
          1   -1    0    0  501    0  0.00000000000E+00 -0.00000000000E+00 -0.28646506161E+03  0.28646506161E+03  0.00000000000E+00 0. -1.
         25    2    1    2    0    0  0.59516302406E+02 -0.17828310655E+02 -0.15912461813E+03  0.21172544555E+03  0.12508789424E+03 0.  0.
          5    1    3    3  502    0  0.80343333486E+02  0.21176464507E+01 -0.16352461506E+03  0.18225615982E+03  0.41800000000E+01 0.  1.
         -5    1    3    3    0  502 -0.20827031079E+02 -0.19945957106E+02  0.43999969264E+01  0.29469285729E+02  0.41800000000E+01 0.  1.
        -11    1    1    2    0    0 -0.21181618416E+02 -0.36455464525E+02 -0.16128808538E+02  0.45142001699E+02  0.00000000000E+00 0. -1.
         11    1    1    2    0    0 -0.38334683990E+02  0.54283775180E+02 -0.54722855642E+02  0.86086393664E+02  0.00000000000E+00 0.  1.
</event>
<event>
 7    1  0.3056346E-009  0.2594966E+03  0.7561462E-02  0.1107446E+00
         -1   -1    0    0    0  501 -0.00000000000E+00  0.00000000000E+00  0.56709768433E+03  0.56709768433E+03  0.00000000000E+00 0.  1.
          1   -1    0    0  501    0  0.00000000000E+00 -0.00000000000E+00 -0.18109261920E+03  0.18109261920E+03  0.00000000000E+00 0. -1.
         25    2    1    2    0    0  0.20800988259E+03  0.13782690451E+03 -0.17260193067E+01  0.27912932956E+03  0.12508331869E+03 0.  0.
          5    1    3    3  502    0  0.16613599145E+03  0.13291884905E+03 -0.46138825449E+02  0.21774951596E+03  0.41800000000E+01 0.  1.
         -5    1    3    3    0  502  0.41873891135E+02  0.49080554603E+01  0.44412806142E+02  0.61379813592E+02  0.41800000000E+01 0.  1.
        -11    1    1    2    0    0 -0.15341679318E+03 -0.14202806307E+03  0.30062224622E+03  0.36617266153E+03  0.00000000000E+00 0.  1.
         11    1    1    2    0    0 -0.54593089408E+02  0.42011585558E+01  0.87108838214E+02  0.10288831245E+03  0.00000000000E+00 0. -1.
</event>
<event>
 7    1  0.3056346E-009  0.1023072E+03  0.7561462E-02  0.1275518E+00
          1   -1    0    0  501    0  0.00000000000E+00  0.00000000000E+00  0.91390300662E+02  0.91390300662E+02  0.00000000000E+00 0. -1.
         -1   -1    0    0    0  501 -0.00000000000E+00 -0.00000000000E+00 -0.14763127000E+03  0.14763127000E+03  0.00000000000E+00 0.  1.
         25    2    1    2    0    0 -0.27507479089E+02 -0.27183996739E+02 -0.11705906194E+02  0.13145969656E+03  0.12509593317E+03 0.  0.
          5    1    3    3  502    0  0.20705391827E+02 -0.59924305151E+02  0.17826782845E+02  0.65991682697E+02  0.41800000000E+01 0.  1.
         -5    1    3    3    0  502 -0.48212870917E+02  0.32740308412E+02 -0.29532689039E+02  0.65468013860E+02  0.41800000000E+01 0.  1.
        -11    1    1    2    0    0  0.14671755982E+02 -0.24956940115E+02  0.10381481169E+02  0.30755234267E+02  0.00000000000E+00 0. -1.
         11    1    1    2    0    0  0.12835723107E+02  0.52140936855E+02 -0.54916544315E+02  0.76806639838E+02  0.00000000000E+00 0.  1.
</event>
<event>
 7    1  0.3056346E-009  0.7621518E+02  0.7561462E-02  0.1340149E+00
          1   -1    0    0  501    0  0.00000000000E+00  0.00000000000E+00  0.40239839455E+03  0.40239839455E+03  0.00000000000E+00 0. -1.
         -1   -1    0    0    0  501 -0.00000000000E+00 -0.00000000000E+00 -0.37285343852E+02  0.37285343852E+02  0.00000000000E+00 0.  1.
         25    2    1    2    0    0  0.12489617041E+02  0.71043853666E+01  0.33294900383E+03  0.35596173087E+03  0.12508897580E+03 0.  0.
          5    1    3    3  502    0  0.48223166702E+02 -0.18132162798E+02  0.28980087149E+03  0.29437436480E+03  0.41800000000E+01 0. -1.
         -5    1    3    3    0  502 -0.35733549661E+02  0.25236548165E+02  0.43148132336E+02  0.61587366064E+02  0.41800000000E+01 0. -1.
        -11    1    1    2    0    0  0.11463648742E+02  0.18480957060E+02  0.42020164425E+02  0.47314429455E+02  0.00000000000E+00 0. -1.
         11    1    1    2    0    0 -0.23953265783E+02 -0.25585342426E+02 -0.98561175516E+01  0.36407578084E+02  0.00000000000E+00 0.  1.
</event>
<event>
 7    1  0.3056346E-009  0.1480703E+03  0.7561462E-02  0.1202864E+00
          2   -1    0    0  501    0  0.00000000000E+00  0.00000000000E+00  0.19489712542E+04  0.19489712542E+04  0.00000000000E+00 0. -1.
         -2   -1    0    0    0  501 -0.00000000000E+00 -0.00000000000E+00 -0.23316617734E+02  0.23316617734E+02  0.00000000000E+00 0.  1.
         25    2    1    2    0    0 -0.12921934937E+03  0.38693432802E+02  0.15712989700E+04  0.15820310963E+04  0.12508842697E+03 0.  0.
          5    1    3    3  502    0 -0.34466817379E+02  0.41885758679E+02  0.10960834290E+04  0.10974327925E+04  0.41800000000E+01 0. -1.
         -5    1    3    3    0  502 -0.94752531995E+02 -0.31923258774E+01  0.47521554100E+03  0.48459830383E+03  0.41800000000E+01 0. -1.
        -11    1    1    2    0    0  0.52554774319E+02 -0.45977387589E+02  0.84450026857E+02  0.10957979517E+03  0.00000000000E+00 0.  1.
         11    1    1    2    0    0  0.76664575055E+02  0.72839547870E+01  0.26990563956E+03  0.28067698041E+03  0.00000000000E+00 0. -1.
</event>
<event>
 7    1  0.3056346E-009  0.9867023E+02  0.7561462E-02  0.1283117E+00
          2   -1    0    0  501    0  0.00000000000E+00  0.00000000000E+00  0.37292118761E+03  0.37292118761E+03  0.00000000000E+00 0. -1.
         -2   -1    0    0    0  501 -0.00000000000E+00 -0.00000000000E+00 -0.43002183718E+02  0.43002183718E+02  0.00000000000E+00 0.  1.
         25    2    1    2    0    0  0.17404564020E+02  0.44247492561E+02  0.10651778083E+03  0.17104078436E+03  0.12509257706E+03 0.  0.
          5    1    3    3  502    0 -0.29016473169E+02  0.46247652351E+02  0.18157845579E-02  0.54756492459E+02  0.41800000000E+01 0. -1.
         -5    1    3    3    0  502  0.46421037189E+02 -0.20001597893E+01  0.10651596505E+03  0.11628429190E+03  0.41800000000E+01 0. -1.
        -11    1    1    2    0    0 -0.45067445739E+02 -0.50381807188E+02  0.12065046202E+03  0.13829654785E+03  0.00000000000E+00 0.  1.
         11    1    1    2    0    0  0.27662881720E+02  0.61343146268E+01  0.10275076104E+03  0.10658603912E+03  0.00000000000E+00 0. -1.
</event>
<event>
 7    1  0.3373916E-009  0.1893086E+03  0.7561462E-02  0.1159086E+00
         -2   -1    0    0    0  501 -0.00000000000E+00  0.00000000000E+00  0.92370688151E+02  0.92370688151E+02  0.00000000000E+00 0.  1.
          2   -1    0    0  501    0  0.00000000000E+00 -0.00000000000E+00 -0.44522509227E+03  0.44522509227E+03  0.00000000000E+00 0. -1.
         25    2    1    2    0    0  0.60620447827E+02 -0.15965644344E+03 -0.17529630914E+03  0.27484768064E+03  0.12508969954E+03 0.  0.
          5    1    3    3  502    0  0.55694123309E+02 -0.19215783767E+02 -0.97967843804E+02  0.11439515959E+03  0.41800000000E+01 0. -1.
         -5    1    3    3    0  502  0.49263245175E+01 -0.14044065967E+03 -0.77328465338E+02  0.16045252106E+03  0.41800000000E+01 0. -1.
        -11    1    1    2    0    0 -0.10871284275E+02  0.10297314338E+03 -0.15038192832E+03  0.18258252229E+03  0.00000000000E+00 0. -1.
         11    1    1    2    0    0 -0.49749163552E+02  0.56683300062E+02 -0.27176166656E+02  0.80165577489E+02  0.00000000000E+00 0.  1.
</event>
<event>
 7    1  0.3056346E-009  0.1112153E+03  0.7561462E-02  0.1258336E+00
         -2   -1    0    0    0  501 -0.00000000000E+00  0.00000000000E+00  0.35076023833E+02  0.35076023833E+02  0.00000000000E+00 0.  1.
          2   -1    0    0  501    0  0.00000000000E+00 -0.00000000000E+00 -0.53423201395E+03  0.53423201395E+03  0.00000000000E+00 0. -1.
         25    2    1    2    0    0 -0.14731785130E+02  0.48358533041E+02 -0.13739811568E+03  0.19256505126E+03  0.12508990192E+03 0.  0.
          5    1    3    3  502    0 -0.42674314890E+02  0.70068073081E+02 -0.45288024963E+02  0.93803569344E+02  0.41800000000E+01 0. -1.
         -5    1    3    3    0  502  0.27942529759E+02 -0.21709540040E+02 -0.92110090719E+02  0.98761481916E+02  0.41800000000E+01 0. -1.
        -11    1    1    2    0    0  0.41861151406E+01  0.27625286039E+02 -0.11441756710E+03  0.11777970814E+03  0.00000000000E+00 0. -1.
         11    1    1    2    0    0  0.10545669990E+02 -0.75983819081E+02 -0.24734030733E+03  0.25896327838E+03  0.00000000000E+00 0.  1.
</event>
<event>
 7    1  0.3056346E-009  0.1652720E+03  0.7561462E-02  0.1182870E+00
          1   -1    0    0  501    0  0.00000000000E+00  0.00000000000E+00  0.28227503803E+03  0.28227503803E+03  0.00000000000E+00 0. -1.
         -1   -1    0    0    0  501 -0.00000000000E+00 -0.00000000000E+00 -0.14485778657E+03  0.14485778657E+03  0.00000000000E+00 0.  1.
         25    2    1    2    0    0  0.54764490851E+02  0.14793009131E+03  0.19820964378E+01  0.20132980662E+03  0.12508917200E+03 0.  0.
          5    1    3    3  502    0  0.62378277086E+02  0.13335467723E+03  0.45883507447E+02  0.15426369646E+03  0.41800000000E+01 0.  1.
         -5    1    3    3    0  502 -0.76137862353E+01  0.14575414085E+02 -0.43901411009E+02  0.47066110155E+02  0.41800000000E+01 0.  1.
        -11    1    1    2    0    0  0.80743666809E+01 -0.44850984606E+02  0.81936424577E+02  0.93757047148E+02  0.00000000000E+00 0. -1.
         11    1    1    2    0    0 -0.62838857532E+02 -0.10307910670E+03  0.53498730451E+02  0.13204597084E+03  0.00000000000E+00 0.  1.
</event>
<event>
 7    1  0.3056346E-009  0.1380235E+03  0.7561462E-02  0.1216013E+00
          2   -1    0    0  501    0  0.00000000000E+00  0.00000000000E+00  0.97419381645E+03  0.97419381645E+03  0.00000000000E+00 0. -1.
         -2   -1    0    0    0  501 -0.00000000000E+00 -0.00000000000E+00 -0.27520326106E+02  0.27520326106E+02  0.00000000000E+00 0.  1.
         25    2    1    2    0    0  0.10261792712E+03 -0.67710260531E+01  0.70713112961E+03  0.72543368047E+03  0.12507319670E+03 0.  0.
          5    1    3    3  502    0  0.69143560484E+02 -0.56386219236E+02  0.27459285373E+03  0.28875412619E+03  0.41800000000E+01 0.  1.
         -5    1    3    3    0  502  0.33474366637E+02  0.49615193182E+02  0.43253827588E+03  0.43667955427E+03  0.41800000000E+01 0.  1.
        -11    1    1    2    0    0 -0.43400470368E+02 -0.33749018929E+02  0.52795765684E+02  0.76223290279E+02  0.00000000000E+00 0.  1.
         11    1    1    2    0    0 -0.59217456753E+02  0.40520044982E+02  0.18674659505E+03  0.20005717181E+03  0.00000000000E+00 0. -1.
</event>
<event>
 7    1  0.3056346E-009  0.9698824E+02  0.7561462E-02  0.1286760E+00
          2   -1    0    0  501    0  0.00000000000E+00  0.00000000000E+00  0.28677294092E+03  0.28677294092E+03  0.00000000000E+00 0. -1.
         -2   -1    0    0    0  501 -0.00000000000E+00 -0.00000000000E+00 -0.34624975566E+02  0.34624975566E+02  0.00000000000E+00 0.  1.
         25    2    1    2    0    0  0.14599888168E+02  0.37878952380E+02  0.14920049007E+03  0.19888782564E+03  0.12509040403E+03 0.  0.
          5    1    3    3  502    0  0.66550319114E+02 -0.60643186950E+00  0.78151048377E+02  0.10273447083E+03  0.41800000000E+01 0. -1.
         -5    1    3    3    0  502 -0.51950430945E+02  0.38485384250E+02  0.71049441697E+02  0.96153354813E+02  0.41800000000E+01 0. -1.
        -11    1    1    2    0    0 -0.29269048288E+02 -0.98729027093E+01  0.71643902704E+02  0.78019229619E+02  0.00000000000E+00 0. -1.
         11    1    1    2    0    0  0.14669160120E+02 -0.28006049671E+02  0.31303572580E+02  0.44490861231E+02  0.00000000000E+00 0.  1.
</event>
<event>
 7    1  0.3056346E-009  0.1770480E+03  0.7561462E-02  0.1170691E+00
          1   -1    0    0  501    0  0.00000000000E+00  0.00000000000E+00  0.48821054995E+02  0.48821054995E+02  0.00000000000E+00 0. -1.
         -1   -1    0    0    0  501 -0.00000000000E+00 -0.00000000000E+00 -0.67898444977E+03  0.67898444977E+03  0.00000000000E+00 0.  1.
         25    2    1    2    0    0  0.74469546751E+01 -0.14497048271E+03 -0.36161541740E+03  0.40923952366E+03  0.12505750530E+03 0.  0.
          5    1    3    3  502    0 -0.53916178434E+02 -0.59845306950E+02 -0.10845673940E+03  0.13516194650E+03  0.41800000000E+01 0.  1.
         -5    1    3    3    0  502  0.61363133109E+02 -0.85125175760E+02 -0.25315867801E+03  0.27407757716E+03  0.41800000000E+01 0.  1.
        -11    1    1    2    0    0  0.30796357321E+02  0.11713603791E+03 -0.21767067107E+03  0.24909794869E+03  0.00000000000E+00 0.  1.
         11    1    1    2    0    0 -0.38243311996E+02  0.27834444801E+02 -0.50877306302E+02  0.69468032406E+02  0.00000000000E+00 0. -1.
</event>
<event>
 7    1  0.3056346E-009  0.9674847E+02  0.7561462E-02  0.1287286E+00
          1   -1    0    0  501    0  0.00000000000E+00  0.00000000000E+00  0.49042974994E+03  0.49042974994E+03  0.00000000000E+00 0. -1.
         -1   -1    0    0    0  501 -0.00000000000E+00 -0.00000000000E+00 -0.32531671605E+02  0.32531671605E+02  0.00000000000E+00 0.  1.
         25    2    1    2    0    0 -0.48398180093E+02  0.29969535737E+02  0.19310609606E+03  0.23701946136E+03  0.12509078230E+03 0.  0.
          5    1    3    3  502    0 -0.65300532120E+02  0.66829638643E+02  0.10952071313E+03  0.14402298116E+03  0.41800000000E+01 0. -1.
         -5    1    3    3    0  502  0.16902352027E+02 -0.36860102906E+02  0.83585382926E+02  0.92996480198E+02  0.41800000000E+01 0. -1.
        -11    1    1    2    0    0  0.43747463123E+02 -0.19801106041E+02  0.26954728725E+03  0.27379127888E+03  0.00000000000E+00 0. -1.
         11    1    1    2    0    0  0.46507169697E+01 -0.10168429696E+02 -0.47553049722E+01  0.12150681306E+02  0.00000000000E+00 0.  1.
</event>
<event>
 7    1  0.3056346E-009  0.1547322E+03  0.7561462E-02  0.1194776E+00
          1   -1    0    0  501    0  0.00000000000E+00  0.00000000000E+00  0.50464358594E+03  0.50464358594E+03  0.00000000000E+00 0. -1.
         -1   -1    0    0    0  501 -0.00000000000E+00 -0.00000000000E+00 -0.65242105771E+02  0.65242105771E+02  0.00000000000E+00 0.  1.
         25    2    1    2    0    0 -0.13778321188E+03  0.43722145021E+02  0.24884362027E+03  0.31379416357E+03  0.12509112798E+03 0.  0.
          5    1    3    3  502    0 -0.32605052642E+01 -0.12083643902E+02 -0.10138990670E+02  0.16640819581E+02  0.41800000000E+01 0.  1.
         -5    1    3    3    0  502 -0.13452270662E+03  0.55805788923E+02  0.25898261094E+03  0.29715334399E+03  0.41800000000E+01 0.  1.
        -11    1    1    2    0    0  0.46584366372E+02 -0.36323317163E+02  0.13908244345E+03  0.15110728850E+03  0.00000000000E+00 0. -1.
         11    1    1    2    0    0  0.91198845509E+02 -0.73988278582E+01  0.51475416444E+02  0.10498423965E+03  0.00000000000E+00 0.  1.
</event>
<event>
 7    1  0.3056346E-009  0.1068487E+03  0.7561462E-02  0.1266519E+00
         -1   -1    0    0    0  501 -0.00000000000E+00  0.00000000000E+00  0.43516225270E+02  0.43516225270E+02  0.00000000000E+00 0.  1.
          1   -1    0    0  501    0  0.00000000000E+00 -0.00000000000E+00 -0.38002128854E+03  0.38002128854E+03  0.00000000000E+00 0. -1.
         25    2    1    2    0    0  0.55979159876E+02 -0.35666417130E+02 -0.15806403869E+03  0.21222246114E+03  0.12509345719E+03 0.  0.
          5    1    3    3  502    0 -0.21264618597E+02  0.11141006834E+02 -0.10412841626E+03  0.10694159859E+03  0.41800000000E+01 0. -1.
         -5    1    3    3    0  502  0.77243778473E+02 -0.46807423965E+02 -0.53935622435E+02  0.10528086255E+03  0.41800000000E+01 0. -1.
        -11    1    1    2    0    0 -0.44988181557E+00  0.42911738764E+02 -0.13123378434E+03  0.13807217631E+03  0.00000000000E+00 0. -1.
         11    1    1    2    0    0 -0.55529278060E+02 -0.72453216337E+01 -0.47207240239E+02  0.73242876366E+02  0.00000000000E+00 0.  1.
</event>
<event>
 7    1  0.3056346E-009  0.1656001E+03  0.7561462E-02  0.1182516E+00
          2   -1    0    0  501    0  0.00000000000E+00  0.00000000000E+00  0.85007037805E+03  0.85007037805E+03  0.00000000000E+00 0. -1.
         -2   -1    0    0    0  501 -0.00000000000E+00 -0.00000000000E+00 -0.57167050451E+02  0.57167050451E+02  0.00000000000E+00 0.  1.
         25    2    1    2    0    0  0.14310900482E+03  0.22624920978E+02  0.66802154764E+03  0.69490611717E+03  0.12509855816E+03 0.  0.
          5    1    3    3  502    0  0.87927564631E+02  0.46432349451E+02  0.57852209694E+03  0.58702002414E+03  0.41800000000E+01 0.  1.
         -5    1    3    3    0  502  0.55181440193E+02 -0.23807428472E+02  0.89499450703E+02  0.10788609303E+03  0.41800000000E+01 0.  1.
        -11    1    1    2    0    0 -0.11787913762E+02 -0.37466705027E+02  0.33908743807E+02  0.51889418989E+02  0.00000000000E+00 0. -1.
         11    1    1    2    0    0 -0.13132109106E+03  0.14841784049E+02  0.90973036145E+02  0.16044189234E+03  0.00000000000E+00 0.  1.
</event>
<event>
 7    1  0.3056346E-009  0.1092982E+03  0.7561462E-02  0.1261875E+00
         -3   -1    0    0    0  501 -0.00000000000E+00  0.00000000000E+00  0.28531038700E+03  0.28531038700E+03  0.00000000000E+00 0.  1.
          3   -1    0    0  501    0  0.00000000000E+00 -0.00000000000E+00 -0.57477228052E+02  0.57477228052E+02  0.00000000000E+00 0. -1.
         25    2    1    2    0    0 -0.36197538845E+02  0.34161837779E+02  0.18774436608E+03  0.23102693490E+03  0.12509278427E+03 0.  0.
          5    1    3    3  502    0  0.38522983719E+02 -0.17601337019E+02  0.46766222869E+02  0.63232739470E+02  0.41800000000E+01 0.  1.
         -5    1    3    3    0  502 -0.74720522564E+02  0.51763174798E+02  0.14097814321E+03  0.16779419543E+03  0.41800000000E+01 0.  1.
        -11    1    1    2    0    0  0.32989848499E+02 -0.54904249594E+02 -0.26906911410E+01  0.64109644721E+02  0.00000000000E+00 0.  1.
         11    1    1    2    0    0  0.32076903458E+01  0.20742411815E+02  0.42779484004E+02  0.47651035423E+02  0.00000000000E+00 0. -1.
</event>
<event>
 7    1  0.3056346E-009  0.1303044E+03  0.7561462E-02  0.1227005E+00
          1   -1    0    0  501    0  0.00000000000E+00  0.00000000000E+00  0.12046864733E+03  0.12046864733E+03  0.00000000000E+00 0. -1.
         -1   -1    0    0    0  501 -0.00000000000E+00 -0.00000000000E+00 -0.15748447671E+03  0.15748447671E+03  0.00000000000E+00 0.  1.
         25    2    1    2    0    0 -0.74350438108E+02 -0.20781159026E+02  0.12903768061E+02  0.14755259086E+03  0.12508163583E+03 0.  0.
          5    1    3    3  502    0 -0.37969760161E+02  0.51728978636E+02  0.15985131816E+02  0.66261502824E+02  0.41800000000E+01 0. -1.
         -5    1    3    3    0  502 -0.36380677947E+02 -0.72510137662E+02 -0.30813637548E+01  0.81291088037E+02  0.41800000000E+01 0. -1.
        -11    1    1    2    0    0  0.68905969733E+02 -0.21700705677E+02 -0.12070675718E+02  0.73243801813E+02  0.00000000000E+00 0. -1.
         11    1    1    2    0    0  0.54444683748E+01  0.42481864703E+02 -0.37848921724E+02  0.57156731364E+02  0.00000000000E+00 0.  1.
</event>
<event>
 7    1  0.3056346E-009  0.9521674E+02  0.7561462E-02  0.1290689E+00
          1   -1    0    0  501    0  0.00000000000E+00  0.00000000000E+00  0.11253310290E+03  0.11253310290E+03  0.00000000000E+00 0. -1.
         -1   -1    0    0    0  501 -0.00000000000E+00 -0.00000000000E+00 -0.14047143913E+03  0.14047143913E+03  0.00000000000E+00 0.  1.
         25    2    1    2    0    0  0.38590086437E+01 -0.13913385666E+02  0.45911026547E+02  0.13403513356E+03  0.12509644448E+03 0.  0.
          5    1    3    3  502    0  0.56776137222E+02 -0.17545998674E+01 -0.78700476499E+01  0.57497986300E+02  0.41800000000E+01 0. -1.
         -5    1    3    3    0  502 -0.52917128578E+02 -0.12158785799E+02  0.53781074197E+02  0.76537147261E+02  0.41800000000E+01 0. -1.
        -11    1    1    2    0    0 -0.39240555781E+02 -0.38512599236E+01 -0.52662056540E+01  0.39779219990E+02  0.00000000000E+00 0. -1.
         11    1    1    2    0    0  0.35381547137E+02  0.17764645590E+02 -0.68583157126E+02  0.79190188484E+02  0.00000000000E+00 0.  1.
</event>
<event>
 7    1  0.3056346E-009  0.1023286E+03  0.7561462E-02  0.1275474E+00
          2   -1    0    0  501    0  0.00000000000E+00  0.00000000000E+00  0.11087107865E+03  0.11087107865E+03  0.00000000000E+00 0. -1.
         -2   -1    0    0    0  501 -0.00000000000E+00 -0.00000000000E+00 -0.11841677316E+03  0.11841677316E+03  0.00000000000E+00 0.  1.
         25    2    1    2    0    0 -0.36276302777E+02  0.12803733581E+02  0.14621461788E+02  0.13168395027E+03  0.12508784864E+03 0.  0.
          5    1    3    3  502    0  0.45453494816E+02  0.87808775493E+01 -0.68441070664E+01  0.46983382201E+02  0.41800000000E+01 0. -1.
         -5    1    3    3    0  502 -0.81729797593E+02  0.40228560320E+01  0.21465568854E+02  0.84700568070E+02  0.41800000000E+01 0. -1.
        -11    1    1    2    0    0  0.16818831357E+02  0.27071335876E+02 -0.38807481759E+02  0.50217038491E+02  0.00000000000E+00 0.  1.
         11    1    1    2    0    0  0.19457471420E+02 -0.39875069457E+02  0.16640325455E+02  0.47386863048E+02  0.00000000000E+00 0. -1.
</event>
<event>
 7    1  0.3056346E-009  0.1554511E+03  0.7561462E-02  0.1193930E+00
         -3   -1    0    0    0  501 -0.00000000000E+00  0.00000000000E+00  0.34107984851E+03  0.34107984851E+03  0.00000000000E+00 0.  1.
          3   -1    0    0  501    0  0.00000000000E+00 -0.00000000000E+00 -0.88839693255E+02  0.88839693255E+02  0.00000000000E+00 0. -1.
         25    2    1    2    0    0  0.80733109854E+02 -0.10457909282E+03  0.19002231878E+03  0.26307934852E+03  0.12509052842E+03 0.  0.
          5    1    3    3  502    0  0.25813850416E+02 -0.11394114623E+03  0.86436827001E+02  0.14538822902E+03  0.41800000000E+01 0. -1.
         -5    1    3    3    0  502  0.54919259437E+02  0.93620534032E+01  0.10358549178E+03  0.11769111950E+03  0.41800000000E+01 0. -1.
        -11    1    1    2    0    0 -0.16485102441E+02  0.53709451729E+02  0.63624808650E+02  0.84879797852E+02  0.00000000000E+00 0.  1.
         11    1    1    2    0    0 -0.64248007412E+02  0.50869641096E+02 -0.14069721783E+01  0.81960395389E+02  0.00000000000E+00 0. -1.
</event>
<event>
 7    1  0.3056346E-009  0.1015033E+03  0.7561462E-02  0.1277166E+00
          4   -1    0    0  501    0  0.00000000000E+00  0.00000000000E+00  0.15931381850E+03  0.15931381850E+03  0.00000000000E+00 0.  1.
         -4   -1    0    0    0  501 -0.00000000000E+00 -0.00000000000E+00 -0.11657696160E+03  0.11657696160E+03  0.00000000000E+00 0. -1.
         25    2    1    2    0    0  0.73607461678E+01  0.50201528768E+02  0.89041111290E+02  0.16171012297E+03  0.12508984889E+03 0.  0.
          5    1    3    3  502    0 -0.51962156772E+02  0.28512315960E+02  0.77022316783E+02  0.97277580050E+02  0.41800000000E+01 0. -1.
         -5    1    3    3    0  502  0.59322902939E+02  0.21689212808E+02  0.12018794507E+02  0.64432542917E+02  0.41800000000E+01 0. -1.
        -11    1    1    2    0    0 -0.34436336577E+02 -0.35580442079E+02  0.95336439305E+01  0.50425385492E+02  0.00000000000E+00 0.  1.
         11    1    1    2    0    0  0.27075590409E+02 -0.14621086689E+02 -0.55837898320E+02  0.63755271631E+02  0.00000000000E+00 0. -1.
</event>
<event>
 7    1  0.3056346E-009  0.2458448E+03  0.7561462E-02  0.1115959E+00
         -2   -1    0    0    0  501 -0.00000000000E+00  0.00000000000E+00  0.15864751456E+03  0.15864751456E+03  0.00000000000E+00 0.  1.
          2   -1    0    0  501    0  0.00000000000E+00 -0.00000000000E+00 -0.44444650406E+03  0.44444650406E+03  0.00000000000E+00 0. -1.
         25    2    1    2    0    0  0.22027877782E+03  0.98489254199E+02 -0.17082391612E+03  0.32101223901E+03  0.12508067046E+03 0.  0.
          5    1    3    3  502    0  0.20258245122E+03  0.98536450307E+02 -0.18989371633E+03  0.29466281999E+03  0.41800000000E+01 0. -1.
         -5    1    3    3    0  502  0.17696326605E+02 -0.47196107643E-01  0.19069800209E+02  0.26349419022E+02  0.41800000000E+01 0. -1.
        -11    1    1    2    0    0 -0.19599991760E+03 -0.64336839287E+02 -0.63778531462E+02  0.21592336063E+03  0.00000000000E+00 0.  1.
         11    1    1    2    0    0 -0.24278860221E+02 -0.34152414912E+02 -0.51196541918E+02  0.66158418983E+02  0.00000000000E+00 0. -1.
</event>
<event>
 7    1  0.3056346E-009  0.2317698E+03  0.7561462E-02  0.1125400E+00
         -3   -1    0    0    0  501 -0.00000000000E+00  0.00000000000E+00  0.46058672686E+03  0.46058672686E+03  0.00000000000E+00 0.  1.
          3   -1    0    0  501    0  0.00000000000E+00 -0.00000000000E+00 -0.13169741745E+03  0.13169741745E+03  0.00000000000E+00 0. -1.
         25    2    1    2    0    0  0.15029061369E+03  0.14651356567E+03  0.25175397990E+03  0.35082462998E+03  0.12507742047E+03 0.  0.
          5    1    3    3  502    0  0.13228830417E+03  0.58182361719E+02  0.20002771217E+03  0.24680749719E+03  0.41800000000E+01 0. -1.
         -5    1    3    3    0  502  0.18002309530E+02  0.88331203949E+02  0.51726267739E+02  0.10401713279E+03  0.41800000000E+01 0. -1.
        -11    1    1    2    0    0 -0.61815241411E+02 -0.52545153326E+01  0.23945620218E+02  0.66499073149E+02  0.00000000000E+00 0. -1.
         11    1    1    2    0    0 -0.88475372284E+02 -0.14125905034E+03  0.53189709288E+02  0.17496044118E+03  0.00000000000E+00 0.  1.
</event>
<event>
 7    1  0.3056346E-009  0.1149346E+03  0.7561462E-02  0.1251695E+00
         -1   -1    0    0    0  501 -0.00000000000E+00  0.00000000000E+00  0.14355755477E+03  0.14355755477E+03  0.00000000000E+00 0.  1.
          1   -1    0    0  501    0  0.00000000000E+00 -0.00000000000E+00 -0.15212995636E+03  0.15212995636E+03  0.00000000000E+00 0. -1.
         25    2    1    2    0    0  0.10009994540E+03 -0.60451818744E+01 -0.17879193725E+01  0.16033784593E+03  0.12509390429E+03 0.  0.
          5    1    3    3  502    0  0.25728168284E+02 -0.39936729561E+02  0.45422251699E+02  0.65859960224E+02  0.41800000000E+01 0.  1.
         -5    1    3    3    0  502  0.74371777112E+02  0.33891547687E+02 -0.47210171072E+02  0.94477885709E+02  0.41800000000E+01 0.  1.
        -11    1    1    2    0    0 -0.82832994819E+02  0.36869546672E+01 -0.44282988894E+02  0.93999371119E+02  0.00000000000E+00 0.  1.
         11    1    1    2    0    0 -0.17266950578E+02  0.23582272071E+01  0.37498506677E+02  0.41350294084E+02  0.00000000000E+00 0. -1.
</event>
<event>
 7    1  0.3056346E-009  0.9959893E+02  0.7561462E-02  0.1281142E+00
          2   -1    0    0  501    0  0.00000000000E+00  0.00000000000E+00  0.56264366845E+03  0.56264366845E+03  0.00000000000E+00 0. -1.
         -2   -1    0    0    0  501 -0.00000000000E+00 -0.00000000000E+00 -0.25185687775E+02  0.25185687775E+02  0.00000000000E+00 0.  1.
         25    2    1    2    0    0  0.53795958825E+01 -0.17987768638E+02  0.19089740130E+03  0.22899835675E+03  0.12508369076E+03 0.  0.
          5    1    3    3  502    0  0.54720241518E+02 -0.56810727408E+01  0.16024061476E+03  0.16947302569E+03  0.41800000000E+01 0. -1.
         -5    1    3    3    0  502 -0.49340645635E+02 -0.12306695897E+02  0.30656786544E+02  0.59525331051E+02  0.41800000000E+01 0. -1.
        -11    1    1    2    0    0 -0.26856203918E+02 -0.30097614705E+02  0.15510521461E+03  0.16026462398E+03  0.00000000000E+00 0. -1.
         11    1    1    2    0    0  0.21476608036E+02  0.48085383343E+02  0.19145536477E+03  0.19856637551E+03  0.00000000000E+00 0.  1.
</event>
<event>
 7    1  0.3056346E-009  0.1005607E+03  0.7561462E-02  0.1279121E+00
          1   -1    0    0  501    0  0.00000000000E+00  0.00000000000E+00  0.57170384897E+03  0.57170384897E+03  0.00000000000E+00 0. -1.
         -1   -1    0    0    0  501 -0.00000000000E+00 -0.00000000000E+00 -0.32879983460E+02  0.32879983460E+02  0.00000000000E+00 0.  1.
         25    2    1    2    0    0  0.22103213128E+02 -0.21989394788E+02  0.45123893473E+03  0.46929284494E+03  0.12508841905E+03 0.  0.
          5    1    3    3  502    0 -0.18443660064E+02 -0.52418964782E+02  0.36452840757E+03  0.36876326931E+03  0.41800000000E+01 0. -1.
         -5    1    3    3    0  502  0.40546873193E+02  0.30429569994E+02  0.86710527158E+02  0.10052957563E+03  0.41800000000E+01 0. -1.
        -11    1    1    2    0    0  0.24234705312E+02 -0.20436820651E+02  0.59104534861E+01  0.32247760236E+02  0.00000000000E+00 0.  1.
         11    1    1    2    0    0 -0.46337918440E+02  0.42426215439E+02  0.81674477288E+02  0.10304322725E+03  0.00000000000E+00 0. -1.
</event>
<event>
 7    1  0.3056346E-009  0.1244868E+03  0.7561462E-02  0.1235874E+00
          2   -1    0    0  501    0  0.00000000000E+00  0.00000000000E+00  0.66454215800E+02  0.66454215800E+02  0.00000000000E+00 0. -1.
         -2   -1    0    0    0  501 -0.00000000000E+00 -0.00000000000E+00 -0.35041696804E+03  0.35041696804E+03  0.00000000000E+00 0.  1.
         25    2    1    2    0    0 -0.51313155639E+01  0.10244034664E+03 -0.10573097962E+03  0.19325244311E+03  0.12508841551E+03 0.  0.
          5    1    3    3  502    0  0.12066119509E+00  0.11015308626E+03 -0.26511282221E+02  0.11337564755E+03  0.41800000000E+01 0. -1.
         -5    1    3    3    0  502 -0.52519767590E+01 -0.77127396200E+01 -0.79219697402E+02  0.79876795559E+02  0.41800000000E+01 0. -1.
        -11    1    1    2    0    0  0.33622618770E+02 -0.92368082435E+02 -0.16153842869E+03  0.18909523286E+03  0.00000000000E+00 0.  1.
         11    1    1    2    0    0 -0.28491303207E+02 -0.10072264205E+02 -0.16693343926E+02  0.34523507876E+02  0.00000000000E+00 0. -1.
</event>
<event>
 7    1  0.3056346E-009  0.9789071E+02  0.7561462E-02  0.1284795E+00
         -1   -1    0    0    0  501 -0.00000000000E+00  0.00000000000E+00  0.13187360571E+02  0.13187360571E+02  0.00000000000E+00 0.  1.
          1   -1    0    0  501    0  0.00000000000E+00 -0.00000000000E+00 -0.10926330101E+04  0.10926330101E+04  0.00000000000E+00 0. -1.
         25    2    1    2    0    0 -0.50087040729E+02 -0.68794811486E+01 -0.56185260641E+03  0.57782507160E+03  0.12508966033E+03 0.  0.
          5    1    3    3  502    0 -0.13414958228E+02 -0.39707433807E+02 -0.58670627236E+02  0.72224347031E+02  0.41800000000E+01 0.  1.
         -5    1    3    3    0  502 -0.36672082501E+02  0.32827952658E+02 -0.50318197918E+03  0.50560072457E+03  0.41800000000E+01 0.  1.
        -11    1    1    2    0    0 -0.25377006912E+02  0.13074451113E+02 -0.13657345708E+03  0.13952506201E+03  0.00000000000E+00 0. -1.
         11    1    1    2    0    0  0.75464047641E+02 -0.61949699642E+01 -0.38101958605E+03  0.38847023708E+03  0.00000000000E+00 0.  1.
</event>
<event>
 7    1  0.3056346E-009  0.1051131E+03  0.7561462E-02  0.1269897E+00
         -1   -1    0    0    0  501 -0.00000000000E+00  0.00000000000E+00  0.34547284539E+03  0.34547284539E+03  0.00000000000E+00 0. -1.
          1   -1    0    0  501    0  0.00000000000E+00 -0.00000000000E+00 -0.10021918842E+03  0.10021918842E+03  0.00000000000E+00 0.  1.
         25    2    1    2    0    0 -0.35682620742E+02  0.16585582803E+02  0.30304457464E+03  0.33019926853E+03  0.12508881539E+03 0.  0.
          5    1    3    3  502    0  0.25608655957E+02  0.48160009347E+02  0.19003513926E+03  0.19775241166E+03  0.41800000000E+01 0. -1.
         -5    1    3    3    0  502 -0.61291276699E+02 -0.31574426544E+02  0.11300943538E+03  0.13244685687E+03  0.41800000000E+01 0. -1.
        -11    1    1    2    0    0 -0.10601133367E+02  0.23140694788E+02 -0.47143021704E+02  0.53575556734E+02  0.00000000000E+00 0.  1.
         11    1    1    2    0    0  0.46283754109E+02 -0.39726277591E+02 -0.10647895973E+02  0.61917208548E+02  0.00000000000E+00 0. -1.
</event>
<event>
 7    1  0.3056346E-009  0.1327643E+03  0.7561462E-02  0.1223411E+00
          1   -1    0    0  501    0  0.00000000000E+00  0.00000000000E+00  0.83833922063E+02  0.83833922063E+02  0.00000000000E+00 0. -1.
         -1   -1    0    0    0  501 -0.00000000000E+00 -0.00000000000E+00 -0.26383538816E+03  0.26383538816E+03  0.00000000000E+00 0.  1.
         25    2    1    2    0    0 -0.71439908243E+02 -0.71220612494E+02 -0.81382575740E+02  0.18013022755E+03  0.12509092336E+03 0.  0.
          5    1    3    3  502    0  0.13362746735E+02 -0.70502071965E+02 -0.57154563843E+02  0.91832574393E+02  0.41800000000E+01 0.  1.
         -5    1    3    3    0  502 -0.84802654977E+02 -0.71854052886E+00 -0.24228011897E+02  0.88297653152E+02  0.41800000000E+01 0.  1.
        -11    1    1    2    0    0  0.45071857269E+02  0.68817465218E+02 -0.20110602745E+02  0.84686198282E+02  0.00000000000E+00 0. -1.
         11    1    1    2    0    0  0.26368050974E+02  0.24031472753E+01 -0.78508287611E+02  0.82852884396E+02  0.00000000000E+00 0.  1.
</event>
<event>
 7    1  0.3375614E-009  0.1590274E+03  0.7561462E-02  0.1189799E+00
          1   -1    0    0  501    0  0.00000000000E+00  0.00000000000E+00  0.38604731118E+03  0.38604731118E+03  0.00000000000E+00 0. -1.
         -1   -1    0    0    0  501 -0.00000000000E+00 -0.00000000000E+00 -0.77135752791E+02  0.77135752791E+02  0.00000000000E+00 0.  1.
         25    2    1    2    0    0 -0.12617896789E+02  0.12251789965E+03  0.23430597030E+03  0.29277687408E+03  0.12509661556E+03 0.  0.
          5    1    3    3  502    0 -0.18019173971E+01  0.14729341370E+03  0.18645043716E+03  0.23765486434E+03  0.41800000000E+01 0.  1.
         -5    1    3    3    0  502 -0.10815979392E+02 -0.24775514044E+02  0.47855533138E+02  0.55122009745E+02  0.41800000000E+01 0.  1.
        -11    1    1    2    0    0  0.43285114978E+02 -0.79283728510E+02  0.74985959303E+02  0.11739848754E+03  0.00000000000E+00 0. -1.
         11    1    1    2    0    0 -0.30667218189E+02 -0.43234171144E+02 -0.38037121146E+00  0.53007702348E+02  0.00000000000E+00 0.  1.
</event>
<event>
 7    1  0.3056346E-009  0.8559716E+02  0.7561462E-02  0.1313878E+00
         -1   -1    0    0    0  501 -0.00000000000E+00  0.00000000000E+00  0.78205388417E+02  0.78205388417E+02  0.00000000000E+00 0.  1.
          1   -1    0    0  501    0  0.00000000000E+00 -0.00000000000E+00 -0.18834195237E+03  0.18834195237E+03  0.00000000000E+00 0. -1.
         25    2    1    2    0    0  0.15398217948E+02 -0.39287957813E+02 -0.91339447452E+02  0.16053384606E+03  0.12509025672E+03 0.  0.
          5    1    3    3  502    0 -0.21718591498E+02 -0.50617108771E+02 -0.10544014841E+03  0.11903313074E+03  0.41800000000E+01 0.  1.
         -5    1    3    3    0  502  0.37116809447E+02  0.11329150958E+02  0.14100700957E+02  0.41500715324E+02  0.41800000000E+01 0.  1.
        -11    1    1    2    0    0  0.12974550512E+02 -0.12408931801E+02 -0.39600890892E+02  0.43480468131E+02  0.00000000000E+00 0. -1.
         11    1    1    2    0    0 -0.28372768460E+02  0.51696889614E+02  0.20803774392E+02  0.62533026593E+02  0.00000000000E+00 0.  1.
</event>
<event>
 7    1  0.3056346E-009  0.2227336E+03  0.7561462E-02  0.1131861E+00
         -2   -1    0    0    0  501 -0.00000000000E+00  0.00000000000E+00  0.30869952355E+02  0.30869952355E+02  0.00000000000E+00 0. -1.
          2   -1    0    0  501    0  0.00000000000E+00 -0.00000000000E+00 -0.19868740279E+04  0.19868740279E+04  0.00000000000E+00 0.  1.
         25    2    1    2    0    0 -0.10335864069E+02 -0.20352612595E+03 -0.13179322374E+04  0.13394451950E+04  0.12505332420E+03 0.  0.
          5    1    3    3  502    0  0.18278819819E+02 -0.20695779917E+03 -0.12067956446E+04  0.12245565916E+04  0.41800000000E+01 0. -1.
         -5    1    3    3    0  502 -0.28614683888E+02  0.34316732206E+01 -0.11113659288E+03  0.11488860340E+03  0.41800000000E+01 0. -1.
        -11    1    1    2    0    0  0.27519472881E+02  0.10611986776E+03 -0.18927898100E+03  0.21873564037E+03  0.00000000000E+00 0. -1.
         11    1    1    2    0    0 -0.17183608813E+02  0.97406258194E+02 -0.44879285706E+03  0.45956314484E+03  0.00000000000E+00 0.  1.
</event>
<event>
 7    1  0.3056346E-009  0.1155427E+03  0.7561462E-02  0.1250637E+00
         -1   -1    0    0    0  501 -0.00000000000E+00  0.00000000000E+00  0.29393785085E+03  0.29393785085E+03  0.00000000000E+00 0.  1.
          1   -1    0    0  501    0  0.00000000000E+00 -0.00000000000E+00 -0.68820304946E+02  0.68820304946E+02  0.00000000000E+00 0. -1.
         25    2    1    2    0    0 -0.86723959116E+02  0.16179233826E+02  0.16137830351E+03  0.22242421577E+03  0.12508701862E+03 0.  0.
          5    1    3    3  502    0 -0.55599275983E+02 -0.44725642057E+02  0.12706218900E+03  0.14578729307E+03  0.41800000000E+01 0.  1.
         -5    1    3    3    0  502 -0.31124683133E+02  0.60904875882E+02  0.34316114508E+02  0.76636922702E+02  0.41800000000E+01 0.  1.
        -11    1    1    2    0    0  0.55714617757E+02 -0.21311340101E+02  0.83935752033E+02  0.10297330877E+03  0.00000000000E+00 0.  1.
         11    1    1    2    0    0  0.31009341359E+02  0.51321062755E+01 -0.20196509639E+02  0.37360631257E+02  0.00000000000E+00 0. -1.
</event>
<event>
 7    1  0.3056346E-009  0.1080416E+03  0.7561462E-02  0.1264240E+00
          1   -1    0    0  501    0  0.00000000000E+00  0.00000000000E+00  0.77478128137E+02  0.77478128137E+02  0.00000000000E+00 0. -1.
         -1   -1    0    0    0  501 -0.00000000000E+00 -0.00000000000E+00 -0.24372589838E+03  0.24372589838E+03  0.00000000000E+00 0.  1.
         25    2    1    2    0    0  0.32320246321E+02 -0.73588791410E+02 -0.12138175934E+03  0.19193985898E+03  0.12508984540E+03 0.  0.
          5    1    3    3  502    0  0.21415092097E+02 -0.13903882862E+01 -0.11661605604E+03  0.11864786672E+03  0.41800000000E+01 0. -1.
         -5    1    3    3    0  502  0.10905154225E+02 -0.72198403123E+02 -0.47657032926E+01  0.73291992265E+02  0.41800000000E+01 0. -1.
        -11    1    1    2    0    0  0.29362882868E+02  0.67454562865E+01 -0.13926700071E+02  0.33190857864E+02  0.00000000000E+00 0.  1.
         11    1    1    2    0    0 -0.61683129189E+02  0.66843335123E+02 -0.30939310838E+02  0.96073309676E+02  0.00000000000E+00 0. -1.
</event>
<event>
 7    1  0.3056346E-009  0.3262158E+03  0.7561462E-02  0.1072824E+00
          1   -1    0    0  501    0  0.00000000000E+00  0.00000000000E+00  0.11666790152E+04  0.11666790152E+04  0.00000000000E+00 0. -1.
         -1   -1    0    0    0  501 -0.00000000000E+00 -0.00000000000E+00 -0.16449009734E+03  0.16449009734E+03  0.00000000000E+00 0.  1.
         25    2    1    2    0    0  0.25802644395E+03  0.17123407813E+03  0.94626010503E+03  0.10034711098E+04  0.12508927415E+03 0.  0.
          5    1    3    3  502    0  0.13082679222E+03  0.15862093820E+03  0.60815415477E+03  0.64198535806E+03  0.41800000000E+01 0. -1.
         -5    1    3    3    0  502  0.12719965173E+03  0.12613139937E+02  0.33810595026E+03  0.36148575173E+03  0.41800000000E+01 0. -1.
        -11    1    1    2    0    0 -0.17835275071E+03 -0.73788095980E+02  0.85442758673E+01  0.19320297991E+03  0.00000000000E+00 0.  1.
         11    1    1    2    0    0 -0.79673693238E+02 -0.97445982153E+02  0.47384536993E+02  0.13449502288E+03  0.00000000000E+00 0. -1.
</event>
<event>
 7    1  0.3056346E-009  0.2488680E+03  0.7561462E-02  0.1114022E+00
          2   -1    0    0  501    0  0.00000000000E+00  0.00000000000E+00  0.55264484992E+03  0.55264484992E+03  0.00000000000E+00 0. -1.
         -2   -1    0    0    0  501 -0.00000000000E+00 -0.00000000000E+00 -0.12693074927E+03  0.12693074927E+03  0.00000000000E+00 0.  1.
         25    2    1    2    0    0 -0.25459412428E+02  0.23663794403E+03  0.24321927857E+03  0.36256253884E+03  0.12510107460E+03 0.  0.
          5    1    3    3  502    0 -0.28007636419E+02  0.17323004487E+03  0.24199808733E+03  0.29895421525E+03  0.41800000000E+01 0.  1.
         -5    1    3    3    0  502  0.25482239911E+01  0.63407899162E+02  0.12211912339E+01  0.63608323588E+02  0.41800000000E+01 0. -1.
        -11    1    1    2    0    0  0.64817562071E+02 -0.15363897475E+03  0.10718014037E+03  0.19822672223E+03  0.00000000000E+00 0. -1.
         11    1    1    2    0    0 -0.39358149643E+02 -0.82998969277E+02  0.75314681708E+02  0.11878633812E+03  0.00000000000E+00 0.  1.
</event>
<event>
 7    1  0.3056346E-009  0.1170637E+03  0.7561462E-02  0.1248021E+00
          1   -1    0    0  501    0  0.00000000000E+00  0.00000000000E+00  0.53737430024E+03  0.53737430024E+03  0.00000000000E+00 0. -1.
         -1   -1    0    0    0  501 -0.00000000000E+00 -0.00000000000E+00 -0.51595488300E+02  0.51595488300E+02  0.00000000000E+00 0.  1.
         25    2    1    2    0    0 -0.23755533837E+02  0.38746059497E+02  0.46183599907E+03  0.48063060457E+03  0.12509078901E+03 0.  0.
          5    1    3    3  502    0  0.24935888946E+02 -0.35239988178E+02  0.18127268079E+03  0.18638914272E+03  0.41800000000E+01 0.  1.
         -5    1    3    3    0  502 -0.48691422783E+02  0.73986047675E+02  0.28056331828E+03  0.29424146184E+03  0.41800000000E+01 0.  1.
        -11    1    1    2    0    0  0.47907734809E+02 -0.55026260023E+02  0.40580191410E+01  0.73071936241E+02  0.00000000000E+00 0.  1.
         11    1    1    2    0    0 -0.24152200973E+02  0.16280200525E+02  0.19884793725E+02  0.35267247730E+02  0.00000000000E+00 0. -1.
</event>
<event>
 7    1  0.3056346E-009  0.2093071E+03  0.7561462E-02  0.1142116E+00
          2   -1    0    0  501    0  0.00000000000E+00  0.00000000000E+00  0.10302773306E+04  0.10302773306E+04  0.00000000000E+00 0. -1.
         -2   -1    0    0    0  501 -0.00000000000E+00 -0.00000000000E+00 -0.52005328596E+02  0.52005328596E+02  0.00000000000E+00 0.  1.
         25    2    1    2    0    0 -0.95545343444E+02  0.15456544864E+03  0.71653294149E+03  0.74972405773E+03  0.12508923192E+03 0.  0.
          5    1    3    3  502    0 -0.11457449656E+02 -0.21714460032E+02  0.68547441197E+02  0.72931577672E+02  0.41800000000E+01 0. -1.
         -5    1    3    3    0  502 -0.84087893788E+02  0.17627990867E+03  0.64798550029E+03  0.67679248006E+03  0.41800000000E+01 0. -1.
        -11    1    1    2    0    0  0.20153897323E+02 -0.10773485275E+03  0.18595800434E+03  0.21585494540E+03  0.00000000000E+00 0. -1.
         11    1    1    2    0    0  0.75391446121E+02 -0.46830595890E+02  0.75781056129E+02  0.11670365602E+03  0.00000000000E+00 0.  1.
</event>
<event>
 7    1  0.3056346E-009  0.1390259E+03  0.7561462E-02  0.1214646E+00
         -1   -1    0    0    0  501 -0.00000000000E+00  0.00000000000E+00  0.34938813788E+02  0.34938813788E+02  0.00000000000E+00 0. -1.
          1   -1    0    0  501    0  0.00000000000E+00 -0.00000000000E+00 -0.68245035754E+03  0.68245035754E+03  0.00000000000E+00 0.  1.
         25    2    1    2    0    0 -0.94383281734E+02  0.13971672018E+02 -0.21907472473E+03  0.26971215566E+03  0.12508996924E+03 0.  0.
          5    1    3    3  502    0  0.28640842087E+02  0.15882650411E+02 -0.60908067251E+02  0.69280743903E+02  0.41800000000E+01 0. -1.
         -5    1    3    3    0  502 -0.12302412382E+03 -0.19109783937E+01 -0.15816665748E+03  0.20043141176E+03  0.41800000000E+01 0. -1.
        -11    1    1    2    0    0  0.51626925994E+01 -0.30716950077E+02 -0.53494801920E+02  0.61902166758E+02  0.00000000000E+00 0. -1.
         11    1    1    2    0    0  0.89220589134E+02  0.16745278059E+02 -0.37494201710E+03  0.38577484891E+03  0.00000000000E+00 0.  1.
</event>
<event>
 7    1  0.3056346E-009  0.1379900E+03  0.7561462E-02  0.1216059E+00
          2   -1    0    0  501    0  0.00000000000E+00  0.00000000000E+00  0.27721892875E+03  0.27721892875E+03  0.00000000000E+00 0. -1.
         -2   -1    0    0    0  501 -0.00000000000E+00 -0.00000000000E+00 -0.11276523097E+03  0.11276523097E+03  0.00000000000E+00 0.  1.
         25    2    1    2    0    0  0.80733458607E+02  0.96503205515E+02  0.19784909253E+02  0.17851783514E+03  0.12508562993E+03 0.  0.
          5    1    3    3  502    0  0.64802642147E+02  0.42302693104E+02 -0.47237994297E+02  0.90762331274E+02  0.41800000000E+01 0.  1.
         -5    1    3    3    0  502  0.15930816460E+02  0.54200512411E+02  0.67022903550E+02  0.87755503867E+02  0.41800000000E+01 0.  1.
        -11    1    1    2    0    0 -0.55398906169E+02 -0.16337309129E+02  0.10192119402E+03  0.11714894905E+03  0.00000000000E+00 0. -1.
         11    1    1    2    0    0 -0.25334552438E+02 -0.80165896387E+02  0.42747594514E+02  0.94317375533E+02  0.00000000000E+00 0.  1.
</event>
<event>
 7    1  0.3056346E-009  0.1036435E+03  0.7561462E-02  0.1272816E+00
         -2   -1    0    0    0  501 -0.00000000000E+00  0.00000000000E+00  0.15859446395E+02  0.15859446395E+02  0.00000000000E+00 0.  1.
          2   -1    0    0  501    0  0.00000000000E+00 -0.00000000000E+00 -0.77066478139E+03  0.77066478139E+03  0.00000000000E+00 0. -1.
         25    2    1    2    0    0 -0.20048452861E+02  0.12959103013E+01 -0.46113066382E+03  0.47821940825E+03  0.12509473795E+03 0.  0.
          5    1    3    3  502    0  0.10412118621E+02  0.53153203998E+02 -0.11894179569E+03  0.13076046218E+03  0.41800000000E+01 0.  1.
         -5    1    3    3    0  502 -0.30460571482E+02 -0.51857293697E+02 -0.34218886813E+03  0.34745894606E+03  0.41800000000E+01 0.  1.
        -11    1    1    2    0    0  0.13161140191E+02  0.44479096593E+02 -0.12271625109E+03  0.13119025851E+03  0.00000000000E+00 0.  1.
         11    1    1    2    0    0  0.68873126703E+01 -0.45775006895E+02 -0.17095842008E+03  0.17711456103E+03  0.00000000000E+00 0. -1.
</event>
<event>
 7    1  0.3056346E-009  0.9892854E+02  0.7561462E-02  0.1282565E+00
         -1   -1    0    0    0  501 -0.00000000000E+00  0.00000000000E+00  0.27971462606E+02  0.27971462606E+02  0.00000000000E+00 0.  1.
          1   -1    0    0  501    0  0.00000000000E+00 -0.00000000000E+00 -0.58272730042E+03  0.58272730042E+03  0.00000000000E+00 0. -1.
         25    2    1    2    0    0  0.29211721431E+02 -0.18695168283E+02 -0.45723247651E+03  0.47530286155E+03  0.12509371942E+03 0.  0.
          5    1    3    3  502    0  0.11040980703E+02  0.48400784569E+02 -0.10457984289E+03  0.11584021383E+03  0.41800000000E+01 0.  1.
         -5    1    3    3    0  502  0.18170740728E+02 -0.67095952852E+02 -0.35265263361E+03  0.35946264772E+03  0.41800000000E+01 0.  1.
        -11    1    1    2    0    0 -0.28252485966E+02  0.44426842478E+02 -0.96136312938E+02  0.10960902317E+03  0.00000000000E+00 0. -1.
         11    1    1    2    0    0 -0.95923546516E+00 -0.25731674195E+02 -0.13870483739E+01  0.25786878306E+02  0.00000000000E+00 0.  1.
</event>
<event>
 7    1  0.3056346E-009  0.2083101E+03  0.7561462E-02  0.1142911E+00
          1   -1    0    0  501    0  0.00000000000E+00  0.00000000000E+00  0.57998822894E+03  0.57998822894E+03  0.00000000000E+00 0. -1.
         -1   -1    0    0    0  501 -0.00000000000E+00 -0.00000000000E+00 -0.90861970937E+02  0.90861970937E+02  0.00000000000E+00 0.  1.
         25    2    1    2    0    0 -0.66922436636E+02  0.18922706622E+03  0.21597937007E+03  0.32028185120E+03  0.12509148970E+03 0.  0.
          5    1    3    3  502    0 -0.17451551271E+02 -0.75568652648E+00  0.78618305343E+02  0.80643896477E+02  0.41800000000E+01 0.  1.
         -5    1    3    3    0  502 -0.49470885365E+02  0.18998275275E+03  0.13736106473E+03  0.23963795472E+03  0.41800000000E+01 0.  1.
        -11    1    1    2    0    0  0.41369259786E+02 -0.79341907941E+02  0.55152645380E+02  0.10511121873E+03  0.00000000000E+00 0.  1.
         11    1    1    2    0    0  0.25553176850E+02 -0.10988515828E+03  0.21799424255E+03  0.24545712995E+03  0.00000000000E+00 0. -1.
</event>
<event>
 7    1  0.3056346E-009  0.1790108E+03  0.7561462E-02  0.1168764E+00
         -3   -1    0    0    0  501 -0.00000000000E+00  0.00000000000E+00  0.87616597696E+02  0.87616597696E+02  0.00000000000E+00 0.  1.
          3   -1    0    0  501    0  0.00000000000E+00 -0.00000000000E+00 -0.59665348633E+03  0.59665348633E+03  0.00000000000E+00 0. -1.
         25    2    1    2    0    0 -0.15236047052E+03 -0.12984900599E+01 -0.45713208805E+03  0.49782817839E+03  0.12509096777E+03 0.  0.
          5    1    3    3  502    0 -0.14301822134E+02  0.47900398860E+02 -0.12986614568E+03  0.13921809696E+03  0.41800000000E+01 0. -1.
         -5    1    3    3    0  502 -0.13805864839E+03 -0.49198888920E+02 -0.32726594237E+03  0.35861008143E+03  0.41800000000E+01 0. -1.
        -11    1    1    2    0    0  0.75688653723E+02  0.27014336457E+02 -0.66444596298E+02  0.10427574528E+03  0.00000000000E+00 0.  1.
         11    1    1    2    0    0  0.76671816800E+02 -0.25715846397E+02  0.14539795721E+02  0.82166160352E+02  0.00000000000E+00 0. -1.
</event>
<event>
 7    1  0.3106167E-009  0.1043077E+03  0.7561462E-02  0.1271490E+00
          1   -1    0    0  501    0  0.00000000000E+00  0.00000000000E+00  0.19532279760E+03  0.19532279760E+03  0.00000000000E+00 0. -1.
         -1   -1    0    0    0  501 -0.00000000000E+00 -0.00000000000E+00 -0.96278182145E+02  0.96278182145E+02  0.00000000000E+00 0.  1.
         25    2    1    2    0    0  0.51635902073E+02 -0.48586516785E+02  0.72604847574E+01  0.14397030357E+03  0.12509123740E+03 0.  0.
          5    1    3    3  502    0  0.64634795133E+02 -0.79776879164E+02  0.24742680423E+02  0.10569616751E+03  0.41800000000E+01 0.  1.
         -5    1    3    3    0  502 -0.12998893060E+02  0.31190362380E+02 -0.17482195666E+02  0.38274136064E+02  0.41800000000E+01 0.  1.
        -11    1    1    2    0    0 -0.58840846944E+01  0.11479773200E+02 -0.18527209443E+02  0.22575764331E+02  0.00000000000E+00 0.  1.
         11    1    1    2    0    0 -0.45751817378E+02  0.37106743585E+02  0.11031134014E+03  0.12505491184E+03  0.00000000000E+00 0. -1.
</event>
<event>
 7    1  0.3626492E-009  0.1253686E+03  0.7561462E-02  0.1234494E+00
          2   -1    0    0  501    0  0.00000000000E+00  0.00000000000E+00  0.18888110643E+03  0.18888110643E+03  0.00000000000E+00 0.  1.
         -2   -1    0    0    0  501 -0.00000000000E+00 -0.00000000000E+00 -0.12207261983E+03  0.12207261983E+03  0.00000000000E+00 0. -1.
         25    2    1    2    0    0  0.93604877093E+02 -0.42435572105E+02  0.61184052892E+02  0.17307168929E+03  0.12509064917E+03 0.  0.
          5    1    3    3  502    0 -0.41155392437E+01  0.16484326399E+02  0.56108702636E+02  0.58773544998E+02  0.41800000000E+01 0. -1.
         -5    1    3    3    0  502  0.97720416336E+02 -0.58919898504E+02  0.50753502563E+01  0.11429814429E+03  0.41800000000E+01 0. -1.
        -11    1    1    2    0    0 -0.25259761648E+02  0.43951377059E+02  0.36904676241E+02  0.62703542422E+02  0.00000000000E+00 0.  1.
         11    1    1    2    0    0 -0.68345115445E+02 -0.15158049539E+01 -0.31280242529E+02  0.75178494548E+02  0.00000000000E+00 0. -1.
</event>
<event>
 7    1  0.3056346E-009  0.1785420E+03  0.7561462E-02  0.1169222E+00
          4   -1    0    0  501    0  0.00000000000E+00  0.00000000000E+00  0.15864562488E+03  0.15864562488E+03  0.00000000000E+00 0.  1.
         -4   -1    0    0    0  501 -0.00000000000E+00 -0.00000000000E+00 -0.23286155609E+03  0.23286155609E+03  0.00000000000E+00 0. -1.
         25    2    1    2    0    0 -0.95380341143E+02  0.11159065306E+03 -0.10494856340E+03  0.21957085104E+03  0.12508906563E+03 0.  0.
          5    1    3    3  502    0  0.50008463669E+01  0.83282052359E+02 -0.22383381856E+02  0.86483506478E+02  0.41800000000E+01 0.  1.
         -5    1    3    3    0  502 -0.10038118751E+03  0.28308600701E+02 -0.82565181547E+02  0.13308734456E+03  0.41800000000E+01 0.  1.
        -11    1    1    2    0    0  0.17550844430E+02 -0.85194146971E+02  0.15943630750E+02  0.88432314115E+02  0.00000000000E+00 0.  1.
         11    1    1    2    0    0  0.77829496712E+02 -0.26396506088E+02  0.14789001440E+02  0.83504015806E+02  0.00000000000E+00 0. -1.
</event>
<event>
 7    1  0.3056346E-009  0.7593652E+02  0.7561462E-02  0.1340995E+00
          3   -1    0    0  501    0  0.00000000000E+00  0.00000000000E+00  0.60611891445E+03  0.60611891445E+03  0.00000000000E+00 0. -1.
         -3   -1    0    0    0  501 -0.00000000000E+00 -0.00000000000E+00 -0.19992626504E+02  0.19992626504E+02  0.00000000000E+00 0.  1.
         25    2    1    2    0    0  0.73864617246E+01 -0.64607056219E+01  0.39182860799E+03  0.41142825678E+03  0.12508897596E+03 0.  0.
          5    1    3    3  502    0 -0.10407277428E+02 -0.42272671286E+02  0.35243863344E+03  0.35514187715E+03  0.41800000000E+01 0. -1.
         -5    1    3    3    0  502  0.17793739153E+02  0.35811965665E+02  0.39389974551E+02  0.56286379639E+02  0.41800000000E+01 0. -1.
        -11    1    1    2    0    0  0.24505417795E+02  0.21565245878E+02  0.16675236219E+03  0.16991740826E+03  0.00000000000E+00 0. -1.
         11    1    1    2    0    0 -0.31891879519E+02 -0.15104540256E+02  0.27545317756E+02  0.44765875909E+02  0.00000000000E+00 0.  1.
</event>
<event>
 7    1  0.3180003E-009  0.7656108E+02  0.7561462E-02  0.1339104E+00
          1   -1    0    0  501    0  0.00000000000E+00  0.00000000000E+00  0.11618501952E+03  0.11618501952E+03  0.00000000000E+00 0. -1.
         -1   -1    0    0    0  501 -0.00000000000E+00 -0.00000000000E+00 -0.13302729151E+03  0.13302729151E+03  0.00000000000E+00 0.  1.
         25    2    1    2    0    0 -0.34711088417E+02  0.42147425474E+02 -0.36800921087E+02  0.14135996966E+03  0.12508824124E+03 0.  0.
          5    1    3    3  502    0  0.21309369721E+02 -0.79217910286E+01  0.31947754983E+02  0.39433177142E+02  0.41800000000E+01 0.  1.
         -5    1    3    3    0  502 -0.56020458138E+02  0.50069216502E+02 -0.68748676070E+02  0.10192679252E+03  0.41800000000E+01 0.  1.
        -11    1    1    2    0    0  0.95283039793E+01 -0.14585324005E+02 -0.36339554353E+02  0.40299918904E+02  0.00000000000E+00 0.  1.
         11    1    1    2    0    0  0.25182784438E+02 -0.27562101469E+02  0.56298203454E+02  0.67552422470E+02  0.00000000000E+00 0. -1.
</event>
<event>
 7    1  0.3056346E-009  0.9504878E+02  0.7561462E-02  0.1291066E+00
          1   -1    0    0  501    0  0.00000000000E+00  0.00000000000E+00  0.33018959711E+02  0.33018959711E+02  0.00000000000E+00 0. -1.
         -1   -1    0    0    0  501 -0.00000000000E+00 -0.00000000000E+00 -0.59606347384E+03  0.59606347384E+03  0.00000000000E+00 0.  1.
         25    2    1    2    0    0 -0.60994245918E+02  0.38225930278E+02 -0.37823195267E+03  0.40483152490E+03  0.12509050224E+03 0.  0.
          5    1    3    3  502    0 -0.83624170995E+01 -0.10434021119E+02  0.50425802975E+01  0.14889554477E+02  0.41800000000E+01 0.  1.
         -5    1    3    3    0  502 -0.52631828818E+02  0.48659951397E+02 -0.38327453297E+03  0.38994197042E+03  0.41800000000E+01 0.  1.
        -11    1    1    2    0    0  0.74197548887E+02 -0.12324132150E+02 -0.17960139320E+03  0.19471471679E+03  0.00000000000E+00 0.  1.
         11    1    1    2    0    0 -0.13203302969E+02 -0.25901798127E+02 -0.52111682638E+01  0.29536191870E+02  0.00000000000E+00 0. -1.
</event>
<event>
 7    1  0.3056346E-009  0.7053137E+02  0.7561462E-02  0.1358295E+00
         -1   -1    0    0    0  501 -0.00000000000E+00  0.00000000000E+00  0.62679561421E+02  0.62679561421E+02  0.00000000000E+00 0.  1.
          1   -1    0    0  501    0  0.00000000000E+00 -0.00000000000E+00 -0.20477862398E+03  0.20477862398E+03  0.00000000000E+00 0. -1.
         25    2    1    2    0    0 -0.24141380400E+02  0.21383610644E+02 -0.67660523182E+02  0.14581992000E+03  0.12508172377E+03 0.  0.
          5    1    3    3  502    0 -0.49392190232E+02  0.28329103271E+02  0.14982458927E+02  0.59026036828E+02  0.41800000000E+01 0.  1.
         -5    1    3    3    0  502  0.25250809832E+02 -0.69454926267E+01 -0.82642982109E+02  0.86793883177E+02  0.41800000000E+01 0.  1.
        -11    1    1    2    0    0  0.38524832635E+02 -0.18678536564E+02 -0.90373493919E+02  0.10000209428E+03  0.00000000000E+00 0. -1.
         11    1    1    2    0    0 -0.14383452235E+02 -0.27050740803E+01  0.15934954545E+02  0.21636171111E+02  0.00000000000E+00 0.  1.
</event>
<event>
 7    1  0.3056346E-009  0.9111529E+02  0.7561462E-02  0.1300173E+00
         -1   -1    0    0    0  501 -0.00000000000E+00  0.00000000000E+00  0.73754271942E+02  0.73754271942E+02  0.00000000000E+00 0.  1.
          1   -1    0    0  501    0  0.00000000000E+00 -0.00000000000E+00 -0.21986724144E+03  0.21986724144E+03  0.00000000000E+00 0. -1.
         25    2    1    2    0    0 -0.49466782502E+02  0.45081413229E+02 -0.91142526003E+02  0.16862285479E+03  0.12508961077E+03 0.  0.
          5    1    3    3  502    0 -0.34092229698E+02 -0.65744704117E+01  0.23322883345E+02  0.42034903051E+02  0.41800000000E+01 0. -1.
         -5    1    3    3    0  502 -0.15374552804E+02  0.51655883640E+02 -0.11446540935E+03  0.12658795174E+03  0.41800000000E+01 0. -1.
        -11    1    1    2    0    0  0.40111739775E+02  0.66261040321E+01 -0.59711825866E+02  0.72238210600E+02  0.00000000000E+00 0. -1.
         11    1    1    2    0    0  0.93550427275E+01 -0.51707517261E+02  0.47413823684E+01  0.52760447994E+02  0.00000000000E+00 0.  1.
</event>
<event>
 7    1  0.3056346E-009  0.9956511E+02  0.7561462E-02  0.1281213E+00
         -4   -1    0    0    0  501 -0.00000000000E+00  0.00000000000E+00  0.45336957764E+02  0.45336957764E+02  0.00000000000E+00 0.  1.
          4   -1    0    0  501    0  0.00000000000E+00 -0.00000000000E+00 -0.26629906962E+03  0.26629906962E+03  0.00000000000E+00 0. -1.
         25    2    1    2    0    0  0.33472620339E+01  0.68512085877E+01 -0.10420197991E+03  0.16298913368E+03  0.12509700980E+03 0.  0.
          5    1    3    3  502    0  0.50087136002E+02  0.31493613667E+02 -0.90565917198E+02  0.10825999562E+03  0.41800000000E+01 0.  1.
         -5    1    3    3    0  502 -0.46739873968E+02 -0.24642405079E+02 -0.13636062709E+02  0.54729138060E+02  0.41800000000E+01 0.  1.
        -11    1    1    2    0    0 -0.33570630591E+02 -0.32833414755E+02 -0.38117163380E+02  0.60480893735E+02  0.00000000000E+00 0. -1.
         11    1    1    2    0    0  0.30223368557E+02  0.25982206168E+02 -0.78642968568E+02  0.88165999963E+02  0.00000000000E+00 0.  1.
</event>
<event>
 7    1  0.3105736E-009  0.1419886E+03  0.7561462E-02  0.1210678E+00
         -2   -1    0    0    0  501 -0.00000000000E+00  0.00000000000E+00  0.17118410218E+02  0.17118410218E+02  0.00000000000E+00 0. -1.
          2   -1    0    0  501    0  0.00000000000E+00 -0.00000000000E+00 -0.13316157960E+04  0.13316157960E+04  0.00000000000E+00 0.  1.
         25    2    1    2    0    0  0.87186152058E+02  0.56987707270E+02 -0.68047177536E+03  0.69966634321E+03  0.12506850469E+03 0.  0.
          5    1    3    3  502    0  0.94950790162E+02  0.77662662292E+02 -0.40276355325E+03  0.42104998978E+03  0.41800000000E+01 0. -1.
         -5    1    3    3    0  502 -0.77646381036E+01 -0.20674955023E+02 -0.27770822210E+03  0.27861635342E+03  0.41800000000E+01 0. -1.
        -11    1    1    2    0    0 -0.92442762930E+02 -0.11711293302E+02 -0.41067237032E+03  0.42111116650E+03  0.00000000000E+00 0.  1.
         11    1    1    2    0    0  0.52566108718E+01 -0.45276413968E+02 -0.22335324015E+03  0.22795669656E+03  0.00000000000E+00 0. -1.
</event>
<event>
 7    1  0.3056346E-009  0.1482623E+03  0.7561462E-02  0.1202625E+00
          1   -1    0    0  501    0  0.00000000000E+00  0.00000000000E+00  0.17510918079E+03  0.17510918079E+03  0.00000000000E+00 0. -1.
         -1   -1    0    0    0  501 -0.00000000000E+00 -0.00000000000E+00 -0.14877945225E+03  0.14877945225E+03  0.00000000000E+00 0.  1.
         25    2    1    2    0    0  0.11454017103E+03 -0.30427195352E+02  0.23488303026E+02  0.17389316228E+03  0.12506744785E+03 0.  0.
          5    1    3    3  502    0  0.84399691660E+02 -0.60388984301E+02 -0.27443144684E+02  0.10742781748E+03  0.41800000000E+01 0.  1.
         -5    1    3    3    0  502  0.30140479369E+02  0.29961788950E+02  0.50931447710E+02  0.66465344801E+02  0.41800000000E+01 0.  1.
        -11    1    1    2    0    0 -0.25595764706E+01 -0.24916048942E+02  0.11616069358E+01  0.25074095343E+02  0.00000000000E+00 0.  1.
         11    1    1    2    0    0 -0.11198059456E+03  0.55343244294E+02  0.16798185781E+01  0.12492137542E+03  0.00000000000E+00 0. -1.
</event>
<event>
 6    1  0.3056346E-009  0.7302415E+02  0.7561462E-02  0.1350101E+00
         -4   -1    0    0    0  501 -0.00000000000E+00  0.00000000000E+00  0.47613111449E+02  0.47613111449E+02  0.00000000000E+00 0.  1.
          4   -1    0    0  501    0  0.00000000000E+00 -0.00000000000E+00 -0.36328801004E+03  0.36328801004E+03  0.00000000000E+00 0. -1.
          5    1    1    2  502    0  0.34893305418E+01  0.18216691431E+02  0.66360373629E+01  0.20137841647E+02  0.41800000000E+01 0. -1.
         -5    1    1    2    0  502 -0.54742722268E+02 -0.80058145852E+01 -0.27602243288E+03  0.28154345058E+03  0.41800000000E+01 0. -1.
        -11    1    1    2    0    0  0.17814172462E+02 -0.28371161006E+02  0.15296432296E+02  0.36827277368E+02  0.00000000000E+00 0.  1.
         11    1    1    2    0    0  0.33439219264E+02  0.18160284161E+02 -0.61584935367E+02  0.72392551895E+02  0.00000000000E+00 0. -1.
</event>
<event>
 7    1  0.3056346E-009  0.8553008E+02  0.7561462E-02  0.1314052E+00
         -1   -1    0    0    0  501 -0.00000000000E+00  0.00000000000E+00  0.27031926359E+02  0.27031926359E+02  0.00000000000E+00 0.  1.
          1   -1    0    0  501    0  0.00000000000E+00 -0.00000000000E+00 -0.88105286457E+03  0.88105286457E+03  0.00000000000E+00 0. -1.
         25    2    1    2    0    0 -0.29382092796E+02 -0.11665653381E+02 -0.77331452037E+03  0.78400351893E+03  0.12508707142E+03 0.  0.
          5    1    3    3  502    0  0.23631487369E+02  0.43441070936E+02 -0.38721471801E+03  0.39038222818E+03  0.41800000000E+01 0.  1.
         -5    1    3    3    0  502 -0.53013580165E+02 -0.55106724317E+02 -0.38609980236E+03  0.39362129075E+03  0.41800000000E+01 0.  1.
        -11    1    1    2    0    0  0.12144862105E+02 -0.10992222201E+02 -0.92005031549E+02  0.93451872398E+02  0.00000000000E+00 0. -1.
         11    1    1    2    0    0  0.17237230690E+02  0.22657875582E+02  0.11298613710E+02  0.30629399595E+02  0.00000000000E+00 0.  1.
</event>
<event>
 7    1  0.3056346E-009  0.1078593E+03  0.7561462E-02  0.1264586E+00
          1   -1    0    0  501    0  0.00000000000E+00  0.00000000000E+00  0.14828508628E+04  0.14828508628E+04  0.00000000000E+00 0. -1.
         -1   -1    0    0    0  501 -0.00000000000E+00 -0.00000000000E+00 -0.10308315186E+02  0.10308315186E+02  0.00000000000E+00 0.  1.
         25    2    1    2    0    0  0.50162551591E+01  0.23427931630E+02  0.11769741254E+04  0.11838454483E+04  0.12509165749E+03 0.  0.
          5    1    3    3  502    0  0.19367928631E+02  0.72533741949E+02  0.76481476713E+03  0.76850202394E+03  0.41800000000E+01 0. -1.
         -5    1    3    3    0  502 -0.14351673472E+02 -0.49105810320E+02  0.41215935827E+03  0.41534342435E+03  0.41800000000E+01 0. -1.
        -11    1    1    2    0    0 -0.13818335954E+02  0.31063883775E+02  0.82951462808E+02  0.89648516250E+02  0.00000000000E+00 0.  1.
         11    1    1    2    0    0  0.88020807945E+01 -0.54491815404E+02  0.21261695936E+03  0.21966521340E+03  0.00000000000E+00 0. -1.
</event>
<event>
 7    1  0.3056346E-009  0.9519106E+02  0.7561462E-02  0.1290746E+00
         -2   -1    0    0    0  501 -0.00000000000E+00  0.00000000000E+00  0.16015172794E+03  0.16015172794E+03  0.00000000000E+00 0.  1.
          2   -1    0    0  501    0  0.00000000000E+00 -0.00000000000E+00 -0.96554575816E+02  0.96554575816E+02  0.00000000000E+00 0. -1.
         25    2    1    2    0    0 -0.32141091506E+01 -0.61963965613E+02  0.47492711587E+02  0.14748932485E+03  0.12509068613E+03 0.  0.
          5    1    3    3  502    0 -0.14218682279E+02 -0.68864887474E+02 -0.24220657978E+02  0.74489303430E+02  0.41800000000E+01 0. -1.
         -5    1    3    3    0  502  0.11004573129E+02  0.69009218615E+01  0.71713369565E+02  0.73000021415E+02  0.41800000000E+01 0. -1.
        -11    1    1    2    0    0  0.32800797356E+02 -0.49121875647E+01  0.14159199075E+02  0.36062512563E+02  0.00000000000E+00 0.  1.
         11    1    1    2    0    0 -0.29586688206E+02  0.66876153177E+02  0.19452414653E+01  0.73154466351E+02  0.00000000000E+00 0. -1.
</event>
<event>
 7    1  0.3056346E-009  0.1024494E+03  0.7561462E-02  0.1275228E+00
          2   -1    0    0  501    0  0.00000000000E+00  0.00000000000E+00  0.25345183314E+03  0.25345183314E+03  0.00000000000E+00 0. -1.
         -2   -1    0    0    0  501 -0.00000000000E+00 -0.00000000000E+00 -0.58621659142E+02  0.58621659142E+02  0.00000000000E+00 0.  1.
         25    2    1    2    0    0  0.52578459476E-01  0.54953207839E+02  0.10964940105E+03  0.17516951129E+03  0.12506601744E+03 0.  0.
          5    1    3    3  502    0  0.55293084622E+02  0.57292226835E+02  0.52044479069E+02  0.95214624214E+02  0.41800000000E+01 0. -1.
         -5    1    3    3    0  502 -0.55240506162E+02 -0.23390189953E+01  0.57604921984E+02  0.79954887078E+02  0.41800000000E+01 0. -1.
        -11    1    1    2    0    0 -0.19971684402E+02 -0.14671879898E+02 -0.13681784768E+02  0.28307657480E+02  0.00000000000E+00 0.  1.
         11    1    1    2    0    0  0.19919105942E+02 -0.40281327942E+02  0.98862557711E+02  0.10859632351E+03  0.00000000000E+00 0. -1.
</event>
<event>
 7    1  0.3056346E-009  0.1024606E+03  0.7561462E-02  0.1275205E+00
          1   -1    0    0  501    0  0.00000000000E+00  0.00000000000E+00  0.12886028179E+03  0.12886028179E+03  0.00000000000E+00 0. -1.
         -1   -1    0    0    0  501 -0.00000000000E+00 -0.00000000000E+00 -0.98489252404E+02  0.98489252404E+02  0.00000000000E+00 0.  1.
         25    2    1    2    0    0  0.20359651165E+02  0.16535725980E+00  0.35645040007E+02  0.13165272365E+03  0.12508928023E+03 0.  0.
          5    1    3    3  502    0 -0.19876935470E+02 -0.54323013069E+02  0.87421983464E+01  0.58651349042E+02  0.41800000000E+01 0. -1.
         -5    1    3    3    0  502  0.40236586635E+02  0.54488370329E+02  0.26902841661E+02  0.73001374607E+02  0.41800000000E+01 0. -1.
        -11    1    1    2    0    0 -0.89929062414E+01  0.38098303101E+02 -0.29489063686E+02  0.49009773913E+02  0.00000000000E+00 0.  1.
         11    1    1    2    0    0 -0.11366744923E+02 -0.38263660361E+02  0.24215053062E+02  0.46687036629E+02  0.00000000000E+00 0. -1.
</event>
<event>
 7    1  0.3056346E-009  0.1167618E+03  0.7561462E-02  0.1248537E+00
         -1   -1    0    0    0  501 -0.00000000000E+00  0.00000000000E+00  0.85230209524E+02  0.85230209524E+02  0.00000000000E+00 0.  1.
          1   -1    0    0  501    0  0.00000000000E+00 -0.00000000000E+00 -0.42846305222E+03  0.42846305222E+03  0.00000000000E+00 0. -1.
         25    2    1    2    0    0  0.56857459664E+02  0.28164878231E+02  0.12818169252E+02  0.14084551567E+03  0.12508845965E+03 0.  0.
          5    1    3    3  502    0  0.88108376586E+02  0.36563585693E+02 -0.16594663478E+02  0.96916650165E+02  0.41800000000E+01 0.  1.
         -5    1    3    3    0  502 -0.31250916922E+02 -0.83987074619E+01  0.29412832729E+02  0.43928865506E+02  0.41800000000E+01 0.  1.
        -11    1    1    2    0    0 -0.71348087078E+02  0.26079382731E+01 -0.18197069168E+03  0.19547553172E+03  0.00000000000E+00 0.  1.
         11    1    1    2    0    0  0.14490627414E+02 -0.30772816504E+02 -0.17408032027E+03  0.17737221436E+03  0.00000000000E+00 0. -1.
</event>
<event>
 7    1  0.3056346E-009  0.2084356E+03  0.7561462E-02  0.1142811E+00
         -1   -1    0    0    0  501 -0.00000000000E+00  0.00000000000E+00  0.29400515454E+02  0.29400515454E+02  0.00000000000E+00 0.  1.
          1   -1    0    0  501    0  0.00000000000E+00 -0.00000000000E+00 -0.17440582196E+04  0.17440582196E+04  0.00000000000E+00 0. -1.
         25    2    1    2    0    0 -0.14090623923E+03 -0.10852977640E+03 -0.12256420397E+04  0.12447818478E+04  0.12510059362E+03 0.  0.
          5    1    3    3  502    0 -0.16224654790E+03 -0.10781414464E+03 -0.10655962344E+04  0.10832638826E+04  0.41800000000E+01 0. -1.
         -5    1    3    3    0  502  0.21340308671E+02 -0.71563176589E+00 -0.16004580531E+03  0.16151796526E+03  0.41800000000E+01 0. -1.
        -11    1    1    2    0    0  0.29878459682E+02 -0.15617835793E+02 -0.67555036727E+02  0.75500477714E+02  0.00000000000E+00 0. -1.
         11    1    1    2    0    0  0.11102777954E+03  0.12414761220E+03 -0.42146062773E+03  0.45317640955E+03  0.00000000000E+00 0.  1.
</event>
<event>
 7    1  0.3056346E-009  0.1176966E+03  0.7561462E-02  0.1246946E+00
          2   -1    0    0  501    0  0.00000000000E+00  0.00000000000E+00  0.76793680572E+03  0.76793680572E+03  0.00000000000E+00 0.  1.
         -2   -1    0    0    0  501 -0.00000000000E+00 -0.00000000000E+00 -0.25529166254E+02  0.25529166254E+02  0.00000000000E+00 0. -1.
         25    2    1    2    0    0 -0.45752733491E+02 -0.45748393617E+02  0.57974553076E+03  0.59660623205E+03  0.12509151668E+03 0.  0.
          5    1    3    3  502    0  0.27089155056E+02 -0.56799398702E+02  0.33856412343E+03  0.34438805451E+03  0.41800000000E+01 0. -1.
         -5    1    3    3    0  502 -0.72841888546E+02  0.11051005086E+02  0.24118140732E+03  0.25221817753E+03  0.41800000000E+01 0. -1.
        -11    1    1    2    0    0 -0.11025469978E+02 -0.12854534667E+02  0.75857533522E+02  0.77724934492E+02  0.00000000000E+00 0.  1.
         11    1    1    2    0    0  0.56778203469E+02  0.58602928284E+02  0.86804575183E+02  0.11913480543E+03  0.00000000000E+00 0. -1.
</event>
<event>
 7    1  0.3056346E-009  0.1145430E+03  0.7561462E-02  0.1252381E+00
         -1   -1    0    0    0  501 -0.00000000000E+00  0.00000000000E+00  0.47951887427E+02  0.47951887427E+02  0.00000000000E+00 0.  1.
          1   -1    0    0  501    0  0.00000000000E+00 -0.00000000000E+00 -0.30926658104E+03  0.30926658104E+03  0.00000000000E+00 0. -1.
         25    2    1    2    0    0  0.52171749579E+02 -0.16865191917E+02 -0.17573377544E+03  0.22254612924E+03  0.12505236366E+03 0.  0.
          5    1    3    3  502    0  0.57747276356E+02 -0.63810623429E+02 -0.13419716123E+03  0.15947693899E+03  0.41800000000E+01 0. -1.
         -5    1    3    3    0  502 -0.55755267768E+01  0.46945431512E+02 -0.41536614214E+02  0.63069190252E+02  0.41800000000E+01 0. -1.
        -11    1    1    2    0    0 -0.70086276195E+02 -0.10967891833E+01 -0.35589144985E+02  0.78612189247E+02  0.00000000000E+00 0.  1.
         11    1    1    2    0    0  0.17914526616E+02  0.17961981101E+02 -0.49991773189E+02  0.56060149978E+02  0.00000000000E+00 0. -1.
</event>
<event>
 7    1  0.3056346E-009  0.1432823E+03  0.7561462E-02  0.1208979E+00
         -1   -1    0    0    0  501 -0.00000000000E+00  0.00000000000E+00  0.48764752232E+02  0.48764752232E+02  0.00000000000E+00 0.  1.
          1   -1    0    0  501    0  0.00000000000E+00 -0.00000000000E+00 -0.63700074646E+03  0.63700074646E+03  0.00000000000E+00 0. -1.
         25    2    1    2    0    0  0.74401998428E+02  0.73276778138E+02 -0.47369973127E+03  0.50094348129E+03  0.12509113660E+03 0.  0.
          5    1    3    3  502    0 -0.27250437223E+02  0.51982051533E+02 -0.16045715772E+03  0.17090550569E+03  0.41800000000E+01 0.  1.
         -5    1    3    3    0  502  0.10165243565E+03  0.21294726606E+02 -0.31324257355E+03  0.33003797560E+03  0.41800000000E+01 0.  1.
        -11    1    1    2    0    0 -0.52135171725E+02 -0.54811512971E+01 -0.98654110021E+02  0.11171728861E+03  0.00000000000E+00 0. -1.
         11    1    1    2    0    0 -0.22266826703E+02 -0.67795626841E+02 -0.15882152939E+02  0.73104728795E+02  0.00000000000E+00 0.  1.
</event>
<event>
 7    1  0.3056346E-009  0.4357335E+03  0.7561462E-02  0.1032064E+00
         -2   -1    0    0    0  501 -0.00000000000E+00  0.00000000000E+00  0.89997044854E+02  0.89997044854E+02  0.00000000000E+00 0.  1.
          2   -1    0    0  501    0  0.00000000000E+00 -0.00000000000E+00 -0.25213244989E+04  0.25213244989E+04  0.00000000000E+00 0. -1.
         25    2    1    2    0    0  0.40063246957E+03 -0.16799899627E+03 -0.78067600480E+03  0.90212650400E+03  0.12508863390E+03 0.  0.
          5    1    3    3  502    0  0.22519329422E+03 -0.11916899842E+03 -0.33683789654E+03  0.42236300843E+03  0.41800000000E+01 0. -1.
         -5    1    3    3    0  502  0.17543917534E+03 -0.48829997850E+02 -0.44383810826E+03  0.47976349557E+03  0.41800000000E+01 0. -1.
        -11    1    1    2    0    0 -0.82544713897E+02  0.37937787294E+02 -0.22362068505E+03  0.24136925297E+03  0.00000000000E+00 0.  1.
         11    1    1    2    0    0 -0.31808775567E+03  0.13006120898E+03 -0.14270307642E+04  0.14678257868E+04  0.00000000000E+00 0. -1.
</event>
<event>
 7    1  0.3056346E-009  0.1017727E+03  0.7561462E-02  0.1276612E+00
          2   -1    0    0  501    0  0.00000000000E+00  0.00000000000E+00  0.94583210279E+03  0.94583210279E+03  0.00000000000E+00 0.  1.
         -2   -1    0    0    0  501 -0.00000000000E+00 -0.00000000000E+00 -0.15854469899E+02  0.15854469899E+02  0.00000000000E+00 0. -1.
         25    2    1    2    0    0  0.20022071837E+02 -0.12020655260E+02  0.75081920683E+03  0.76152654790E+03  0.12509125588E+03 0.  0.
          5    1    3    3  502    0  0.27719467352E+02 -0.65912217725E+02  0.47310045603E+03  0.47849169607E+03  0.41800000000E+01 0. -1.
         -5    1    3    3    0  502 -0.76973955152E+01  0.53891562464E+02  0.27771875080E+03  0.28303485183E+03  0.41800000000E+01 0. -1.
        -11    1    1    2    0    0  0.13326720813E+02 -0.24484412198E+02  0.22315820930E+02  0.35708315447E+02  0.00000000000E+00 0. -1.
         11    1    1    2    0    0 -0.33348792650E+02  0.36505067458E+02  0.15684260513E+03  0.16445170934E+03  0.00000000000E+00 0.  1.
</event>
<event>
 7    1  0.3056346E-009  0.1155203E+03  0.7561462E-02  0.1250676E+00
          2   -1    0    0  501    0  0.00000000000E+00  0.00000000000E+00  0.24728508298E+03  0.24728508298E+03  0.00000000000E+00 0. -1.
         -2   -1    0    0    0  501 -0.00000000000E+00 -0.00000000000E+00 -0.88219251519E+02  0.88219251519E+02  0.00000000000E+00 0.  1.
         25    2    1    2    0    0 -0.76955577284E+02 -0.25489429461E+02  0.19356121664E+02  0.15030684167E+03  0.12508243408E+03 0.  0.
          5    1    3    3  502    0 -0.26127209738E+02 -0.73710346861E+02  0.37484605230E+01  0.78405163601E+02  0.41800000000E+01 0.  1.
         -5    1    3    3    0  502 -0.50828367546E+02  0.48220917400E+02  0.15607661141E+02  0.71901678065E+02  0.41800000000E+01 0.  1.
        -11    1    1    2    0    0  0.15168213006E+02 -0.12356530876E+01 -0.11896782487E+02  0.19316701527E+02  0.00000000000E+00 0.  1.
         11    1    1    2    0    0  0.61787364278E+02  0.26725082549E+02  0.15160649228E+03  0.16588079130E+03  0.00000000000E+00 0. -1.
</event>
<event>
 7    1  0.3056346E-009  0.1120615E+03  0.7561462E-02  0.1256799E+00
          2   -1    0    0  501    0  0.00000000000E+00  0.00000000000E+00  0.14169700225E+03  0.14169700225E+03  0.00000000000E+00 0. -1.
         -2   -1    0    0    0  501 -0.00000000000E+00 -0.00000000000E+00 -0.11647294376E+03  0.11647294376E+03  0.00000000000E+00 0.  1.
         25    2    1    2    0    0  0.33181233713E+02  0.57424475345E+02  0.32007383031E+00  0.14158471760E+03  0.12509022812E+03 0.  0.
          5    1    3    3  502    0 -0.20291936347E+02  0.76272175311E+02  0.19817903509E+02  0.81482692070E+02  0.41800000000E+01 0.  1.
         -5    1    3    3    0  502  0.53473170060E+02 -0.18847699966E+02 -0.19497829679E+02  0.60102025527E+02  0.41800000000E+01 0.  1.
        -11    1    1    2    0    0 -0.35989287559E+02 -0.57035234680E+01 -0.25371274438E+02  0.44401132481E+02  0.00000000000E+00 0.  1.
         11    1    1    2    0    0  0.28080538459E+01 -0.51720951877E+02  0.50275259096E+02  0.72184095940E+02  0.00000000000E+00 0. -1.
</event>
<event>
 7    1  0.3056346E-009  0.1102544E+03  0.7561462E-02  0.1260100E+00
         -2   -1    0    0    0  501 -0.00000000000E+00  0.00000000000E+00  0.67888223859E+03  0.67888223859E+03  0.00000000000E+00 0.  1.
          2   -1    0    0  501    0  0.00000000000E+00 -0.00000000000E+00 -0.26360080882E+02  0.26360080882E+02  0.00000000000E+00 0. -1.
         25    2    1    2    0    0 -0.77370725975E+02 -0.19129170391E+02  0.33417535934E+03  0.36561377052E+03  0.12509238188E+03 0.  0.
          5    1    3    3  502    0 -0.44026893720E+02 -0.49480134125E+02  0.30409271369E+03  0.31124990275E+03  0.41800000000E+01 0.  1.
         -5    1    3    3    0  502 -0.33343832254E+02  0.30350963734E+02  0.30082645646E+02  0.54363867762E+02  0.41800000000E+01 0.  1.
        -11    1    1    2    0    0  0.38308751952E+00  0.30968180520E+02  0.39999265032E+02  0.50587707637E+02  0.00000000000E+00 0. -1.
         11    1    1    2    0    0  0.76987638455E+02 -0.11839010129E+02  0.27834753334E+03  0.28904084132E+03  0.00000000000E+00 0.  1.
</event>
<event>
 7    1  0.3056346E-009  0.1636458E+03  0.7561462E-02  0.1184641E+00
         -1   -1    0    0    0  501 -0.00000000000E+00  0.00000000000E+00  0.54073738728E+03  0.54073738728E+03  0.00000000000E+00 0.  1.
          1   -1    0    0  501    0  0.00000000000E+00 -0.00000000000E+00 -0.12086275758E+03  0.12086275758E+03  0.00000000000E+00 0. -1.
         25    2    1    2    0    0  0.21992332944E+02  0.14422872732E+03 -0.18042532874E+02  0.19302543070E+03  0.12509074870E+03 0.  0.
          5    1    3    3  502    0  0.50001627610E+02  0.29832127203E+02  0.30152019611E+02  0.65701866517E+02  0.41800000000E+01 0.  1.
         -5    1    3    3    0  502 -0.28009294667E+02  0.11439660012E+03 -0.48194552484E+02  0.12732356418E+03  0.41800000000E+01 0.  1.
        -11    1    1    2    0    0 -0.39409787925E+01 -0.12357056495E+03  0.41437128656E+03  0.43242199176E+03  0.00000000000E+00 0.  1.
         11    1    1    2    0    0 -0.18051354151E+02 -0.20658162372E+02  0.23545876010E+02  0.36152722392E+02  0.00000000000E+00 0. -1.
</event>
<event>
 7    1  0.3056346E-009  0.7832320E+02  0.7561462E-02  0.1333878E+00
          3   -1    0    0  501    0  0.00000000000E+00  0.00000000000E+00  0.46793755379E+03  0.46793755379E+03  0.00000000000E+00 0. -1.
         -3   -1    0    0    0  501 -0.00000000000E+00 -0.00000000000E+00 -0.34452493333E+02  0.34452493333E+02  0.00000000000E+00 0.  1.
         25    2    1    2    0    0  0.25767161040E+02 -0.11043254578E+02  0.12533088676E+03  0.17928015421E+03  0.12509053704E+03 0.  0.
          5    1    3    3  502    0  0.27401358583E+02  0.23719774494E+02 -0.11325984210E+02  0.38199639692E+02  0.41800000000E+01 0.  1.
         -5    1    3    3    0  502 -0.16341975435E+01 -0.34763029072E+02  0.13665687097E+03  0.14108051451E+03  0.41800000000E+01 0.  1.
        -11    1    1    2    0    0  0.39649843789E+00  0.43456141185E+02  0.78664555386E+02  0.89870494000E+02  0.00000000000E+00 0.  1.
         11    1    1    2    0    0 -0.26163659478E+02 -0.32412886607E+02  0.22948961831E+03  0.23323939892E+03  0.00000000000E+00 0. -1.
</event>
<event>
 7    1  0.3056346E-009  0.1128963E+03  0.7561462E-02  0.1255298E+00
         -1   -1    0    0    0  501 -0.00000000000E+00  0.00000000000E+00  0.32226610385E+02  0.32226610385E+02  0.00000000000E+00 0.  1.
          1   -1    0    0  501    0  0.00000000000E+00 -0.00000000000E+00 -0.10287495833E+04  0.10287495833E+04  0.00000000000E+00 0. -1.
         25    2    1    2    0    0  0.28729602472E+02 -0.50095869387E+02 -0.90767437739E+03  0.91807224014E+03  0.12509546977E+03 0.  0.
          5    1    3    3  502    0 -0.12176380221E+01 -0.83447153523E+02 -0.41394396514E+03  0.42229372332E+03  0.41800000000E+01 0. -1.
         -5    1    3    3    0  502  0.29947240494E+02  0.33351284136E+02 -0.49373041225E+03  0.49577851682E+03  0.41800000000E+01 0. -1.
        -11    1    1    2    0    0 -0.48258333805E+02  0.58600561851E+02 -0.32341953052E+02  0.82516026068E+02  0.00000000000E+00 0.  1.
         11    1    1    2    0    0  0.19528731333E+02 -0.85046924642E+01 -0.56506642453E+02  0.60387927458E+02  0.00000000000E+00 0. -1.
</event>
<event>
 7    1  0.3056346E-009  0.1043456E+03  0.7561462E-02  0.1271414E+00
         -1   -1    0    0    0  501 -0.00000000000E+00  0.00000000000E+00  0.18692858427E+03  0.18692858427E+03  0.00000000000E+00 0.  1.
          1   -1    0    0  501    0  0.00000000000E+00 -0.00000000000E+00 -0.22042490667E+03  0.22042490667E+03  0.00000000000E+00 0. -1.
         25    2    1    2    0    0  0.88267370300E+02 -0.46978886692E+02  0.12193752661E+03  0.20128497632E+03  0.12509491134E+03 0.  0.
          5    1    3    3  502    0  0.45928072170E+02 -0.84407542086E+01 -0.17852093579E+02  0.50167756478E+02  0.41800000000E+01 0. -1.
         -5    1    3    3    0  502  0.42339298130E+02 -0.38538132484E+02  0.13978962019E+03  0.15111721985E+03  0.41800000000E+01 0. -1.
        -11    1    1    2    0    0 -0.64495281214E+02  0.18077734703E+02 -0.26870743381E+02  0.72169818073E+02  0.00000000000E+00 0.  1.
         11    1    1    2    0    0 -0.23772089087E+02  0.28901151989E+02 -0.12856310563E+03  0.13389869654E+03  0.00000000000E+00 0. -1.
</event>
<event>
 7    1  0.3056346E-009  0.9912993E+02  0.7561462E-02  0.1282136E+00
         -2   -1    0    0    0  501 -0.00000000000E+00  0.00000000000E+00  0.28048114789E+03  0.28048114789E+03  0.00000000000E+00 0.  1.
          2   -1    0    0  501    0  0.00000000000E+00 -0.00000000000E+00 -0.55497549692E+02  0.55497549692E+02  0.00000000000E+00 0. -1.
         25    2    1    2    0    0  0.97537866219E+01  0.13848728897E+02  0.20652686789E+03  0.24204937937E+03  0.12509049224E+03 0.  0.
          5    1    3    3  502    0  0.45947419560E+02 -0.29902625918E+02  0.15782076118E+03  0.16712330017E+03  0.41800000000E+01 0. -1.
         -5    1    3    3    0  502 -0.36193632938E+02  0.43751354815E+02  0.48706106715E+02  0.74926079203E+02  0.41800000000E+01 0. -1.
        -11    1    1    2    0    0 -0.19278960551E+01  0.35916233055E+02  0.24013195008E+02  0.43247267134E+02  0.00000000000E+00 0.  1.
         11    1    1    2    0    0 -0.78258905668E+01 -0.49764961952E+02 -0.55564647012E+01  0.50682051076E+02  0.00000000000E+00 0. -1.
</event>
<event>
 7    1  0.3056346E-009  0.1434368E+03  0.7561462E-02  0.1208778E+00
         -2   -1    0    0    0  501 -0.00000000000E+00  0.00000000000E+00  0.46684293594E+02  0.46684293594E+02  0.00000000000E+00 0.  1.
          2   -1    0    0  501    0  0.00000000000E+00 -0.00000000000E+00 -0.72352464826E+03  0.72352464826E+03  0.00000000000E+00 0. -1.
         25    2    1    2    0    0 -0.63217901033E+02 -0.10326555060E+03 -0.53844552564E+03  0.56588995060E+03  0.12509026802E+03 0.  0.
          5    1    3    3  502    0 -0.20643304163E+02 -0.10718704823E+03 -0.48585679377E+03  0.49798544734E+03  0.41800000000E+01 0.  1.
         -5    1    3    3    0  502 -0.42574596869E+02  0.39214976311E+01 -0.52588731877E+02  0.67904503258E+02  0.41800000000E+01 0.  1.
        -11    1    1    2    0    0  0.73990123402E+02  0.79605105023E+02 -0.14118718629E+03  0.17817219951E+03  0.00000000000E+00 0.  1.
         11    1    1    2    0    0 -0.10772222369E+02  0.23660445574E+02  0.27923572632E+01  0.26146791746E+02  0.00000000000E+00 0. -1.
</event>
<event>
 7    1  0.3056346E-009  0.1175971E+03  0.7561462E-02  0.1247115E+00
          1   -1    0    0  501    0  0.00000000000E+00  0.00000000000E+00  0.34628540282E+03  0.34628540282E+03  0.00000000000E+00 0. -1.
         -1   -1    0    0    0  501 -0.00000000000E+00 -0.00000000000E+00 -0.69232952996E+02  0.69232952996E+02  0.00000000000E+00 0.  1.
         25    2    1    2    0    0  0.55170652149E+02  0.81183231500E+02  0.24270071424E+03  0.29014798704E+03  0.12509076607E+03 0.  0.
          5    1    3    3  502    0  0.81421918123E+02  0.60356278013E+02  0.96183834934E+02  0.13978988357E+03  0.41800000000E+01 0. -1.
         -5    1    3    3    0  502 -0.26251265973E+02  0.20826953487E+02  0.14651687930E+03  0.15035810347E+03  0.41800000000E+01 0. -1.
        -11    1    1    2    0    0 -0.18373854788E+01 -0.14414769613E+02 -0.19533036880E+02  0.24345453336E+02  0.00000000000E+00 0.  1.
         11    1    1    2    0    0 -0.53333266671E+02 -0.66768461888E+02  0.53884772466E+02  0.10102491544E+03  0.00000000000E+00 0. -1.
</event>
<event>
 7    1  0.3056346E-009  0.9371755E+02  0.7561462E-02  0.1294091E+00
         -2   -1    0    0    0  501 -0.00000000000E+00  0.00000000000E+00  0.11537610170E+03  0.11537610170E+03  0.00000000000E+00 0.  1.
          2   -1    0    0  501    0  0.00000000000E+00 -0.00000000000E+00 -0.15829801439E+03  0.15829801439E+03  0.00000000000E+00 0. -1.
         25    2    1    2    0    0 -0.79201275411E+02 -0.11257264576E+02 -0.26989608061E+02  0.15091230713E+03  0.12508604025E+03 0.  0.
          5    1    3    3  502    0 -0.21827403305E+02  0.27023765616E+02 -0.63692918728E+02  0.72670349794E+02  0.41800000000E+01 0.  1.
         -5    1    3    3    0  502 -0.57373872106E+02 -0.38281030192E+02  0.36703310667E+02  0.78241957331E+02  0.41800000000E+01 0.  1.
        -11    1    1    2    0    0  0.11774066096E+02  0.10712685866E+02 -0.46189095808E+02  0.48855120944E+02  0.00000000000E+00 0. -1.
         11    1    1    2    0    0  0.67427209315E+02  0.54457870995E+00  0.30256791171E+02  0.73906688020E+02  0.00000000000E+00 0.  1.
</event>
<event>
 7    1  0.3056346E-009  0.1168107E+03  0.7561462E-02  0.1248453E+00
         -3   -1    0    0    0  501 -0.00000000000E+00  0.00000000000E+00  0.19519482593E+03  0.19519482593E+03  0.00000000000E+00 0.  1.
          3   -1    0    0  501    0  0.00000000000E+00 -0.00000000000E+00 -0.81925899994E+02  0.81925899994E+02  0.00000000000E+00 0. -1.
         25    2    1    2    0    0 -0.52461239455E+02 -0.36215989318E+02  0.70001039256E+02  0.15687155029E+03  0.12507900809E+03 0.  0.
          5    1    3    3  502    0 -0.25735485645E+02  0.37610249634E+02  0.63093088682E+02  0.77942647750E+02  0.41800000000E+01 0.  1.
         -5    1    3    3    0  502 -0.26725753809E+02 -0.73826238951E+02  0.69079505745E+01  0.78928902536E+02  0.41800000000E+01 0.  1.
        -11    1    1    2    0    0 -0.21113105395E+02 -0.89153243901E+01 -0.15932810643E+01  0.22973566831E+02  0.00000000000E+00 0.  1.
         11    1    1    2    0    0  0.73574344849E+02  0.45131313708E+02  0.44861167740E+02  0.97275608803E+02  0.00000000000E+00 0. -1.
</event>
<event>
 7    1  0.3056346E-009  0.4420167E+03  0.7561462E-02  0.1030130E+00
         -2   -1    0    0    0  501 -0.00000000000E+00  0.00000000000E+00  0.26505624466E+03  0.26505624466E+03  0.00000000000E+00 0.  1.
          2   -1    0    0  501    0  0.00000000000E+00 -0.00000000000E+00 -0.77051433231E+03  0.77051433231E+03  0.00000000000E+00 0. -1.
         25    2    1    2    0    0 -0.43587845995E+03  0.16868452087E+02 -0.21735378322E+03  0.50315428980E+03  0.12508795202E+03 0.  0.
          5    1    3    3  502    0 -0.27589002294E+03  0.81990763335E+01 -0.68498851207E+02  0.28441535583E+03  0.41800000000E+01 0.  1.
         -5    1    3    3    0  502 -0.15998843700E+03  0.86693757532E+01 -0.14885493201E+03  0.21873893397E+03  0.41800000000E+01 0.  1.
        -11    1    1    2    0    0  0.14423074938E+03 -0.53371740689E+02 -0.96655173360E+02  0.18164050844E+03  0.00000000000E+00 0.  1.
         11    1    1    2    0    0  0.29164771057E+03  0.36503288602E+02 -0.19144913107E+03  0.35077577873E+03  0.00000000000E+00 0. -1.
</event>
<event>
 7    1  0.3056346E-009  0.1199055E+03  0.7561462E-02  0.1243253E+00
         -2   -1    0    0    0  501 -0.00000000000E+00  0.00000000000E+00  0.36493368847E+02  0.36493368847E+02  0.00000000000E+00 0.  1.
          2   -1    0    0  501    0  0.00000000000E+00 -0.00000000000E+00 -0.51735128717E+03  0.51735128717E+03  0.00000000000E+00 0. -1.
         25    2    1    2    0    0  0.21924723957E+02 -0.50105166829E+02 -0.39696616433E+03  0.41978750488E+03  0.12509273506E+03 0.  0.
          5    1    3    3  502    0 -0.18711750821E+02  0.35713476039E+02 -0.97167065003E+02  0.10528291842E+03  0.41800000000E+01 0. -1.
         -5    1    3    3    0  502  0.40636474778E+02 -0.85818642869E+02 -0.29979909933E+03  0.31450458646E+03  0.41800000000E+01 0. -1.
        -11    1    1    2    0    0 -0.55770917053E+02  0.40883847505E+02 -0.60618407071E+02  0.91959096622E+02  0.00000000000E+00 0. -1.
         11    1    1    2    0    0  0.33846193095E+02  0.92213193243E+01 -0.23273346919E+02  0.42098054515E+02  0.00000000000E+00 0.  1.
</event>
<event>
 7    1  0.3056346E-009  0.1180621E+03  0.7561462E-02  0.1246329E+00
         -2   -1    0    0    0  501 -0.00000000000E+00  0.00000000000E+00  0.35913219451E+02  0.35913219451E+02  0.00000000000E+00 0.  1.
          2   -1    0    0  501    0  0.00000000000E+00 -0.00000000000E+00 -0.48624020888E+03  0.48624020888E+03  0.00000000000E+00 0. -1.
         25    2    1    2    0    0 -0.63477209481E+02  0.29467631237E+02 -0.30858149695E+03  0.34024691467E+03  0.12509086804E+03 0.  0.
          5    1    3    3  502    0 -0.78611651619E+02 -0.20618642363E+02 -0.24289278519E+03  0.25616263912E+03  0.41800000000E+01 0.  1.
         -5    1    3    3    0  502  0.15134442138E+02  0.50086273600E+02 -0.65688711756E+02  0.84084275546E+02  0.41800000000E+01 0.  1.
        -11    1    1    2    0    0 -0.82544848230E+01 -0.29387400319E+02 -0.85399227208E+02  0.90690593917E+02  0.00000000000E+00 0. -1.
         11    1    1    2    0    0  0.71731694304E+02 -0.80230917741E-01 -0.56346265269E+02  0.91215919743E+02  0.00000000000E+00 0.  1.
</event>
<event>
 7    1  0.3056346E-009  0.9424724E+02  0.7561462E-02  0.1292881E+00
         -4   -1    0    0    0  501 -0.00000000000E+00  0.00000000000E+00  0.15229676889E+03  0.15229676889E+03  0.00000000000E+00 0.  1.
          4   -1    0    0  501    0  0.00000000000E+00 -0.00000000000E+00 -0.70353356561E+02  0.70353356561E+02  0.00000000000E+00 0. -1.
         25    2    1    2    0    0 -0.48331734287E+02 -0.25168510454E+02  0.47120441325E+02  0.14435183337E+03  0.12509078842E+03 0.  0.
          5    1    3    3  502    0  0.36820558258E+02  0.60776000543E+00  0.40712335097E+02  0.55055331365E+02  0.41800000000E+01 0.  1.
         -5    1    3    3    0  502 -0.85152292545E+02 -0.25776270460E+02  0.64081062280E+01  0.89296502003E+02  0.41800000000E+01 0.  1.
        -11    1    1    2    0    0  0.12514426441E+02 -0.68999213561E+01  0.25639992329E+02  0.29353517515E+02  0.00000000000E+00 0.  1.
         11    1    1    2    0    0  0.35817307846E+02  0.32068431811E+02  0.91829786752E+01  0.48944774568E+02  0.00000000000E+00 0. -1.
</event>
<event>
 7    1  0.3056346E-009  0.1066819E+03  0.7561462E-02  0.1266841E+00
          1   -1    0    0  501    0  0.00000000000E+00  0.00000000000E+00  0.16325561002E+03  0.16325561002E+03  0.00000000000E+00 0.  1.
         -1   -1    0    0    0  501 -0.00000000000E+00 -0.00000000000E+00 -0.73643568509E+02  0.73643568509E+02  0.00000000000E+00 0. -1.
         25    2    1    2    0    0  0.66393320079E+01  0.16569392709E+02  0.62468543317E+02  0.14095425618E+03  0.12508860031E+03 0.  0.
          5    1    3    3  502    0 -0.11683175327E+02 -0.50336779738E+02  0.46512931266E+02  0.69650650787E+02  0.41800000000E+01 0.  1.
         -5    1    3    3    0  502  0.18322507335E+02  0.66906172447E+02  0.15955612051E+02  0.71303605396E+02  0.41800000000E+01 0.  1.
        -11    1    1    2    0    0  0.41829673111E+02 -0.10890806690E+02  0.12576812487E+02  0.45016746165E+02  0.00000000000E+00 0.  1.
         11    1    1    2    0    0 -0.48469005119E+02 -0.56785860197E+01  0.14566685704E+02  0.50928176178E+02  0.00000000000E+00 0. -1.
</event>
<event>
 7    1  0.3262614E-009  0.1266518E+03  0.7561462E-02  0.1232510E+00
          2   -1    0    0  501    0  0.00000000000E+00  0.00000000000E+00  0.29211411542E+03  0.29211411542E+03  0.00000000000E+00 0. -1.
         -2   -1    0    0    0  501 -0.00000000000E+00 -0.00000000000E+00 -0.81370811167E+02  0.81370811167E+02  0.00000000000E+00 0.  1.
         25    2    1    2    0    0 -0.88088835645E+02 -0.42902136584E+02  0.17004342641E+03  0.23272447376E+03  0.12508268278E+03 0.  0.
          5    1    3    3  502    0 -0.10136671824E+03  0.84383222269E+01  0.13476586590E+03  0.16889561232E+03  0.41800000000E+01 0.  1.
         -5    1    3    3    0  502  0.13277882595E+02 -0.51340458811E+02  0.35277560511E+02  0.63828861440E+02  0.41800000000E+01 0.  1.
        -11    1    1    2    0    0  0.52518173686E+02  0.29903578421E+02 -0.24618888779E+02  0.65256970926E+02  0.00000000000E+00 0.  1.
         11    1    1    2    0    0  0.35570661960E+02  0.12998558163E+02  0.65318766621E+02  0.75503481903E+02  0.00000000000E+00 0. -1.
</event>
<event>
 7    1  0.3056346E-009  0.9815722E+02  0.7561462E-02  0.1284219E+00
          2   -1    0    0  501    0  0.00000000000E+00  0.00000000000E+00  0.33491998806E+02  0.33491998806E+02  0.00000000000E+00 0. -1.
         -2   -1    0    0    0  501 -0.00000000000E+00 -0.00000000000E+00 -0.35541753564E+03  0.35541753564E+03  0.00000000000E+00 0.  1.
         25    2    1    2    0    0  0.65076578006E+01 -0.40726039570E+01 -0.20004367314E+03  0.23605882847E+03  0.12508942250E+03 0.  0.
          5    1    3    3  502    0  0.26000596656E+02  0.52406888670E+02 -0.13737301154E+03  0.14936977508E+03  0.41800000000E+01 0. -1.
         -5    1    3    3    0  502 -0.19492938855E+02 -0.56479492627E+02 -0.62670661601E+02  0.86689053393E+02  0.41800000000E+01 0. -1.
        -11    1    1    2    0    0 -0.34595266214E+02 -0.20701511642E+02 -0.10361320461E+03  0.11118039934E+03  0.00000000000E+00 0.  1.
         11    1    1    2    0    0  0.28087608414E+02  0.24774115599E+02 -0.18268659082E+02  0.41670306632E+02  0.00000000000E+00 0. -1.
</event>
<event>
 7    1  0.3056346E-009  0.9936468E+02  0.7561462E-02  0.1281638E+00
          1   -1    0    0  501    0  0.00000000000E+00  0.00000000000E+00  0.25010297066E+03  0.25010297066E+03  0.00000000000E+00 0. -1.
         -1   -1    0    0    0  501 -0.00000000000E+00 -0.00000000000E+00 -0.48768245685E+02  0.48768245685E+02  0.00000000000E+00 0.  1.
         25    2    1    2    0    0 -0.52540654676E+01  0.24948720095E+02  0.91334359419E+02  0.15696927963E+03  0.12508935086E+03 0.  0.
          5    1    3    3  502    0  0.78350889576E+01 -0.48289884095E+02  0.56071516989E+02  0.74530456475E+02  0.41800000000E+01 0.  1.
         -5    1    3    3    0  502 -0.13089154425E+02  0.73238604190E+02  0.35262842430E+02  0.82438823157E+02  0.41800000000E+01 0.  1.
        -11    1    1    2    0    0 -0.18255736065E+02  0.18324500799E+02  0.55945787277E+01  0.26464288011E+02  0.00000000000E+00 0.  1.
         11    1    1    2    0    0  0.23509801532E+02 -0.43273220894E+02  0.10440578683E+03  0.11543764870E+03  0.00000000000E+00 0. -1.
</event>
<event>
 7    1  0.3056346E-009  0.1232877E+03  0.7561462E-02  0.1237770E+00
          1   -1    0    0  501    0  0.00000000000E+00  0.00000000000E+00  0.18789758680E+03  0.18789758680E+03  0.00000000000E+00 0. -1.
         -1   -1    0    0    0  501 -0.00000000000E+00 -0.00000000000E+00 -0.96599778440E+02  0.96599778440E+02  0.00000000000E+00 0.  1.
         25    2    1    2    0    0 -0.83513628346E+02 -0.21571317879E+02  0.72392635285E+02  0.16830578241E+03  0.12508515050E+03 0.  0.
          5    1    3    3  502    0 -0.10342040850E+03  0.19661533317E+02  0.57209865167E+02  0.11988660417E+03  0.41800000000E+01 0. -1.
         -5    1    3    3    0  502  0.19906780150E+02 -0.41232851196E+02  0.15182770118E+02  0.48419178247E+02  0.41800000000E+01 0. -1.
        -11    1    1    2    0    0  0.33152994019E+02  0.29358089460E+02 -0.23286650961E+02  0.50032854627E+02  0.00000000000E+00 0.  1.
         11    1    1    2    0    0  0.50360634328E+02 -0.77867715813E+01  0.42191824034E+02  0.66158728199E+02  0.00000000000E+00 0. -1.
</event>
<event>
 7    1  0.3056346E-009  0.9123174E+02  0.7561462E-02  0.1299896E+00
         -2   -1    0    0    0  501 -0.00000000000E+00  0.00000000000E+00  0.84301117478E+02  0.84301117478E+02  0.00000000000E+00 0.  1.
          2   -1    0    0  501    0  0.00000000000E+00 -0.00000000000E+00 -0.19192353133E+03  0.19192353133E+03  0.00000000000E+00 0. -1.
         25    2    1    2    0    0  0.30366613574E+01 -0.56849888260E+02 -0.35804099353E+02  0.14201818736E+03  0.12508437514E+03 0.  0.
          5    1    3    3  502    0 -0.16586947874E+02 -0.15279791974E+02 -0.76880546108E+02  0.80228982621E+02  0.41800000000E+01 0.  1.
         -5    1    3    3    0  502  0.19623609231E+02 -0.41570096286E+02  0.41076446754E+02  0.61789204740E+02  0.41800000000E+01 0.  1.
        -11    1    1    2    0    0  0.44044510300E+02  0.66477109928E+01 -0.27613745795E+02  0.52408299971E+02  0.00000000000E+00 0.  1.
         11    1    1    2    0    0 -0.47081171658E+02  0.50202177267E+02 -0.44204568708E+02  0.81798161481E+02  0.00000000000E+00 0. -1.
</event>
<event>
 7    1  0.3056346E-009  0.1145377E+03  0.7561462E-02  0.1252390E+00
         -1   -1    0    0    0  501 -0.00000000000E+00  0.00000000000E+00  0.24480947814E+02  0.24480947814E+02  0.00000000000E+00 0.  1.
          1   -1    0    0  501    0  0.00000000000E+00 -0.00000000000E+00 -0.88303860674E+03  0.88303860674E+03  0.00000000000E+00 0. -1.
         25    2    1    2    0    0  0.70301954814E+02  0.46045086968E+02 -0.30575156841E+03  0.34087249199E+03  0.12509004488E+03 0.  0.
          5    1    3    3  502    0  0.28456730461E+02 -0.13568494767E+02 -0.24172253359E+03  0.24380554794E+03  0.41800000000E+01 0.  1.
         -5    1    3    3    0  502  0.41845224354E+02  0.59613581735E+02 -0.64029034815E+02  0.97066944053E+02  0.41800000000E+01 0.  1.
        -11    1    1    2    0    0 -0.33506019022E+02 -0.71916492006E+02 -0.33894157266E+03  0.34810346854E+03  0.00000000000E+00 0. -1.
         11    1    1    2    0    0 -0.36795935792E+02  0.25871405038E+02 -0.21386451786E+03  0.21854359402E+03  0.00000000000E+00 0.  1.
</event>
<event>
 7    1  0.3056346E-009  0.6772133E+02  0.7561462E-02  0.1368018E+00
         -2   -1    0    0    0  501 -0.00000000000E+00  0.00000000000E+00  0.23471472110E+02  0.23471472110E+02  0.00000000000E+00 0.  1.
          2   -1    0    0  501    0  0.00000000000E+00 -0.00000000000E+00 -0.56464358374E+03  0.56464358374E+03  0.00000000000E+00 0. -1.
         25    2    1    2    0    0  0.26453115041E+02 -0.10252500549E+02 -0.25003434169E+03  0.28101497766E+03  0.12508942636E+03 0.  0.
          5    1    3    3  502    0  0.24227860133E+02 -0.17278841900E+02  0.77721405340E+00  0.30060340080E+02  0.41800000000E+01 0.  1.
         -5    1    3    3    0  502  0.22252549078E+01  0.70263413502E+01 -0.25081155574E+03  0.25095463758E+03  0.41800000000E+01 0.  1.
        -11    1    1    2    0    0 -0.49115698205E+02  0.37269913512E+02 -0.16566954775E+03  0.17677046506E+03  0.00000000000E+00 0.  1.
         11    1    1    2    0    0  0.22662583164E+02 -0.27017412963E+02 -0.12546822219E+03  0.13032961313E+03  0.00000000000E+00 0. -1.
</event>
<event>
 7    1  0.3056346E-009  0.8880014E+02  0.7561462E-02  0.1305784E+00
          3   -1    0    0  501    0  0.00000000000E+00  0.00000000000E+00  0.38872235677E+02  0.38872235677E+02  0.00000000000E+00 0. -1.
         -3   -1    0    0    0  501 -0.00000000000E+00 -0.00000000000E+00 -0.41929169926E+03  0.41929169926E+03  0.00000000000E+00 0.  1.
         25    2    1    2    0    0  0.73011763670E+01  0.41838087290E+02 -0.30089024512E+03  0.32861163605E+03  0.12508770929E+03 0.  0.
          5    1    3    3  502    0  0.50460406423E+02  0.11330775936E+02 -0.49565061120E+02  0.71755186457E+02  0.41800000000E+01 0. -1.
         -5    1    3    3    0  502 -0.43159230056E+02  0.30507311354E+02 -0.25132518400E+03  0.25685644960E+03  0.41800000000E+01 0. -1.
        -11    1    1    2    0    0  0.11896784809E+02  0.11170413143E+02 -0.70612458015E+02  0.72473656218E+02  0.00000000000E+00 0.  1.
         11    1    1    2    0    0 -0.19197961176E+02 -0.53008500433E+02 -0.89167604429E+01  0.57078642663E+02  0.00000000000E+00 0. -1.
</event>
<event>
 7    1  0.3056346E-009  0.1387076E+03  0.7561462E-02  0.1215079E+00
         -2   -1    0    0    0  501 -0.00000000000E+00  0.00000000000E+00  0.78681680315E+03  0.78681680315E+03  0.00000000000E+00 0.  1.
          2   -1    0    0  501    0  0.00000000000E+00 -0.00000000000E+00 -0.38856720186E+02  0.38856720186E+02  0.00000000000E+00 0. -1.
         25    2    1    2    0    0  0.59443286069E+02  0.11007378900E+03  0.53021693444E+03  0.55895178509E+03  0.12508939688E+03 0.  0.
          5    1    3    3  502    0  0.38082986428E+02  0.13432589684E+02  0.34034011187E+02  0.52976736766E+02  0.41800000000E+01 0.  1.
         -5    1    3    3    0  502  0.21360299640E+02  0.96641199317E+02  0.49618292325E+03  0.50597504833E+03  0.41800000000E+01 0.  1.
        -11    1    1    2    0    0 -0.25878035361E+02 -0.99128086675E+02  0.97599077972E+02  0.14149781024E+03  0.00000000000E+00 0. -1.
         11    1    1    2    0    0 -0.33565250708E+02 -0.10945702326E+02  0.12014407055E+03  0.12522392800E+03  0.00000000000E+00 0.  1.
</event>
<event>
 7    1  0.3056346E-009  0.1022171E+03  0.7561462E-02  0.1275702E+00
         -2   -1    0    0    0  501 -0.00000000000E+00  0.00000000000E+00  0.28532137742E+03  0.28532137742E+03  0.00000000000E+00 0.  1.
          2   -1    0    0  501    0  0.00000000000E+00 -0.00000000000E+00 -0.56530032222E+02  0.56530032222E+02  0.00000000000E+00 0. -1.
         25    2    1    2    0    0 -0.15808182884E+02 -0.63083864575E+02  0.11045903457E+03  0.17909879349E+03  0.12508280016E+03 0.  0.
          5    1    3    3  502    0  0.15172020434E+02 -0.59926332501E+02  0.12865031852E+03  0.14279262021E+03  0.41800000000E+01 0. -1.
         -5    1    3    3    0  502 -0.30980203318E+02 -0.31575320739E+01 -0.18191283952E+02  0.36306173280E+02  0.41800000000E+01 0. -1.
        -11    1    1    2    0    0 -0.30035408355E+02 -0.34762925931E+01  0.40563467174E+02  0.50592541292E+02  0.00000000000E+00 0.  1.
         11    1    1    2    0    0  0.45843591240E+02  0.66560157168E+02  0.77768843451E+02  0.11216007486E+03  0.00000000000E+00 0. -1.
</event>
<event>
 7    1  0.3056346E-009  0.1785935E+03  0.7561462E-02  0.1169171E+00
         -3   -1    0    0    0  501 -0.00000000000E+00  0.00000000000E+00  0.10828357106E+03  0.10828357106E+03  0.00000000000E+00 0.  1.
          3   -1    0    0  501    0  0.00000000000E+00 -0.00000000000E+00 -0.36691635760E+03  0.36691635760E+03  0.00000000000E+00 0. -1.
         25    2    1    2    0    0 -0.15847374628E+03  0.14107160363E+02 -0.70646906617E+02  0.21436153690E+03  0.12508774063E+03 0.  0.
          5    1    3    3  502    0 -0.11615434817E+03 -0.30236117148E+02  0.83968178925E+00  0.12010092775E+03  0.41800000000E+01 0.  1.
         -5    1    3    3    0  502 -0.42319398103E+02  0.44343277511E+02 -0.71486588407E+02  0.94260609155E+02  0.41800000000E+01 0.  1.
        -11    1    1    2    0    0  0.12205981641E+03  0.22387592499E+02 -0.15899826478E+03  0.20169345871E+03  0.00000000000E+00 0. -1.
         11    1    1    2    0    0  0.36413929865E+02 -0.36494752861E+02 -0.28987615141E+02  0.59144933056E+02  0.00000000000E+00 0.  1.
</event>
<event>
 7    1  0.3056346E-009  0.1680887E+03  0.7561462E-02  0.1179856E+00
         -1   -1    0    0    0  501 -0.00000000000E+00  0.00000000000E+00  0.30894446263E+03  0.30894446263E+03  0.00000000000E+00 0.  1.
          1   -1    0    0  501    0  0.00000000000E+00 -0.00000000000E+00 -0.10826168473E+03  0.10826168473E+03  0.00000000000E+00 0. -1.
         25    2    1    2    0    0  0.13094443877E+03 -0.65121808317E+02  0.10674260590E+03  0.22006575550E+03  0.12509059464E+03 0.  0.
          5    1    3    3  502    0  0.13039543590E+03 -0.82731004826E+02  0.12163502755E+03  0.19662131418E+03  0.41800000000E+01 0. -1.
         -5    1    3    3    0  502  0.54900286394E+00  0.17609196509E+02 -0.14892421654E+02  0.23444441314E+02  0.41800000000E+01 0. -1.
        -11    1    1    2    0    0 -0.21355837260E+02 -0.16463503260E+02  0.44138674481E+02  0.51723701623E+02  0.00000000000E+00 0.  1.
         11    1    1    2    0    0 -0.10958860151E+03  0.81585311578E+02  0.49801497517E+02  0.14541669024E+03  0.00000000000E+00 0. -1.
</event>
<event>
 7    1  0.3056346E-009  0.8100735E+02  0.7561462E-02  0.1326217E+00
         -2   -1    0    0    0  501 -0.00000000000E+00  0.00000000000E+00  0.14789908431E+02  0.14789908431E+02  0.00000000000E+00 0.  1.
          2   -1    0    0  501    0  0.00000000000E+00 -0.00000000000E+00 -0.11074323291E+04  0.11074323291E+04  0.00000000000E+00 0. -1.
         25    2    1    2    0    0  0.74433010230E+00  0.14437016649E+02 -0.89808161719E+03  0.90686666056E+03  0.12509023712E+03 0.  0.
          5    1    3    3  502    0 -0.29266842647E+02 -0.17622652556E+02 -0.78088016944E+03  0.78163829063E+03  0.41800000000E+01 0.  1.
         -5    1    3    3    0  502  0.30011172749E+02  0.32059669204E+02 -0.11720144775E+03  0.12522836992E+03  0.41800000000E+01 0.  1.
        -11    1    1    2    0    0  0.31586828886E+02  0.19090046486E+02 -0.42337284864E+02  0.56165855496E+02  0.00000000000E+00 0.  1.
         11    1    1    2    0    0 -0.32331158988E+02 -0.33527063135E+02 -0.15222351861E+03  0.15918972147E+03  0.00000000000E+00 0. -1.
</event>
<event>
 7    1  0.3056346E-009  0.1128843E+03  0.7561462E-02  0.1255320E+00
          1   -1    0    0  501    0  0.00000000000E+00  0.00000000000E+00  0.38664912544E+02  0.38664912544E+02  0.00000000000E+00 0. -1.
         -1   -1    0    0    0  501 -0.00000000000E+00 -0.00000000000E+00 -0.49104552346E+03  0.49104552346E+03  0.00000000000E+00 0.  1.
         25    2    1    2    0    0  0.11805713912E+02 -0.76043258031E+02 -0.18649160064E+03  0.23740951682E+03  0.12514874986E+03 0.  0.
          5    1    3    3  502    0 -0.14196029701E+02  0.15844955172E+02 -0.11760315290E+03  0.11958496493E+03  0.41800000000E+01 0.  1.
         -5    1    3    3    0  502  0.26001743614E+02 -0.91888213202E+02 -0.68888447740E+02  0.11782455189E+03  0.41800000000E+01 0.  1.
        -11    1    1    2    0    0  0.32499564021E+02  0.25668851863E+02 -0.17194802242E+03  0.17686501642E+03  0.00000000000E+00 0.  1.
         11    1    1    2    0    0 -0.44305277934E+02  0.50374406168E+02 -0.93940987851E+02  0.11543590277E+03  0.00000000000E+00 0. -1.
</event>
<event>
 7    1  0.3056346E-009  0.1121455E+03  0.7561462E-02  0.1256648E+00
         -1   -1    0    0    0  501 -0.00000000000E+00  0.00000000000E+00  0.24296807038E+02  0.24296807038E+02  0.00000000000E+00 0.  1.
          1   -1    0    0  501    0  0.00000000000E+00 -0.00000000000E+00 -0.59529794171E+03  0.59529794171E+03  0.00000000000E+00 0. -1.
         25    2    1    2    0    0  0.23605204630E+02 -0.39733270663E+02 -0.35663564188E+03  0.38075756982E+03  0.12510558515E+03 0.  0.
          5    1    3    3  502    0  0.19537751022E+02  0.42130532384E+02 -0.84447512705E+02  0.96465331990E+02  0.41800000000E+01 0. -1.
         -5    1    3    3    0  502  0.40674536077E+01 -0.81863803047E+02 -0.27218812917E+03  0.28429223783E+03  0.41800000000E+01 0. -1.
        -11    1    1    2    0    0  0.16150589912E+02  0.51627480948E+02 -0.69069991755E+02  0.87731990201E+02  0.00000000000E+00 0.  1.
         11    1    1    2    0    0 -0.39755794541E+02 -0.11894210285E+02 -0.14529550104E+03  0.15110518873E+03  0.00000000000E+00 0. -1.
</event>
<event>
 7    1  0.3056346E-009  0.1015782E+03  0.7561462E-02  0.1277012E+00
         -2   -1    0    0    0  501 -0.00000000000E+00  0.00000000000E+00  0.46792764677E+02  0.46792764677E+02  0.00000000000E+00 0.  1.
          2   -1    0    0  501    0  0.00000000000E+00 -0.00000000000E+00 -0.30455461952E+03  0.30455461952E+03  0.00000000000E+00 0. -1.
         25    2    1    2    0    0 -0.49372186886E+01  0.52492847441E+02 -0.18378863862E+03  0.22848552651E+03  0.12508995554E+03 0.  0.
          5    1    3    3  502    0 -0.34567155254E+02  0.64427465808E+02 -0.18204430585E+03  0.19622280261E+03  0.41800000000E+01 0. -1.
         -5    1    3    3    0  502  0.29629936565E+02 -0.11934618367E+02 -0.17443327704E+01  0.32262723897E+02  0.41800000000E+01 0. -1.
        -11    1    1    2    0    0 -0.23106856377E+02 -0.63504738564E+02 -0.56110567598E+02  0.87836065644E+02  0.00000000000E+00 0.  1.
         11    1    1    2    0    0  0.28044075065E+02  0.11011891123E+02 -0.17862648624E+02  0.35025792043E+02  0.00000000000E+00 0. -1.
</event>
<event>
 7    1  0.5211923E-009  0.2105316E+03  0.7561462E-02  0.1141146E+00
          2   -1    0    0  501    0  0.00000000000E+00  0.00000000000E+00  0.81643583760E+03  0.81643583760E+03  0.00000000000E+00 0. -1.
         -2   -1    0    0    0  501 -0.00000000000E+00 -0.00000000000E+00 -0.59054972556E+02  0.59054972556E+02  0.00000000000E+00 0.  1.
         25    2    1    2    0    0  0.12188848703E+03  0.14307399577E+03  0.45493199130E+03  0.50787513935E+03  0.12508824454E+03 0.  0.
          5    1    3    3  502    0  0.11046990758E+03  0.52338687140E+02  0.17618216666E+03  0.21447742749E+03  0.41800000000E+01 0. -1.
         -5    1    3    3    0  502  0.11418579456E+02  0.90735308631E+02  0.27874982464E+03  0.29339771186E+03  0.41800000000E+01 0. -1.
        -11    1    1    2    0    0 -0.59835066451E+01 -0.69851527173E+02  0.12570302991E+03  0.14393154598E+03  0.00000000000E+00 0.  1.
         11    1    1    2    0    0 -0.11590498039E+03 -0.73222468598E+02  0.17674584383E+03  0.22368412483E+03  0.00000000000E+00 0. -1.
</event>
<event>
 7    1  0.3056346E-009  0.1242003E+03  0.7561462E-02  0.1236324E+00
          1   -1    0    0  501    0  0.00000000000E+00  0.00000000000E+00  0.77585276968E+02  0.77585276968E+02  0.00000000000E+00 0. -1.
         -1   -1    0    0    0  501 -0.00000000000E+00 -0.00000000000E+00 -0.31810504389E+03  0.31810504389E+03  0.00000000000E+00 0.  1.
         25    2    1    2    0    0  0.49510462317E+02 -0.97043150212E+02 -0.16649652114E+03  0.23502755916E+03  0.12509277808E+03 0.  0.
          5    1    3    3  502    0  0.16525663406E+02 -0.23678152259E+02 -0.14999628286E+03  0.15280742691E+03  0.41800000000E+01 0. -1.
         -5    1    3    3    0  502  0.32984798911E+02 -0.73364997953E+02 -0.16500238284E+02  0.82220132250E+02  0.41800000000E+01 0. -1.
        -11    1    1    2    0    0  0.23431716899E+02  0.11024995012E+02 -0.25265911177E+00  0.25897098457E+02  0.00000000000E+00 0. -1.
         11    1    1    2    0    0 -0.72942179217E+02  0.86018155200E+02 -0.73770586667E+02  0.13476566325E+03  0.00000000000E+00 0.  1.
</event>
<event>
 7    1  0.3056346E-009  0.1378479E+03  0.7561462E-02  0.1216254E+00
         -2   -1    0    0    0  501 -0.00000000000E+00  0.00000000000E+00  0.11988014325E+02  0.11988014325E+02  0.00000000000E+00 0.  1.
          2   -1    0    0  501    0  0.00000000000E+00 -0.00000000000E+00 -0.17024606249E+04  0.17024606249E+04  0.00000000000E+00 0. -1.
         25    2    1    2    0    0  0.10924398741E+02  0.80832880212E+02 -0.10850597672E+04  0.10952876240E+04  0.12508790485E+03 0.  0.
          5    1    3    3  502    0  0.40238864159E+02 -0.16885040937E+02 -0.44246254821E+03  0.44462888993E+03  0.41800000000E+01 0.  1.
         -5    1    3    3    0  502 -0.29314465418E+02  0.97717921149E+02 -0.64259721898E+03  0.65065873409E+03  0.41800000000E+01 0.  1.
        -11    1    1    2    0    0  0.42766435157E+02 -0.16209969961E+02 -0.21333106311E+03  0.21817853604E+03  0.00000000000E+00 0. -1.
         11    1    1    2    0    0 -0.53690833897E+02 -0.64622910251E+02 -0.39208178029E+03  0.40098247918E+03  0.00000000000E+00 0.  1.
</event>
<event>
 7    1  0.3056346E-009  0.1037170E+03  0.7561462E-02  0.1272668E+00
         -1   -1    0    0    0  501 -0.00000000000E+00  0.00000000000E+00  0.82817052991E+02  0.82817052991E+02  0.00000000000E+00 0.  1.
          1   -1    0    0  501    0  0.00000000000E+00 -0.00000000000E+00 -0.17003045026E+03  0.17003045026E+03  0.00000000000E+00 0. -1.
         25    2    1    2    0    0  0.10299512153E+02 -0.37012103021E+02 -0.16666697961E+02  0.13191284890E+03  0.12508894901E+03 0.  0.
          5    1    3    3  502    0  0.19295563247E+02  0.34326068602E+02 -0.39918863579E+02  0.56227980722E+02  0.41800000000E+01 0. -1.
         -5    1    3    3    0  502 -0.89960510946E+01 -0.71338171623E+02  0.23252165617E+02  0.75684868182E+02  0.41800000000E+01 0. -1.
        -11    1    1    2    0    0 -0.48015469124E+02  0.32144414213E+02 -0.55246911447E+02  0.79943541733E+02  0.00000000000E+00 0. -1.
         11    1    1    2    0    0  0.37715956971E+02  0.48676888086E+01 -0.15299787858E+02  0.40991112611E+02  0.00000000000E+00 0.  1.
</event>
<event>
 7    1  0.3056346E-009  0.1182796E+03  0.7561462E-02  0.1245963E+00
          1   -1    0    0  501    0  0.00000000000E+00  0.00000000000E+00  0.55408200760E+03  0.55408200760E+03  0.00000000000E+00 0. -1.
         -1   -1    0    0    0  501 -0.00000000000E+00 -0.00000000000E+00 -0.32445539430E+02  0.32445539430E+02  0.00000000000E+00 0.  1.
         25    2    1    2    0    0  0.58479550316E+02  0.14668747195E+02  0.33748175817E+03  0.36493887385E+03  0.12510561379E+03 0.  0.
          5    1    3    3  502    0  0.14457556025E+02 -0.46957685598E+02  0.21728867157E+03  0.22281356412E+03  0.41800000000E+01 0.  1.
         -5    1    3    3    0  502  0.44021994292E+02  0.61626432792E+02  0.12019308661E+03  0.14212530974E+03  0.41800000000E+01 0.  1.
        -11    1    1    2    0    0 -0.59967505529E+02 -0.48751200110E+02  0.76841885171E+02  0.10898374442E+03  0.00000000000E+00 0.  1.
         11    1    1    2    0    0  0.14879552129E+01  0.34082452915E+02  0.10731282483E+03  0.11260492876E+03  0.00000000000E+00 0. -1.
</event>
<event>
 7    1  0.3056346E-009  0.1139753E+03  0.7561462E-02  0.1253380E+00
          4   -1    0    0  501    0  0.00000000000E+00  0.00000000000E+00  0.62389943470E+02  0.62389943470E+02  0.00000000000E+00 0.  1.
         -4   -1    0    0    0  501 -0.00000000000E+00 -0.00000000000E+00 -0.36416721697E+03  0.36416721697E+03  0.00000000000E+00 0. -1.
         25    2    1    2    0    0  0.63070307184E+01  0.72078938112E+02 -0.57724543091E+02  0.15561246995E+03  0.12509183016E+03 0.  0.
          5    1    3    3  502    0 -0.46446773050E+02  0.65549896364E+02 -0.49611430444E+01  0.80598864635E+02  0.41800000000E+01 0. -1.
         -5    1    3    3    0  502  0.52753803769E+02  0.65290417483E+01 -0.52763400046E+02  0.75013605317E+02  0.41800000000E+01 0. -1.
        -11    1    1    2    0    0  0.23297910536E+02 -0.55641018936E+02 -0.64838078128E+02  0.88558974695E+02  0.00000000000E+00 0.  1.
         11    1    1    2    0    0 -0.29604941255E+02 -0.16437919176E+02 -0.17921465228E+03  0.18238571580E+03  0.00000000000E+00 0. -1.
</event>
<event>
 7    1  0.3056346E-009  0.1176508E+03  0.7561462E-02  0.1247024E+00
         -3   -1    0    0    0  501 -0.00000000000E+00  0.00000000000E+00  0.88062900855E+02  0.88062900855E+02  0.00000000000E+00 0.  1.
          3   -1    0    0  501    0  0.00000000000E+00 -0.00000000000E+00 -0.16468745420E+03  0.16468745420E+03  0.00000000000E+00 0. -1.
         25    2    1    2    0    0 -0.45413605968E+02 -0.21817601613E+02 -0.38447508646E+02  0.14022844519E+03  0.12508957820E+03 0.  0.
          5    1    3    3  502    0  0.39213482278E+02  0.68511853676E+01  0.57820654630E+01  0.40441817643E+02  0.41800000000E+01 0.  1.
         -5    1    3    3    0  502 -0.84627088246E+02 -0.28668786981E+02 -0.44229574109E+02  0.99786627550E+02  0.41800000000E+01 0.  1.
        -11    1    1    2    0    0 -0.27839950254E+02  0.16540453956E+02 -0.10646087682E+02  0.34087954327E+02  0.00000000000E+00 0. -1.
         11    1    1    2    0    0  0.73253556223E+02  0.52771476578E+01 -0.27530957018E+02  0.78433955536E+02  0.00000000000E+00 0.  1.
</event>
<event>
 7    1  0.3056346E-009  0.1065309E+03  0.7561462E-02  0.1267132E+00
          1   -1    0    0  501    0  0.00000000000E+00  0.00000000000E+00  0.72959967836E+02  0.72959967836E+02  0.00000000000E+00 0. -1.
         -1   -1    0    0    0  501 -0.00000000000E+00 -0.00000000000E+00 -0.25294986227E+03  0.25294986227E+03  0.00000000000E+00 0.  1.
         25    2    1    2    0    0  0.74820949632E+02 -0.78380402029E+01 -0.13710558046E+03  0.20026219360E+03  0.12508955437E+03 0.  0.
          5    1    3    3  502    0  0.62774837769E+02 -0.32081633687E+02 -0.15305692549E+03  0.16856395320E+03  0.41800000000E+01 0.  1.
         -5    1    3    3    0  502  0.12046111863E+02  0.24243593484E+02  0.15951345031E+02  0.31698240398E+02  0.41800000000E+01 0.  1.
        -11    1    1    2    0    0  0.11892925550E+02  0.24051864999E+02 -0.22713064535E+02  0.35154191623E+02  0.00000000000E+00 0.  1.
         11    1    1    2    0    0 -0.86713875182E+02 -0.16213824796E+02 -0.20171249438E+02  0.90493444887E+02  0.00000000000E+00 0. -1.
</event>
<event>
 7    1  0.3056346E-009  0.1651185E+03  0.7561462E-02  0.1183036E+00
         -1   -1    0    0    0  501 -0.00000000000E+00  0.00000000000E+00  0.17083380219E+03  0.17083380219E+03  0.00000000000E+00 0.  1.
          1   -1    0    0  501    0  0.00000000000E+00 -0.00000000000E+00 -0.36206845941E+03  0.36206845941E+03  0.00000000000E+00 0. -1.
         25    2    1    2    0    0 -0.24894379448E+02 -0.12691707676E+03  0.94536674639E+02  0.20325400855E+03  0.12508930665E+03 0.  0.
          5    1    3    3  502    0  0.11398579268E+02 -0.13342087807E+03  0.97994002073E+02  0.16598600892E+03  0.41800000000E+01 0. -1.
         -5    1    3    3    0  502 -0.36292958716E+02  0.65038013069E+01 -0.34573274346E+01  0.37267999635E+02  0.41800000000E+01 0. -1.
        -11    1    1    2    0    0  0.58188407155E+02  0.10251734114E+03 -0.17111855743E+03  0.20779137773E+03  0.00000000000E+00 0.  1.
         11    1    1    2    0    0 -0.33294027707E+02  0.24399735620E+02 -0.11465277442E+03  0.12185687532E+03  0.00000000000E+00 0. -1.
</event>
<event>
 7    1  0.3056346E-009  0.1261337E+03  0.7561462E-02  0.1233308E+00
          1   -1    0    0  501    0  0.00000000000E+00  0.00000000000E+00  0.55988713980E+03  0.55988713980E+03  0.00000000000E+00 0. -1.
         -1   -1    0    0    0  501 -0.00000000000E+00 -0.00000000000E+00 -0.36443279540E+02  0.36443279540E+02  0.00000000000E+00 0.  1.
         25    2    1    2    0    0 -0.57842665450E+01  0.89277314071E+02  0.23848155130E+03  0.28376630729E+03  0.12508385306E+03 0.  0.
          5    1    3    3  502    0 -0.60792454600E+02  0.23839367186E+02  0.13043550109E+03  0.14592782568E+03  0.41800000000E+01 0. -1.
         -5    1    3    3    0  502  0.55008188055E+02  0.65437946885E+02  0.10804605021E+03  0.13783848161E+03  0.41800000000E+01 0. -1.
        -11    1    1    2    0    0  0.23594498430E+02 -0.74357856133E+02  0.27735437700E+03  0.28811671518E+03  0.00000000000E+00 0. -1.
         11    1    1    2    0    0 -0.17810231885E+02 -0.14919457938E+02  0.76079319569E+01  0.24447396868E+02  0.00000000000E+00 0.  1.
</event>
<event>
 7    1  0.3056346E-009  0.8729792E+02  0.7561462E-02  0.1309530E+00
         -1   -1    0    0    0  501 -0.00000000000E+00  0.00000000000E+00  0.13936072113E+02  0.13936072113E+02  0.00000000000E+00 0.  1.
          1   -1    0    0  501    0  0.00000000000E+00 -0.00000000000E+00 -0.93745352129E+03  0.93745352129E+03  0.00000000000E+00 0. -1.
         25    2    1    2    0    0 -0.33754947480E+02 -0.20215317491E+02 -0.47168929408E+03  0.48957702316E+03  0.12508723325E+03 0.  0.
          5    1    3    3  502    0  0.14176591904E+02  0.13797658420E+02 -0.38031673588E+03  0.38085383433E+03  0.41800000000E+01 0.  1.
         -5    1    3    3    0  502 -0.47931539384E+02 -0.34012975911E+02 -0.91372558196E+02  0.10872318883E+03  0.41800000000E+01 0.  1.
        -11    1    1    2    0    0 -0.16924710363E+02  0.38117465400E+02 -0.18964058092E+03  0.19417244119E+03  0.00000000000E+00 0.  1.
         11    1    1    2    0    0  0.50679657843E+02 -0.17902147908E+02 -0.26218757418E+03  0.26764012905E+03  0.00000000000E+00 0. -1.
</event>
<event>
 7    1  0.3056346E-009  0.9808195E+02  0.7561462E-02  0.1284382E+00
         -2   -1    0    0    0  501 -0.00000000000E+00  0.00000000000E+00  0.35351064005E+02  0.35351064005E+02  0.00000000000E+00 0.  1.
          2   -1    0    0  501    0  0.00000000000E+00 -0.00000000000E+00 -0.37715959031E+03  0.37715959031E+03  0.00000000000E+00 0. -1.
         25    2    1    2    0    0 -0.30362593690E+02 -0.20115706575E+02 -0.23689338797E+03  0.27035558562E+03  0.12508851532E+03 0.  0.
          5    1    3    3  502    0 -0.71716615248E+02 -0.31071745015E+02 -0.10070587107E+03  0.12754556483E+03  0.41800000000E+01 0.  1.
         -5    1    3    3    0  502  0.41354021558E+02  0.10956038440E+02 -0.13618751690E+03  0.14281002079E+03  0.41800000000E+01 0.  1.
        -11    1    1    2    0    0  0.31158950876E+02 -0.18532022784E+02 -0.70506636841E+01  0.36932748971E+02  0.00000000000E+00 0.  1.
         11    1    1    2    0    0 -0.79635718673E+00  0.38647729359E+02 -0.97864474654E+02  0.10522231973E+03  0.00000000000E+00 0. -1.
</event>
<event>
 7    1  0.3056346E-009  0.1078763E+03  0.7561462E-02  0.1264554E+00
          1   -1    0    0  501    0  0.00000000000E+00  0.00000000000E+00  0.79057610771E+03  0.79057610771E+03  0.00000000000E+00 0. -1.
         -1   -1    0    0    0  501 -0.00000000000E+00 -0.00000000000E+00 -0.32703009292E+02  0.32703009292E+02  0.00000000000E+00 0.  1.
         25    2    1    2    0    0  0.38231483355E+02  0.65443130895E+02  0.62805435400E+03  0.64485904727E+03  0.12508584878E+03 0.  0.
          5    1    3    3  502    0  0.11269500472E+02 -0.90141792302E+01  0.36790289024E+01  0.15468184178E+02  0.41800000000E+01 0.  1.
         -5    1    3    3    0  502  0.26961982882E+02  0.74457310125E+02  0.62437532509E+03  0.62939086309E+03  0.41800000000E+01 0.  1.
        -11    1    1    2    0    0 -0.41324088753E+02  0.12695034698E+02  0.35787473138E+02  0.56121185401E+02  0.00000000000E+00 0.  1.
         11    1    1    2    0    0  0.30926053985E+01 -0.78138165593E+02  0.94031271286E+02  0.12229888434E+03  0.00000000000E+00 0. -1.
</event>
<event>
 7    1  0.3056346E-009  0.1128488E+03  0.7561462E-02  0.1255383E+00
          1   -1    0    0  501    0  0.00000000000E+00  0.00000000000E+00  0.91225396636E+02  0.91225396636E+02  0.00000000000E+00 0. -1.
         -1   -1    0    0    0  501 -0.00000000000E+00 -0.00000000000E+00 -0.21267917699E+03  0.21267917699E+03  0.00000000000E+00 0.  1.
         25    2    1    2    0    0 -0.75868030878E+02 -0.16675529591E+02 -0.29536587747E+02  0.15018001189E+03  0.12509034559E+03 0.  0.
          5    1    3    3  502    0  0.65666297717E+01  0.39576745126E+02  0.11879330409E+02  0.42047952059E+02  0.41800000000E+01 0. -1.
         -5    1    3    3    0  502 -0.82434660650E+02 -0.56252274717E+02 -0.41415918157E+02  0.10813205983E+03  0.41800000000E+01 0. -1.
        -11    1    1    2    0    0  0.21245760026E+02  0.22013676781E+02  0.14600497296E+02  0.33899244915E+02  0.00000000000E+00 0. -1.
         11    1    1    2    0    0  0.54622270852E+02 -0.53381471907E+01 -0.10651768990E+03  0.11982531682E+03  0.00000000000E+00 0.  1.
</event>
<event>
 7    1  0.3056346E-009  0.1713683E+03  0.7561462E-02  0.1176428E+00
         -2   -1    0    0    0  501 -0.00000000000E+00  0.00000000000E+00  0.54878896924E+02  0.54878896924E+02  0.00000000000E+00 0.  1.
          2   -1    0    0  501    0  0.00000000000E+00 -0.00000000000E+00 -0.86007238169E+03  0.86007238169E+03  0.00000000000E+00 0. -1.
         25    2    1    2    0    0 -0.28544513674E+02  0.14020103011E+03 -0.66862012066E+03  0.69510477732E+03  0.12508664034E+03 0.  0.
          5    1    3    3  502    0 -0.34519798122E+02  0.50816335942E+01 -0.45657417968E+02  0.57615203531E+02  0.41800000000E+01 0. -1.
         -5    1    3    3    0  502  0.59752844483E+01  0.13511939651E+03 -0.62296270269E+03  0.63748957379E+03  0.41800000000E+01 0. -1.
        -11    1    1    2    0    0 -0.34842527442E+02 -0.34526771964E+02 -0.39003669544E+02  0.62668859402E+02  0.00000000000E+00 0.  1.
         11    1    1    2    0    0  0.63387041116E+02 -0.10567425814E+03 -0.97569694561E+02  0.15717764190E+03  0.00000000000E+00 0. -1.
</event>
<event>
 7    1  0.3056346E-009  0.2512722E+03  0.7561462E-02  0.1112503E+00
          1   -1    0    0  501    0  0.00000000000E+00  0.00000000000E+00  0.10306675927E+04  0.10306675927E+04  0.00000000000E+00 0. -1.
         -1   -1    0    0    0  501 -0.00000000000E+00 -0.00000000000E+00 -0.71196682014E+02  0.71196682014E+02  0.00000000000E+00 0.  1.
         25    2    1    2    0    0 -0.20103117240E+03  0.10789037035E+03  0.29430388706E+03  0.39283157943E+03  0.12509199639E+03 0.  0.
          5    1    3    3  502    0 -0.16540896584E+03  0.13425688419E+03  0.22042121118E+03  0.30657465595E+03  0.41800000000E+01 0.  1.
         -5    1    3    3    0  502 -0.35622206563E+02 -0.26366513835E+02  0.73882675881E+02  0.86256923476E+02  0.41800000000E+01 0.  1.
        -11    1    1    2    0    0  0.80960461788E+02 -0.94031376411E+02  0.31279255530E+03  0.33650509472E+03  0.00000000000E+00 0. -1.
         11    1    1    2    0    0  0.12007071061E+03 -0.13858993942E+02  0.35237446834E+03  0.37252760058E+03  0.00000000000E+00 0.  1.
</event>
<event>
 7    1  0.3056346E-009  0.6538095E+02  0.7561462E-02  0.1376544E+00
         -4   -1    0    0    0  501 -0.00000000000E+00  0.00000000000E+00  0.29432601813E+03  0.29432601813E+03  0.00000000000E+00 0.  1.
          4   -1    0    0  501    0  0.00000000000E+00 -0.00000000000E+00 -0.45055818286E+02  0.45055818286E+02  0.00000000000E+00 0. -1.
         25    2    1    2    0    0 -0.29599513636E+01 -0.21265028438E+02  0.92781511173E+02  0.15719232048E+03  0.12506020172E+03 0.  0.
          5    1    3    3  502    0 -0.16584626776E+02  0.21245757250E+01 -0.28254443638E+02  0.33096067027E+02  0.41800000000E+01 0.  1.
         -5    1    3    3    0  502  0.13624675412E+02 -0.23389604163E+02  0.12103595481E+03  0.12409625345E+03  0.41800000000E+01 0.  1.
        -11    1    1    2    0    0 -0.38753031426E+02  0.21715206076E+02  0.11532084647E+03  0.12358092592E+03  0.00000000000E+00 0.  1.
         11    1    1    2    0    0  0.41712982790E+02 -0.45017763879E+00  0.41167842198E+02  0.58608590022E+02  0.00000000000E+00 0. -1.
</event>
<event>
 7    1  0.3056346E-009  0.6375892E+02  0.7561462E-02  0.1382702E+00
         -1   -1    0    0    0  501 -0.00000000000E+00  0.00000000000E+00  0.10895989179E+03  0.10895989179E+03  0.00000000000E+00 0.  1.
          1   -1    0    0  501    0  0.00000000000E+00 -0.00000000000E+00 -0.11894163898E+03  0.11894163898E+03  0.00000000000E+00 0. -1.
         25    2    1    2    0    0  0.11618380963E+02 -0.27891738750E+02 -0.28916837053E+02  0.13189868956E+03  0.12509254564E+03 0.  0.
          5    1    3    3  502    0 -0.37574147554E+02 -0.68896185759E+01 -0.58983039461E+02  0.70397121764E+02  0.41800000000E+01 0. -1.
         -5    1    3    3    0  502  0.49192528518E+02 -0.21002120174E+02  0.30066202407E+02  0.61501567793E+02  0.41800000000E+01 0. -1.
        -11    1    1    2    0    0 -0.10954961040E+02  0.41931166871E+01  0.53120990039E+02  0.54400670783E+02  0.00000000000E+00 0.  1.
         11    1    1    2    0    0 -0.66341992374E+00  0.23698622063E+02 -0.34185900172E+02  0.41602170427E+02  0.00000000000E+00 0. -1.
</event>
<event>
 7    1  0.3056346E-009  0.8363656E+02  0.7561462E-02  0.1319037E+00
          2   -1    0    0  501    0  0.00000000000E+00  0.00000000000E+00  0.30872453453E+03  0.30872453453E+03  0.00000000000E+00 0. -1.
         -2   -1    0    0    0  501 -0.00000000000E+00 -0.00000000000E+00 -0.97794482251E+02  0.97794482251E+02  0.00000000000E+00 0.  1.
         25    2    1    2    0    0 -0.17532731284E+02 -0.51048675555E+02  0.25525553154E+03  0.28933929879E+03  0.12509388276E+03 0.  0.
          5    1    3    3  502    0 -0.95016649116E+01 -0.48254374515E+02  0.18992324216E+02  0.52886170925E+02  0.41800000000E+01 0.  1.
         -5    1    3    3    0  502 -0.80310663722E+01 -0.27943010402E+01  0.23626320732E+03  0.23645312787E+03  0.41800000000E+01 0.  1.
        -11    1    1    2    0    0  0.24305339475E+02 -0.23367299513E+02 -0.12447859485E+02  0.35940637435E+02  0.00000000000E+00 0.  1.
         11    1    1    2    0    0 -0.67726081908E+01  0.74415975068E+02 -0.31877619771E+02  0.81239080554E+02  0.00000000000E+00 0. -1.
</event>
<event>
 7    1  0.3056346E-009  0.1370710E+03  0.7561462E-02  0.1217325E+00
         -1   -1    0    0    0  501 -0.00000000000E+00  0.00000000000E+00  0.10539366418E+03  0.10539366418E+03  0.00000000000E+00 0.  1.
          1   -1    0    0  501    0  0.00000000000E+00 -0.00000000000E+00 -0.19279525558E+03  0.19279525558E+03  0.00000000000E+00 0. -1.
         25    2    1    2    0    0 -0.41008330717E+02  0.84514650161E+02 -0.48672978552E+02  0.16383360789E+03  0.12509189803E+03 0.  0.
          5    1    3    3  502    0 -0.82133401923E+02  0.70172428958E+02 -0.16133782658E+02  0.10930616103E+03  0.41800000000E+01 0.  1.
         -5    1    3    3    0  502  0.41125071205E+02  0.14342221203E+02 -0.32539195894E+02  0.54527446851E+02  0.41800000000E+01 0.  1.
        -11    1    1    2    0    0  0.50320256910E+02 -0.15521017062E+02  0.37619838945E+01  0.52793775665E+02  0.00000000000E+00 0.  1.
         11    1    1    2    0    0 -0.93119261925E+01 -0.68993633099E+02 -0.42490596738E+02  0.81561536208E+02  0.00000000000E+00 0. -1.
</event>
<event>
 6    1  0.3414591E-009  0.1152795E+03  0.7561462E-02  0.1251094E+00
         -1   -1    0    0    0  501 -0.00000000000E+00  0.00000000000E+00  0.94962075020E+02  0.94962075020E+02  0.00000000000E+00 0.  1.
          1   -1    0    0  501    0  0.00000000000E+00 -0.00000000000E+00 -0.16001675410E+03  0.16001675410E+03  0.00000000000E+00 0. -1.
          5    1    1    2  502    0 -0.78630064861E+02  0.60960926015E+01  0.71684972261E+00  0.78979970363E+02  0.41800000000E+01 0.  1.
         -5    1    1    2    0  502  0.48797850757E+02  0.18790948387E+02  0.71207881203E+01  0.52938719320E+02  0.41800000000E+01 0.  1.
        -11    1    1    2    0    0  0.26139034224E+02  0.32450223325E+02 -0.31989287770E+02  0.52531710767E+02  0.00000000000E+00 0.  1.
         11    1    1    2    0    0  0.36931798799E+01 -0.57337264313E+02 -0.40903029151E+02  0.70528428668E+02  0.00000000000E+00 0. -1.
</event>
<event>
 7    1  0.3056346E-009  0.1402615E+03  0.7561462E-02  0.1212978E+00
         -2   -1    0    0    0  501 -0.00000000000E+00  0.00000000000E+00  0.43396859488E+02  0.43396859488E+02  0.00000000000E+00 0.  1.
          2   -1    0    0  501    0  0.00000000000E+00 -0.00000000000E+00 -0.65561708127E+03  0.65561708127E+03  0.00000000000E+00 0. -1.
         25    2    1    2    0    0 -0.36218390902E+02 -0.93549501249E+02 -0.15802037138E+03  0.22511984356E+03  0.12508087450E+03 0.  0.
          5    1    3    3  502    0  0.35969397033E+02 -0.61793957863E+02 -0.11420370399E+03  0.13480448493E+03  0.41800000000E+01 0.  1.
         -5    1    3    3    0  502 -0.72187787935E+02 -0.31755543386E+02 -0.43816667391E+02  0.90315358627E+02  0.41800000000E+01 0.  1.
        -11    1    1    2    0    0  0.31807676775E+02 -0.41942039571E+01 -0.17818504818E+03  0.18105035500E+03  0.00000000000E+00 0. -1.
         11    1    1    2    0    0  0.44107141269E+01  0.97743705206E+02 -0.27601480222E+03  0.29284374221E+03  0.00000000000E+00 0.  1.
</event>
<event>
 7    1  0.3056346E-009  0.1796662E+03  0.7561462E-02  0.1168127E+00
         -2   -1    0    0    0  501 -0.00000000000E+00  0.00000000000E+00  0.43046733031E+02  0.43046733031E+02  0.00000000000E+00 0.  1.
          2   -1    0    0  501    0  0.00000000000E+00 -0.00000000000E+00 -0.10253651538E+04  0.10253651538E+04  0.00000000000E+00 0. -1.
         25    2    1    2    0    0  0.14446333303E+03  0.66860930664E+02 -0.72141012719E+03  0.74928169308E+03  0.12510173988E+03 0.  0.
          5    1    3    3  502    0  0.15070459591E+03  0.71833609697E+02 -0.72118713314E+03  0.74027042094E+03  0.41800000000E+01 0. -1.
         -5    1    3    3    0  502 -0.62412628833E+01 -0.49726790330E+01 -0.22299405255E+00  0.90112721350E+01  0.41800000000E+01 0. -1.
        -11    1    1    2    0    0 -0.76116754699E+01 -0.43903745906E+02 -0.54200744144E+02  0.70165498458E+02  0.00000000000E+00 0.  1.
         11    1    1    2    0    0 -0.13685165756E+03 -0.22957184757E+02 -0.20670754939E+03  0.24896469526E+03  0.00000000000E+00 0. -1.
</event>
<event>
 7    1  0.3056346E-009  0.1293494E+03  0.7561462E-02  0.1228424E+00
         -1   -1    0    0    0  501 -0.00000000000E+00  0.00000000000E+00  0.56561742363E+03  0.56561742363E+03  0.00000000000E+00 0. -1.
          1   -1    0    0  501    0  0.00000000000E+00 -0.00000000000E+00 -0.47664797537E+02  0.47664797537E+02  0.00000000000E+00 0.  1.
         25    2    1    2    0    0 -0.12099937366E+02  0.10265993961E+03  0.16241186395E+03  0.22958693385E+03  0.12508826866E+03 0.  0.
          5    1    3    3  502    0  0.26694196195E+02  0.83744039092E+02  0.16408699076E+03  0.18619252705E+03  0.41800000000E+01 0. -1.
         -5    1    3    3    0  502 -0.38794133561E+02  0.18915900523E+02 -0.16751268059E+01  0.43394406796E+02  0.41800000000E+01 0. -1.
        -11    1    1    2    0    0  0.36402536615E+02 -0.20746829508E+02  0.44452904441E+02  0.61087120737E+02  0.00000000000E+00 0.  1.
         11    1    1    2    0    0 -0.24302599248E+02 -0.81913110107E+02  0.31108785770E+03  0.32260816658E+03  0.00000000000E+00 0. -1.
</event>
<event>
 7    1  0.3056346E-009  0.8675432E+02  0.7561462E-02  0.1310908E+00
         -1   -1    0    0    0  501 -0.00000000000E+00  0.00000000000E+00  0.48594179315E+02  0.48594179315E+02  0.00000000000E+00 0.  1.
          1   -1    0    0  501    0  0.00000000000E+00 -0.00000000000E+00 -0.45120063365E+03  0.45120063365E+03  0.00000000000E+00 0. -1.
         25    2    1    2    0    0 -0.44794414378E+02 -0.44032306992E+02 -0.85713260970E+02  0.16411210219E+03  0.12506252580E+03 0.  0.
          5    1    3    3  502    0 -0.51766542568E+02 -0.14543068346E+02 -0.11165856326E+03  0.12400154400E+03  0.41800000000E+01 0. -1.
         -5    1    3    3    0  502  0.69721281897E+01 -0.29489238646E+02  0.25945302286E+02  0.40110558187E+02  0.41800000000E+01 0. -1.
        -11    1    1    2    0    0 -0.91609903558E+01 -0.93474671507E+01 -0.39559306860E+01  0.13672902911E+02  0.00000000000E+00 0.  1.
         11    1    1    2    0    0  0.53955404734E+02  0.53379774143E+02 -0.31293726268E+03  0.32200980787E+03  0.00000000000E+00 0. -1.
</event>
<event>
 7    1  0.3056346E-009  0.1172315E+03  0.7561462E-02  0.1247735E+00
          1   -1    0    0  501    0  0.00000000000E+00  0.00000000000E+00  0.19228760768E+03  0.19228760768E+03  0.00000000000E+00 0. -1.
         -1   -1    0    0    0  501 -0.00000000000E+00 -0.00000000000E+00 -0.85033333048E+02  0.85033333048E+02  0.00000000000E+00 0.  1.
         25    2    1    2    0    0  0.24462605594E+02  0.58094895349E+02  0.29035967837E+02  0.14305216623E+03  0.12508956350E+03 0.  0.
          5    1    3    3  502    0  0.61505226848E+02  0.53799735762E+01  0.45036810893E+02  0.76535114691E+02  0.41800000000E+01 0. -1.
         -5    1    3    3    0  502 -0.37042621254E+02  0.52714921773E+02 -0.16000843056E+02  0.66517051539E+02  0.41800000000E+01 0. -1.
        -11    1    1    2    0    0  0.13841553470E+02 -0.67229386803E+02  0.40265688932E+02  0.79578293256E+02  0.00000000000E+00 0.  1.
         11    1    1    2    0    0 -0.38304159064E+02  0.91344914537E+01  0.37952617860E+02  0.54690481239E+02  0.00000000000E+00 0. -1.
</event>
<event>
 7    1  0.3167220E-009  0.9959352E+02  0.7561462E-02  0.1281153E+00
          2   -1    0    0  501    0  0.00000000000E+00  0.00000000000E+00  0.46565734566E+03  0.46565734566E+03  0.00000000000E+00 0. -1.
         -2   -1    0    0    0  501 -0.00000000000E+00 -0.00000000000E+00 -0.37222678979E+02  0.37222678979E+02  0.00000000000E+00 0.  1.
         25    2    1    2    0    0 -0.39895023371E+02 -0.16807650114E+02  0.12186194698E+03  0.17992342454E+03  0.12509194452E+03 0.  0.
          5    1    3    3  502    0 -0.52849607943E+02 -0.62526703629E+02  0.93822190928E+02  0.12459031117E+03  0.41800000000E+01 0. -1.
         -5    1    3    3    0  502  0.12954584571E+02  0.45719053514E+02  0.28039756055E+02  0.55333113370E+02  0.41800000000E+01 0. -1.
        -11    1    1    2    0    0 -0.85354623214E+01 -0.10796650000E+02  0.27156637144E+01  0.14028421068E+02  0.00000000000E+00 0.  1.
         11    1    1    2    0    0  0.48430485693E+02  0.27604300114E+02  0.30385705598E+03  0.30892817903E+03  0.00000000000E+00 0. -1.
</event>
<event>
 7    1  0.3056346E-009  0.7748643E+02  0.7561462E-02  0.1336340E+00
         -2   -1    0    0    0  501 -0.00000000000E+00  0.00000000000E+00  0.19915449362E+02  0.19915449362E+02  0.00000000000E+00 0. -1.
          2   -1    0    0  501    0  0.00000000000E+00 -0.00000000000E+00 -0.79367796167E+03  0.79367796167E+03  0.00000000000E+00 0.  1.
         25    2    1    2    0    0  0.41000918857E+02  0.14153567631E+01 -0.58735460470E+03  0.60192813360E+03  0.12509583437E+03 0.  0.
          5    1    3    3  502    0  0.25217943509E+02  0.47777943579E+02 -0.48881819641E+03  0.49181234034E+03  0.41800000000E+01 0. -1.
         -5    1    3    3    0  502  0.15782975348E+02 -0.46362586816E+02 -0.98536408285E+02  0.11011579326E+03  0.41800000000E+01 0. -1.
        -11    1    1    2    0    0 -0.29649517297E+01 -0.11830995605E+02  0.71450610209E+01  0.14135603728E+02  0.00000000000E+00 0. -1.
         11    1    1    2    0    0 -0.38035967128E+02  0.10415638842E+02 -0.19355296863E+03  0.19752967370E+03  0.00000000000E+00 0.  1.
</event>
<event>
 7    1  0.3056346E-009  0.7162519E+02  0.7561462E-02  0.1354652E+00
          2   -1    0    0  501    0  0.00000000000E+00  0.00000000000E+00  0.25874317920E+03  0.25874317920E+03  0.00000000000E+00 0.  1.
         -2   -1    0    0    0  501 -0.00000000000E+00 -0.00000000000E+00 -0.53512379180E+02  0.53512379180E+02  0.00000000000E+00 0. -1.
         25    2    1    2    0    0  0.21938749178E+02  0.26050607936E+02  0.15462987660E+03  0.20178843380E+03  0.12509288703E+03 0.  0.
          5    1    3    3  502    0  0.36539311823E+02  0.69472737899E+01  0.16925040234E+03  0.17333942717E+03  0.41800000000E+01 0. -1.
         -5    1    3    3    0  502 -0.14600562645E+02  0.19103334146E+02 -0.14620525734E+02  0.28449006622E+02  0.41800000000E+01 0. -1.
        -11    1    1    2    0    0  0.26256116377E+01  0.24803260647E+02  0.47806973468E+02  0.53922187338E+02  0.00000000000E+00 0.  1.
         11    1    1    2    0    0 -0.24564360816E+02 -0.50853868583E+02  0.27939499508E+01  0.56544937248E+02  0.00000000000E+00 0. -1.
</event>
<event>
 7    1  0.3056346E-009  0.1740336E+03  0.7561462E-02  0.1173706E+00
         -2   -1    0    0    0  501 -0.00000000000E+00  0.00000000000E+00  0.46393039214E+02  0.46393039214E+02  0.00000000000E+00 0.  1.
          2   -1    0    0  501    0  0.00000000000E+00 -0.00000000000E+00 -0.81162220678E+03  0.81162220678E+03  0.00000000000E+00 0. -1.
         25    2    1    2    0    0  0.63776672172E+01  0.14559131633E+03 -0.25223665189E+03  0.31703203629E+03  0.12509387454E+03 0.  0.
          5    1    3    3  502    0  0.49164857845E+02  0.11758127010E+03 -0.11963872137E+03  0.17485260758E+03  0.41800000000E+01 0.  1.
         -5    1    3    3    0  502 -0.42787190628E+02  0.28010046238E+02 -0.13259793052E+03  0.14217942871E+03  0.41800000000E+01 0.  1.
        -11    1    1    2    0    0 -0.43921716423E+02 -0.50054030781E+02 -0.15831919826E+03  0.17175416067E+03  0.00000000000E+00 0.  1.
         11    1    1    2    0    0  0.37544049206E+02 -0.95537285553E+02 -0.35467331742E+03  0.36922904904E+03  0.00000000000E+00 0. -1.
</event>
<event>
 7    1  0.3056346E-009  0.1314439E+03  0.7561462E-02  0.1225329E+00
          2   -1    0    0  501    0  0.00000000000E+00  0.00000000000E+00  0.84011803518E+03  0.84011803518E+03  0.00000000000E+00 0. -1.
         -2   -1    0    0    0  501 -0.00000000000E+00 -0.00000000000E+00 -0.26344892733E+02  0.26344892733E+02  0.00000000000E+00 0.  1.
         25    2    1    2    0    0  0.65587461466E+02  0.42178161927E+02  0.25317231406E+03  0.29295756622E+03  0.12508877867E+03 0.  0.
          5    1    3    3  502    0 -0.23500236379E+02 -0.25019758003E+02  0.45291567506E+02  0.56982873633E+02  0.41800000000E+01 0. -1.
         -5    1    3    3    0  502  0.89087697845E+02  0.67197919931E+02  0.20788074656E+03  0.23597469258E+03  0.41800000000E+01 0. -1.
        -11    1    1    2    0    0 -0.86032635302E+02 -0.24086963466E+02  0.48420491537E+03  0.49237810290E+03  0.00000000000E+00 0. -1.
         11    1    1    2    0    0  0.20445173836E+02 -0.18091198461E+02  0.76395913012E+02  0.81127258797E+02  0.00000000000E+00 0.  1.
</event>
<event>
 7    1  0.3056346E-009  0.1279896E+03  0.7561462E-02  0.1230470E+00
         -1   -1    0    0    0  501 -0.00000000000E+00  0.00000000000E+00  0.49551864706E+03  0.49551864706E+03  0.00000000000E+00 0.  1.
          1   -1    0    0  501    0  0.00000000000E+00 -0.00000000000E+00 -0.37440921409E+02  0.37440921409E+02  0.00000000000E+00 0. -1.
         25    2    1    2    0    0 -0.64916919231E+02  0.21928204601E+02  0.33904329514E+03  0.36781929394E+03  0.12508247063E+03 0.  0.
          5    1    3    3  502    0  0.35487540436E+02  0.20152704498E+02  0.78736761076E+02  0.88783145752E+02  0.41800000000E+01 0.  1.
         -5    1    3    3    0  502 -0.10040445967E+03  0.17755001026E+01  0.26030653406E+03  0.27903614819E+03  0.41800000000E+01 0.  1.
        -11    1    1    2    0    0 -0.21738467896E+02  0.74009980506E+01  0.22771999560E+02  0.32340372950E+02  0.00000000000E+00 0. -1.
         11    1    1    2    0    0  0.86655387127E+02 -0.29329202651E+02  0.96262430960E+02  0.13279990158E+03  0.00000000000E+00 0.  1.
</event>
<event>
 7    1  0.3056346E-009  0.9517910E+02  0.7561462E-02  0.1290773E+00
         -1   -1    0    0    0  501 -0.00000000000E+00  0.00000000000E+00  0.22248291057E+02  0.22248291057E+02  0.00000000000E+00 0.  1.
          1   -1    0    0  501    0  0.00000000000E+00 -0.00000000000E+00 -0.56534504370E+03  0.56534504370E+03  0.00000000000E+00 0. -1.
         25    2    1    2    0    0 -0.11205606948E+02  0.12179519418E+02 -0.25480557260E+03  0.28433636734E+03  0.12508950254E+03 0.  0.
          5    1    3    3  502    0  0.26305924658E+02 -0.33731542415E+02 -0.31581659041E+02  0.53335656119E+02  0.41800000000E+01 0. -1.
         -5    1    3    3    0  502 -0.37511531606E+02  0.45911061834E+02 -0.22322391356E+03  0.23100071122E+03  0.41800000000E+01 0. -1.
        -11    1    1    2    0    0  0.46165807046E+02  0.90475776199E+01 -0.20673228451E+03  0.21201739990E+03  0.00000000000E+00 0.  1.
         11    1    1    2    0    0 -0.34960200098E+02 -0.21227097038E+02 -0.81558895537E+02  0.91239567518E+02  0.00000000000E+00 0. -1.
</event>
<event>
 7    1  0.3056346E-009  0.8496691E+02  0.7561462E-02  0.1315519E+00
         -1   -1    0    0    0  501 -0.00000000000E+00  0.00000000000E+00  0.89827097619E+02  0.89827097619E+02  0.00000000000E+00 0.  1.
          1   -1    0    0  501    0  0.00000000000E+00 -0.00000000000E+00 -0.14687386220E+03  0.14687386220E+03  0.00000000000E+00 0. -1.
         25    2    1    2    0    0  0.18487006834E+02 -0.32620934886E+02 -0.36084587571E+02  0.13549096724E+03  0.12509920035E+03 0.  0.
          5    1    3    3  502    0  0.23755535517E+02  0.15144507324E+02  0.37754627745E+02  0.47292344898E+02  0.41800000000E+01 0. -1.
         -5    1    3    3    0  502 -0.52685286829E+01 -0.47765442210E+02 -0.73839215316E+02  0.88198622339E+02  0.41800000000E+01 0. -1.
        -11    1    1    2    0    0  0.34210799695E+02  0.17302556540E+02 -0.25656697563E+02  0.46130504099E+02  0.00000000000E+00 0. -1.
         11    1    1    2    0    0 -0.52697806528E+02  0.15318378346E+02  0.46945205553E+01  0.55079488481E+02  0.00000000000E+00 0.  1.
</event>
<event>
 7    1  0.3056346E-009  0.9686770E+02  0.7561462E-02  0.1287024E+00
          1   -1    0    0  501    0  0.00000000000E+00  0.00000000000E+00  0.88911128528E+03  0.88911128528E+03  0.00000000000E+00 0. -1.
         -1   -1    0    0    0  501 -0.00000000000E+00 -0.00000000000E+00 -0.23562903744E+02  0.23562903744E+02  0.00000000000E+00 0.  1.
         25    2    1    2    0    0 -0.32005686913E+02 -0.18820762840E+02  0.74852827900E+03  0.75981617727E+03  0.12508978240E+03 0.  0.
          5    1    3    3  502    0 -0.26374581908E+02 -0.57001824731E+02  0.19455882362E+03  0.20448822666E+03  0.41800000000E+01 0. -1.
         -5    1    3    3    0  502 -0.56311050057E+01  0.38181061890E+02  0.55396945539E+03  0.55532795061E+03  0.41800000000E+01 0. -1.
        -11    1    1    2    0    0 -0.82887433585E+01  0.43788430308E+02  0.29869705955E+02  0.53650062713E+02  0.00000000000E+00 0.  1.
         11    1    1    2    0    0  0.40294430272E+02 -0.24967667467E+02  0.87150396577E+02  0.99207949042E+02  0.00000000000E+00 0. -1.
</event>
<event>
 7    1  0.3056346E-009  0.1143504E+03  0.7561462E-02  0.1252719E+00
          1   -1    0    0  501    0  0.00000000000E+00  0.00000000000E+00  0.59746989572E+02  0.59746989572E+02  0.00000000000E+00 0. -1.
         -1   -1    0    0    0  501 -0.00000000000E+00 -0.00000000000E+00 -0.23789993274E+03  0.23789993274E+03  0.00000000000E+00 0.  1.
         25    2    1    2    0    0  0.49144906026E+02  0.11426654172E+02 -0.93976920520E+02  0.16439254996E+03  0.12508980245E+03 0.  0.
          5    1    3    3  502    0 -0.12941674187E+02 -0.44252427235E+02 -0.13023833897E+02  0.48092170842E+02  0.41800000000E+01 0.  1.
         -5    1    3    3    0  502  0.62086580213E+02  0.55679081407E+02 -0.80953086622E+02  0.11630037912E+03  0.41800000000E+01 0.  1.
        -11    1    1    2    0    0 -0.25461061060E+02 -0.48578320889E+02 -0.65420928338E+02  0.85369882016E+02  0.00000000000E+00 0.  1.
         11    1    1    2    0    0 -0.23683844966E+02  0.37151666717E+02 -0.18755094308E+02  0.47884490336E+02  0.00000000000E+00 0. -1.
</event>
<event>
 7    1  0.3056346E-009  0.1841221E+03  0.7561462E-02  0.1163872E+00
         -2   -1    0    0    0  501 -0.00000000000E+00  0.00000000000E+00  0.36471477821E+03  0.36471477821E+03  0.00000000000E+00 0. -1.
          2   -1    0    0  501    0  0.00000000000E+00 -0.00000000000E+00 -0.10133052689E+03  0.10133052689E+03  0.00000000000E+00 0.  1.
         25    2    1    2    0    0  0.15004197211E+03  0.19244302909E+02  0.80901994271E+02  0.21231512135E+03  0.12509852713E+03 0.  0.
          5    1    3    3  502    0  0.72797127939E+02 -0.49807189126E+02  0.15320951360E+02  0.89623556476E+02  0.41800000000E+01 0.  1.
         -5    1    3    3    0  502  0.77244844166E+02  0.69051492035E+02  0.65581042911E+02  0.12269156488E+03  0.41800000000E+01 0.  1.
        -11    1    1    2    0    0 -0.13047142785E+03  0.20379124228E+02  0.13923063915E+03  0.19189391097E+03  0.00000000000E+00 0. -1.
         11    1    1    2    0    0 -0.19570544256E+02 -0.39623427138E+02  0.43251617904E+02  0.61836272784E+02  0.00000000000E+00 0.  1.
</event>
<event>
 7    1  0.3056346E-009  0.1046904E+03  0.7561462E-02  0.1270731E+00
         -2   -1    0    0    0  501 -0.00000000000E+00  0.00000000000E+00  0.25349568655E+03  0.25349568655E+03  0.00000000000E+00 0.  1.
          2   -1    0    0  501    0  0.00000000000E+00 -0.00000000000E+00 -0.63349192044E+02  0.63349192044E+02  0.00000000000E+00 0. -1.
         25    2    1    2    0    0  0.61050119459E+02  0.10727102819E+02  0.73630745867E+02  0.15783550866E+03  0.12509345800E+03 0.  0.
          5    1    3    3  502    0  0.87217995739E+02  0.13823836117E+02  0.90304199835E+02  0.12637404058E+03  0.41800000000E+01 0.  1.
         -5    1    3    3    0  502 -0.26167876280E+02 -0.30967332987E+01 -0.16673453968E+02  0.31461468074E+02  0.41800000000E+01 0.  1.
        -11    1    1    2    0    0 -0.76858230310E+02 -0.14075547772E+02  0.11930173847E+03  0.14261210823E+03  0.00000000000E+00 0.  1.
         11    1    1    2    0    0  0.15808110851E+02  0.33484449528E+01 -0.27859898288E+01  0.16397261710E+02  0.00000000000E+00 0. -1.
</event>
<event>
 7    1  0.3056346E-009  0.1043836E+03  0.7561462E-02  0.1271339E+00
          2   -1    0    0  501    0  0.00000000000E+00  0.00000000000E+00  0.10084649732E+04  0.10084649732E+04  0.00000000000E+00 0.  1.
         -2   -1    0    0    0  501 -0.00000000000E+00 -0.00000000000E+00 -0.12292458104E+02  0.12292458104E+02  0.00000000000E+00 0. -1.
         25    2    1    2    0    0 -0.65208255447E+00 -0.41547178390E+01  0.61526434831E+03  0.62786637259E+03  0.12509307190E+03 0.  0.
          5    1    3    3  502    0  0.42997868312E+02  0.34635099564E+02  0.43056309251E+03  0.43410880644E+03  0.41800000000E+01 0.  1.
         -5    1    3    3    0  502 -0.43649950866E+02 -0.38789817403E+02  0.18470125580E+03  0.19375756615E+03  0.41800000000E+01 0.  1.
        -11    1    1    2    0    0 -0.43420737808E+02 -0.16150484193E+02  0.22001527879E+03  0.22483976853E+03  0.00000000000E+00 0. -1.
         11    1    1    2    0    0  0.44072820362E+02  0.20305202032E+02  0.16089288795E+03  0.16805129014E+03  0.00000000000E+00 0.  1.
</event>
<event>
 7    1  0.3056346E-009  0.2182320E+03  0.7561462E-02  0.1135208E+00
         -1   -1    0    0    0  501 -0.00000000000E+00  0.00000000000E+00  0.63310437030E+03  0.63310437030E+03  0.00000000000E+00 0.  1.
          1   -1    0    0  501    0  0.00000000000E+00 -0.00000000000E+00 -0.12809838270E+03  0.12809838270E+03  0.00000000000E+00 0. -1.
         25    2    1    2    0    0  0.84417077254E+02  0.16767939073E+03  0.13601051490E+02  0.22599693958E+03  0.12508799738E+03 0.  0.
          5    1    3    3  502    0  0.36345548088E+02  0.17300894820E+03  0.66922973825E+01  0.17696144853E+03  0.41800000000E+01 0. -1.
         -5    1    3    3    0  502  0.48071529166E+02 -0.53295574647E+01  0.69087541076E+01  0.49035491049E+02  0.41800000000E+01 0. -1.
        -11    1    1    2    0    0 -0.10216041741E+03 -0.10732150799E+03  0.32062929995E+03  0.35321070900E+03  0.00000000000E+00 0. -1.
         11    1    1    2    0    0  0.17743340159E+02 -0.60357882739E+02  0.17077563616E+03  0.18199510442E+03  0.00000000000E+00 0.  1.
</event>
<event>
 7    1  0.3056346E-009  0.1070463E+03  0.7561462E-02  0.1266139E+00
         -2   -1    0    0    0  501 -0.00000000000E+00  0.00000000000E+00  0.13329511614E+03  0.13329511614E+03  0.00000000000E+00 0.  1.
          2   -1    0    0  501    0  0.00000000000E+00 -0.00000000000E+00 -0.14356383693E+03  0.14356383693E+03  0.00000000000E+00 0. -1.
         25    2    1    2    0    0  0.70553126244E+02  0.30359566741E+02  0.35730181554E+02  0.15107461660E+03  0.12508975574E+03 0.  0.
          5    1    3    3  502    0 -0.26117928545E+00  0.30501716483E+02  0.66859184449E+02  0.73607376453E+02  0.41800000000E+01 0. -1.
         -5    1    3    3    0  502  0.70814305529E+02 -0.14214974260E+00 -0.31129002895E+02  0.77467240143E+02  0.41800000000E+01 0. -1.
        -11    1    1    2    0    0 -0.36825157285E+02  0.27112257633E+02 -0.36423262011E+02  0.58462130807E+02  0.00000000000E+00 0. -1.
         11    1    1    2    0    0 -0.33727968959E+02 -0.57471824374E+02 -0.95756403327E+01  0.67322205659E+02  0.00000000000E+00 0.  1.
</event>
<event>
 7    1  0.3056346E-009  0.1306218E+03  0.7561462E-02  0.1226536E+00
          1   -1    0    0  501    0  0.00000000000E+00  0.00000000000E+00  0.97649975027E+03  0.97649975027E+03  0.00000000000E+00 0. -1.
         -1   -1    0    0    0  501 -0.00000000000E+00 -0.00000000000E+00 -0.24451403259E+02  0.24451403259E+02  0.00000000000E+00 0.  1.
         25    2    1    2    0    0 -0.10591657309E+03  0.28557895564E+02  0.48278558395E+03  0.51064933660E+03  0.12508777335E+03 0.  0.
          5    1    3    3  502    0 -0.27147445561E+02 -0.19386331352E+02  0.20803698574E+02  0.39535805520E+02  0.41800000000E+01 0. -1.
         -5    1    3    3    0  502 -0.78769127530E+02  0.47944226916E+02  0.46198188538E+03  0.47111353108E+03  0.41800000000E+01 0. -1.
        -11    1    1    2    0    0  0.93544534161E+02  0.10700430079E+02  0.24859843767E+03  0.26583126657E+03  0.00000000000E+00 0.  1.
         11    1    1    2    0    0  0.12372038930E+02 -0.39258325642E+02  0.22066432539E+03  0.22447055036E+03  0.00000000000E+00 0. -1.
</event>
<event>
 7    1  0.3056346E-009  0.1054478E+03  0.7561462E-02  0.1269240E+00
          1   -1    0    0  501    0  0.00000000000E+00  0.00000000000E+00  0.24225248456E+02  0.24225248456E+02  0.00000000000E+00 0. -1.
         -1   -1    0    0    0  501 -0.00000000000E+00 -0.00000000000E+00 -0.56724979853E+03  0.56724979853E+03  0.00000000000E+00 0.  1.
         25    2    1    2    0    0 -0.36878025250E+02  0.23162337187E+02 -0.32144547831E+03  0.34766541038E+03  0.12509020520E+03 0.  0.
          5    1    3    3  502    0  0.30405013836E+02 -0.22670042953E+02 -0.18357807955E+03  0.18750141174E+03  0.41800000000E+01 0. -1.
         -5    1    3    3    0  502 -0.67283039087E+02  0.45832380139E+02 -0.13786739876E+03  0.16016399863E+03  0.41800000000E+01 0. -1.
        -11    1    1    2    0    0 -0.37764574638E+00 -0.46994606969E+02 -0.16739885742E+03  0.17387067944E+03  0.00000000000E+00 0.  1.
         11    1    1    2    0    0  0.37255670997E+02  0.23832269783E+02 -0.54180214339E+02  0.69938957171E+02  0.00000000000E+00 0. -1.
</event>
<event>
 7    1  0.3056346E-009  0.2077261E+03  0.7561462E-02  0.1143379E+00
         -4   -1    0    0    0  501 -0.00000000000E+00  0.00000000000E+00  0.76278201645E+02  0.76278201645E+02  0.00000000000E+00 0.  1.
          4   -1    0    0  501    0  0.00000000000E+00 -0.00000000000E+00 -0.69143796691E+03  0.69143796691E+03  0.00000000000E+00 0. -1.
         25    2    1    2    0    0  0.17419365666E+03  0.73545496159E+02 -0.19849018722E+03  0.30132705817E+03  0.12508905442E+03 0.  0.
          5    1    3    3  502    0  0.14285707418E+03  0.10806104804E+03 -0.14714873476E+03  0.23185244507E+03  0.41800000000E+01 0.  1.
         -5    1    3    3    0  502  0.31336582478E+02 -0.34515551881E+02 -0.51341452466E+02  0.69474613092E+02  0.41800000000E+01 0.  1.
        -11    1    1    2    0    0 -0.10201504368E+03 -0.36538578935E+02 -0.13410619369E+03  0.17241405997E+03  0.00000000000E+00 0.  1.
         11    1    1    2    0    0 -0.72178612974E+02 -0.37006917224E+02 -0.28256338435E+03  0.29397505042E+03  0.00000000000E+00 0. -1.
</event>
<event>
 7    1  0.3056346E-009  0.1424164E+03  0.7561462E-02  0.1210114E+00
         -1   -1    0    0    0  501 -0.00000000000E+00  0.00000000000E+00  0.20380413096E+02  0.20380413096E+02  0.00000000000E+00 0.  1.
          1   -1    0    0  501    0  0.00000000000E+00 -0.00000000000E+00 -0.13733845503E+04  0.13733845503E+04  0.00000000000E+00 0. -1.
         25    2    1    2    0    0 -0.17554667083E+02  0.10486670531E+03 -0.10078748425E+04  0.10211585965E+04  0.12509192140E+03 0.  0.
          5    1    3    3  502    0 -0.31623981657E+02  0.11952189596E+03 -0.59300207042E+03  0.60576768464E+03  0.41800000000E+01 0. -1.
         -5    1    3    3    0  502  0.14069314574E+02 -0.14655190656E+02 -0.41487277209E+03  0.41539091185E+03  0.41800000000E+01 0. -1.
        -11    1    1    2    0    0 -0.19855739581E+02 -0.10082128181E+03 -0.25679788237E+03  0.27659416778E+03  0.00000000000E+00 0.  1.
         11    1    1    2    0    0  0.37410406664E+02 -0.40454234982E+01 -0.88331412300E+02  0.96012199105E+02  0.00000000000E+00 0. -1.
</event>
<event>
 7    1  0.3056346E-009  0.7482249E+02  0.7561462E-02  0.1344422E+00
         -2   -1    0    0    0  501 -0.00000000000E+00  0.00000000000E+00  0.12924978704E+02  0.12924978704E+02  0.00000000000E+00 0.  1.
          2   -1    0    0  501    0  0.00000000000E+00 -0.00000000000E+00 -0.11434540988E+04  0.11434540988E+04  0.00000000000E+00 0. -1.
         25    2    1    2    0    0  0.38990622655E+02  0.11375905715E+01 -0.80984897504E+03  0.82038079441E+03  0.12509085776E+03 0.  0.
          5    1    3    3  502    0  0.21428822208E+02  0.19560170129E+02 -0.78151699274E+03  0.78206654258E+03  0.41800000000E+01 0. -1.
         -5    1    3    3    0  502  0.17561800446E+02 -0.18422579557E+02 -0.28331982301E+02  0.38314251833E+02  0.41800000000E+01 0. -1.
        -11    1    1    2    0    0 -0.64367369152E+02 -0.14321811765E+02 -0.26867762737E+03  0.27665129667E+03  0.00000000000E+00 0. -1.
         11    1    1    2    0    0  0.25376746497E+02  0.13184221194E+02 -0.52002517685E+02  0.59346986418E+02  0.00000000000E+00 0.  1.
</event>
<event>
 7    1  0.3056346E-009  0.1330830E+03  0.7561462E-02  0.1222951E+00
         -2   -1    0    0    0  501 -0.00000000000E+00  0.00000000000E+00  0.11596452443E+02  0.11596452443E+02  0.00000000000E+00 0.  1.
          2   -1    0    0  501    0  0.00000000000E+00 -0.00000000000E+00 -0.21749233552E+04  0.21749233552E+04  0.00000000000E+00 0. -1.
         25    2    1    2    0    0 -0.34652695619E+02 -0.90287704115E+02 -0.16086824506E+04  0.16164339718E+04  0.12508748859E+03 0.  0.
          5    1    3    3  502    0  0.18052211209E+02 -0.77911054249E+02 -0.49567581333E+03  0.50210357401E+03  0.41800000000E+01 0.  1.
         -5    1    3    3    0  502 -0.52704906828E+02 -0.12376649866E+02 -0.11130066372E+04  0.11143303978E+04  0.41800000000E+01 0.  1.
        -11    1    1    2    0    0  0.59985545426E+02  0.87789739576E+02 -0.44590802351E+03  0.45840949976E+03  0.00000000000E+00 0.  1.
         11    1    1    2    0    0 -0.25332849807E+02  0.24979645391E+01 -0.10873642869E+03  0.11167633603E+03  0.00000000000E+00 0. -1.
</event>
<event>
 7    1  0.3056346E-009  0.1016697E+03  0.7561462E-02  0.1276824E+00
         -1   -1    0    0    0  501 -0.00000000000E+00  0.00000000000E+00  0.58712923234E+02  0.58712923234E+02  0.00000000000E+00 0.  1.
          1   -1    0    0  501    0  0.00000000000E+00 -0.00000000000E+00 -0.20624948113E+03  0.20624948113E+03  0.00000000000E+00 0. -1.
         25    2    1    2    0    0 -0.14509854322E+02  0.76607214106E+01 -0.93316998788E+02  0.15692273862E+03  0.12508981216E+03 0.  0.
          5    1    3    3  502    0 -0.46362939780E+02 -0.33745472401E+02 -0.98008624067E+01  0.58325023759E+02  0.41800000000E+01 0.  1.
         -5    1    3    3    0  502  0.31853085457E+02  0.41406193812E+02 -0.83516136382E+02  0.98597714858E+02  0.41800000000E+01 0.  1.
        -11    1    1    2    0    0  0.50434512357E+02  0.12880612366E+02 -0.31115843410E+02  0.60644422025E+02  0.00000000000E+00 0.  1.
         11    1    1    2    0    0 -0.35924658035E+02 -0.20541333777E+02 -0.23103715693E+02  0.47395243718E+02  0.00000000000E+00 0. -1.
</event>
<event>
 7    1  0.3056346E-009  0.1383503E+03  0.7561462E-02  0.1215566E+00
         -2   -1    0    0    0  501 -0.00000000000E+00  0.00000000000E+00  0.31341630446E+02  0.31341630446E+02  0.00000000000E+00 0.  1.
          2   -1    0    0  501    0  0.00000000000E+00 -0.00000000000E+00 -0.98388182108E+03  0.98388182108E+03  0.00000000000E+00 0. -1.
         25    2    1    2    0    0  0.61757201604E+02 -0.74248818343E+02 -0.78673085575E+03  0.80244553258E+03  0.12508618784E+03 0.  0.
          5    1    3    3  502    0  0.10017418742E+03 -0.59505366628E+02 -0.59168920038E+03  0.60306661218E+03  0.41800000000E+01 0.  1.
         -5    1    3    3    0  502 -0.38416985820E+02 -0.14743451715E+02 -0.19504165538E+03  0.19937892040E+03  0.41800000000E+01 0.  1.
        -11    1    1    2    0    0 -0.40363185891E+02  0.85521241243E+02 -0.80765734459E+02  0.12436307065E+03  0.00000000000E+00 0.  1.
         11    1    1    2    0    0 -0.21394015713E+02 -0.11272422900E+02 -0.85043600423E+02  0.88414848297E+02  0.00000000000E+00 0. -1.
</event>
<event>
 7    1  0.3056346E-009  0.1173238E+03  0.7561462E-02  0.1247578E+00
         -3   -1    0    0    0  501 -0.00000000000E+00  0.00000000000E+00  0.12168493792E+04  0.12168493792E+04  0.00000000000E+00 0.  1.
          3   -1    0    0  501    0  0.00000000000E+00 -0.00000000000E+00 -0.16846482810E+02  0.16846482810E+02  0.00000000000E+00 0. -1.
         25    2    1    2    0    0  0.47868667827E+02 -0.47835529426E+02  0.95822697605E+03  0.96872258472E+03  0.12507941987E+03 0.  0.
          5    1    3    3  502    0  0.89960865274E+02 -0.24179181631E+02  0.66799516736E+03  0.67447209439E+03  0.41800000000E+01 0. -1.
         -5    1    3    3    0  502 -0.42092197447E+02 -0.23656347796E+02  0.29023180870E+03  0.29425049033E+03  0.41800000000E+01 0. -1.
        -11    1    1    2    0    0  0.17022869823E+01  0.43105653671E+02  0.46418735003E+02  0.63369504643E+02  0.00000000000E+00 0. -1.
         11    1    1    2    0    0 -0.49570954809E+02  0.47298757554E+01  0.19535718537E+03  0.20160377269E+03  0.00000000000E+00 0.  1.
</event>
<event>
 7    1  0.3056346E-009  0.1382452E+03  0.7561462E-02  0.1215710E+00
         -3   -1    0    0    0  501 -0.00000000000E+00  0.00000000000E+00  0.11273242164E+03  0.11273242164E+03  0.00000000000E+00 0.  1.
          3   -1    0    0  501    0  0.00000000000E+00 -0.00000000000E+00 -0.32564681089E+03  0.32564681089E+03  0.00000000000E+00 0. -1.
         25    2    1    2    0    0 -0.64325328998E+02  0.87402152946E+02  0.19240772864E+02  0.16671474259E+03  0.12508682491E+03 0.  0.
          5    1    3    3  502    0 -0.19588371455E+02 -0.15436623651E+02  0.44956112838E+02  0.51580210619E+02  0.41800000000E+01 0.  1.
         -5    1    3    3    0  502 -0.44736957543E+02  0.10283877660E+03 -0.25715339974E+02  0.11513453197E+03  0.41800000000E+01 0.  1.
        -11    1    1    2    0    0 -0.13174532302E+02 -0.52235592344E+02 -0.11358997356E+03  0.12571717266E+03  0.00000000000E+00 0. -1.
         11    1    1    2    0    0  0.77499861300E+02 -0.35166560602E+02 -0.11856518855E+03  0.14594731728E+03  0.00000000000E+00 0.  1.
</event>
<event>
 7    1  0.3056346E-009  0.8788537E+02  0.7561462E-02  0.1308055E+00
          1   -1    0    0  501    0  0.00000000000E+00  0.00000000000E+00  0.34319701863E+03  0.34319701863E+03  0.00000000000E+00 0. -1.
         -1   -1    0    0    0  501 -0.00000000000E+00 -0.00000000000E+00 -0.38080687509E+02  0.38080687509E+02  0.00000000000E+00 0.  1.
         25    2    1    2    0    0  0.66358242790E+01 -0.32139601657E+02  0.15181661973E+03  0.19943176784E+03  0.12509099024E+03 0.  0.
          5    1    3    3  502    0  0.65679298845E+01 -0.65584269356E+02  0.15199774511E+03  0.16572634374E+03  0.41800000000E+01 0. -1.
         -5    1    3    3    0  502  0.67894394550E-01  0.33444667699E+02 -0.18112538499E+00  0.33705424097E+02  0.41800000000E+01 0. -1.
        -11    1    1    2    0    0  0.18429074646E+02 -0.14248164068E+02  0.11328416976E+03  0.11565441665E+03  0.00000000000E+00 0. -1.
         11    1    1    2    0    0 -0.25064898925E+02  0.46387765725E+02  0.40015541632E+02  0.66191521656E+02  0.00000000000E+00 0.  1.
</event>
<event>
 7    1  0.3901085E-009  0.8612039E+02  0.7561462E-02  0.1312528E+00
         -2   -1    0    0    0  501 -0.00000000000E+00  0.00000000000E+00  0.21692733487E+03  0.21692733487E+03  0.00000000000E+00 0.  1.
          2   -1    0    0  501    0  0.00000000000E+00 -0.00000000000E+00 -0.88277342522E+02  0.88277342522E+02  0.00000000000E+00 0. -1.
         25    2    1    2    0    0 -0.27200938684E+01  0.18539557481E+02  0.16212840119E+03  0.20562951075E+03  0.12508702217E+03 0.  0.
          5    1    3    3  502    0 -0.12739921088E+00 -0.51373307905E+02  0.41731919392E+02  0.66319367396E+02  0.41800000000E+01 0. -1.
         -5    1    3    3    0  502 -0.25926946575E+01  0.69912865385E+02  0.12039648179E+03  0.13931014335E+03  0.41800000000E+01 0. -1.
        -11    1    1    2    0    0 -0.20604978000E+02  0.33349674616E+00  0.25869247455E+02  0.33074072963E+02  0.00000000000E+00 0.  1.
         11    1    1    2    0    0  0.23325071868E+02 -0.18873054227E+02 -0.59347656294E+02  0.66501093683E+02  0.00000000000E+00 0. -1.
</event>
<event>
 7    1  0.3056346E-009  0.8468260E+02  0.7561462E-02  0.1316265E+00
          2   -1    0    0  501    0  0.00000000000E+00  0.00000000000E+00  0.24791950448E+03  0.24791950448E+03  0.00000000000E+00 0. -1.
         -2   -1    0    0    0  501 -0.00000000000E+00 -0.00000000000E+00 -0.55035527743E+02  0.55035527743E+02  0.00000000000E+00 0.  1.
         25    2    1    2    0    0 -0.30979339989E+02 -0.19588632374E+02  0.13901150603E+03  0.19056351800E+03  0.12508725579E+03 0.  0.
          5    1    3    3  502    0  0.23614394363E+02  0.77046221910E+01 -0.11799707988E+02  0.27815577162E+02  0.41800000000E+01 0.  1.
         -5    1    3    3    0  502 -0.54593734353E+02 -0.27293254565E+02  0.15081121401E+03  0.16274794084E+03  0.41800000000E+01 0.  1.
        -11    1    1    2    0    0  0.43600170749E+02 -0.15055229406E+02 -0.11696255704E+01  0.46141118818E+02  0.00000000000E+00 0. -1.
         11    1    1    2    0    0 -0.12620830759E+02  0.34643861780E+02  0.55042096278E+02  0.66250395401E+02  0.00000000000E+00 0.  1.
</event>
<event>
 7    1  0.3056346E-009  0.2398739E+03  0.7561462E-02  0.1119877E+00
          3   -1    0    0  501    0  0.00000000000E+00  0.00000000000E+00  0.46067067319E+03  0.46067067319E+03  0.00000000000E+00 0. -1.
         -3   -1    0    0    0  501 -0.00000000000E+00 -0.00000000000E+00 -0.13426112892E+03  0.13426112892E+03  0.00000000000E+00 0.  1.
         25    2    1    2    0    0 -0.22072118812E+03 -0.14170443586E+02  0.13435527544E+03  0.28743257757E+03  0.12508997663E+03 0.  0.
          5    1    3    3  502    0 -0.18071843231E+03 -0.60617471410E+02  0.11655842949E+03  0.22346581283E+03  0.41800000000E+01 0. -1.
         -5    1    3    3    0  502 -0.40002755814E+02  0.46447027824E+02  0.17796845945E+02  0.63966764745E+02  0.41800000000E+01 0. -1.
        -11    1    1    2    0    0  0.17302785302E+03 -0.11637448112E+02  0.18370959415E+03  0.25263270394E+03  0.00000000000E+00 0.  1.
         11    1    1    2    0    0  0.47693335103E+02  0.25807891698E+02  0.83446746859E+01  0.54866520600E+02  0.00000000000E+00 0. -1.
</event>
<event>
 7    1  0.3056346E-009  0.2245727E+03  0.7561462E-02  0.1130519E+00
          1   -1    0    0  501    0  0.00000000000E+00  0.00000000000E+00  0.83493975817E+03  0.83493975817E+03  0.00000000000E+00 0. -1.
         -1   -1    0    0    0  501 -0.00000000000E+00 -0.00000000000E+00 -0.69785714382E+02  0.69785714382E+02  0.00000000000E+00 0.  1.
         25    2    1    2    0    0  0.18420846640E+03 -0.88169933067E+02  0.27349653850E+03  0.36353200497E+03  0.12509382830E+03 0.  0.
          5    1    3    3  502    0  0.12222291700E+03  0.92745567983E+01  0.15952591197E+03  0.20122238403E+03  0.41800000000E+01 0.  1.
         -5    1    3    3    0  502  0.61985549394E+02 -0.97444489866E+02  0.11397062652E+03  0.16230962094E+03  0.41800000000E+01 0.  1.
        -11    1    1    2    0    0 -0.11884162030E+03  0.28008679778E+02  0.37617382451E+03  0.39549281043E+03  0.00000000000E+00 0. -1.
         11    1    1    2    0    0 -0.65366846100E+02  0.60161253290E+02  0.11548368078E+03  0.14570065715E+03  0.00000000000E+00 0.  1.
</event>
<event>
 7    1  0.3056346E-009  0.9734592E+02  0.7561462E-02  0.1285978E+00
         -2   -1    0    0    0  501 -0.00000000000E+00  0.00000000000E+00  0.49403220423E+02  0.49403220423E+02  0.00000000000E+00 0. -1.
          2   -1    0    0  501    0  0.00000000000E+00 -0.00000000000E+00 -0.28730413167E+03  0.28730413167E+03  0.00000000000E+00 0.  1.
         25    2    1    2    0    0  0.20230725543E+02  0.20148110456E+02 -0.87340573478E+02  0.15520068967E+03  0.12507457650E+03 0.  0.
          5    1    3    3  502    0  0.35712813885E+02 -0.26832411276E+02 -0.94914738639E+02  0.10498411014E+03  0.41800000000E+01 0.  1.
         -5    1    3    3    0  502 -0.15482088342E+02  0.46980521732E+02  0.75741651610E+01  0.50216579529E+02  0.41800000000E+01 0.  1.
        -11    1    1    2    0    0 -0.12053343417E+02 -0.59134354843E+02 -0.76776285645E+02  0.97656300604E+02  0.00000000000E+00 0. -1.
         11    1    1    2    0    0 -0.81773821265E+01  0.38986244387E+02 -0.73784052119E+02  0.83850361817E+02  0.00000000000E+00 0.  1.
</event>
<event>
 7    1  0.3056346E-009  0.9990452E+02  0.7561462E-02  0.1280497E+00
          1   -1    0    0  501    0  0.00000000000E+00  0.00000000000E+00  0.56465632139E+02  0.56465632139E+02  0.00000000000E+00 0. -1.
         -1   -1    0    0    0  501 -0.00000000000E+00 -0.00000000000E+00 -0.32155036234E+03  0.32155036234E+03  0.00000000000E+00 0.  1.
         25    2    1    2    0    0  0.51458091785E+02 -0.55857014894E+02 -0.10746374857E+03  0.18155919281E+03  0.12508933573E+03 0.  0.
          5    1    3    3  502    0  0.37209658269E+02  0.19463065684E+02 -0.94778007555E+02  0.10374831425E+03  0.41800000000E+01 0.  1.
         -5    1    3    3    0  502  0.14248433517E+02 -0.75320080579E+02 -0.12685741014E+02  0.77810878553E+02  0.41800000000E+01 0.  1.
        -11    1    1    2    0    0 -0.31849827746E+02  0.14349176794E+02 -0.28816664000E+01  0.35051596303E+02  0.00000000000E+00 0. -1.
         11    1    1    2    0    0 -0.19608264039E+02  0.41507838100E+02 -0.15473931523E+03  0.16140520537E+03  0.00000000000E+00 0.  1.
</event>
<event>
 7    1  0.3056346E-009  0.1336339E+03  0.7561462E-02  0.1222161E+00
          2   -1    0    0  501    0  0.00000000000E+00  0.00000000000E+00  0.72262895040E+03  0.72262895040E+03  0.00000000000E+00 0. -1.
         -2   -1    0    0    0  501 -0.00000000000E+00 -0.00000000000E+00 -0.33301136280E+02  0.33301136280E+02  0.00000000000E+00 0.  1.
         25    2    1    2    0    0 -0.29188554342E+02 -0.82659588792E+02  0.53541977398E+03  0.55678542112E+03  0.12510432239E+03 0.  0.
          5    1    3    3  502    0 -0.71255615097E+02 -0.58390232782E+02  0.23517545292E+03  0.25260987317E+03  0.41800000000E+01 0.  1.
         -5    1    3    3    0  502  0.42067060755E+02 -0.24269356009E+02  0.30024432107E+03  0.30417554796E+03  0.41800000000E+01 0.  1.
        -11    1    1    2    0    0  0.61308473248E+02  0.41234782928E+02  0.86700855588E+02  0.11391257426E+03  0.00000000000E+00 0.  1.
         11    1    1    2    0    0 -0.32119918907E+02  0.41424805864E+02  0.67207184545E+02  0.85232091291E+02  0.00000000000E+00 0. -1.
</event>
<event>
 7    1  0.3056346E-009  0.1213140E+03  0.7561462E-02  0.1240945E+00
          1   -1    0    0  501    0  0.00000000000E+00  0.00000000000E+00  0.25466777659E+03  0.25466777659E+03  0.00000000000E+00 0. -1.
         -1   -1    0    0    0  501 -0.00000000000E+00 -0.00000000000E+00 -0.36765839856E+03  0.36765839856E+03  0.00000000000E+00 0.  1.
         25    2    1    2    0    0 -0.45553950948E+02 -0.80963380463E+02 -0.33199170515E+03  0.36673605889E+03  0.12508642283E+03 0.  0.
          5    1    3    3  502    0  0.23709516587E+02 -0.52703032542E+02 -0.24577797483E+03  0.25251541760E+03  0.41800000000E+01 0. -1.
         -5    1    3    3    0  502 -0.69263467535E+02 -0.28260347921E+02 -0.86213730324E+02  0.11422064129E+03  0.41800000000E+01 0. -1.
        -11    1    1    2    0    0  0.48411801483E+01  0.66320313978E+02  0.55972419650E+02  0.86917966111E+02  0.00000000000E+00 0.  1.
         11    1    1    2    0    0  0.40712770800E+02  0.14643066485E+02  0.16302866353E+03  0.16867215015E+03  0.00000000000E+00 0. -1.
</event>
<event>
 7    1  0.3056346E-009  0.1076177E+03  0.7561462E-02  0.1265046E+00
          2   -1    0    0  501    0  0.00000000000E+00  0.00000000000E+00  0.11892153178E+03  0.11892153178E+03  0.00000000000E+00 0. -1.
         -2   -1    0    0    0  501 -0.00000000000E+00 -0.00000000000E+00 -0.12207302026E+03  0.12207302026E+03  0.00000000000E+00 0.  1.
         25    2    1    2    0    0 -0.20409059937E+02 -0.19846612578E+02 -0.44675739434E+02  0.13585115672E+03  0.12509675188E+03 0.  0.
          5    1    3    3  502    0 -0.62695809388E+02 -0.38320096279E+02 -0.50346254669E+02  0.89170690548E+02  0.41800000000E+01 0. -1.
         -5    1    3    3    0  502  0.42286749451E+02  0.18473483701E+02  0.56705152356E+01  0.46680466174E+02  0.41800000000E+01 0. -1.
        -11    1    1    2    0    0 -0.35671759527E+02  0.15983588577E+02  0.25570138235E+02  0.46709544002E+02  0.00000000000E+00 0. -1.
         11    1    1    2    0    0  0.56080819464E+02  0.38630240002E+01  0.15954112716E+02  0.58433851308E+02  0.00000000000E+00 0.  1.
</event>
<event>
 7    1  0.3056346E-009  0.1128332E+03  0.7561462E-02  0.1255411E+00
         -1   -1    0    0    0  501 -0.00000000000E+00  0.00000000000E+00  0.85332062507E+02  0.85332062507E+02  0.00000000000E+00 0.  1.
          1   -1    0    0  501    0  0.00000000000E+00 -0.00000000000E+00 -0.17934391697E+03  0.17934391697E+03  0.00000000000E+00 0. -1.
         25    2    1    2    0    0  0.74636314898E+01 -0.51371620949E+02 -0.25269112579E+02  0.13778777106E+03  0.12510872299E+03 0.  0.
          5    1    3    3  502    0  0.42567208729E+02 -0.68291503732E+02  0.14587506028E+02  0.81889953431E+02  0.41800000000E+01 0.  1.
         -5    1    3    3    0  502 -0.35103577239E+02  0.16919882782E+02 -0.39856618607E+02  0.55897817624E+02  0.41800000000E+01 0.  1.
        -11    1    1    2    0    0 -0.48883647644E+02  0.39381762670E+02 -0.48089713290E+02  0.79076891456E+02  0.00000000000E+00 0.  1.
         11    1    1    2    0    0  0.41420016154E+02  0.11989858279E+02 -0.20653028592E+02  0.47811316964E+02  0.00000000000E+00 0. -1.
</event>
<event>
 7    1  0.3056346E-009  0.4597222E+02  0.7561462E-02  0.1468362E+00
         -1   -1    0    0    0  501 -0.00000000000E+00  0.00000000000E+00  0.94633715662E+02  0.94633715662E+02  0.00000000000E+00 0.  1.
          1   -1    0    0  501    0  0.00000000000E+00 -0.00000000000E+00 -0.13411031966E+03  0.13411031966E+03  0.00000000000E+00 0. -1.
         25    2    1    2    0    0  0.15133194440E+02  0.17663170639E+01 -0.42280496961E+02  0.13291705201E+03  0.12508864393E+03 0.  0.
          5    1    3    3  502    0  0.34759164542E+02 -0.58611098005E+01 -0.81116301449E+02  0.88543090575E+02  0.41800000000E+01 0. -1.
         -5    1    3    3    0  502 -0.19625970102E+02  0.76274268644E+01  0.38835804489E+02  0.44373961434E+02  0.41800000000E+01 0. -1.
        -11    1    1    2    0    0 -0.24734584718E+02  0.16501532619E+01  0.45563033013E+02  0.51870151960E+02  0.00000000000E+00 0.  1.
         11    1    1    2    0    0  0.96013902778E+01 -0.34164703258E+01 -0.42759140050E+02  0.43956831353E+02  0.00000000000E+00 0. -1.
</event>
<event>
 7    1  0.3193318E-009  0.2005116E+03  0.7561462E-02  0.1149308E+00
          1   -1    0    0  501    0  0.00000000000E+00  0.00000000000E+00  0.37842427927E+03  0.37842427927E+03  0.00000000000E+00 0. -1.
         -1   -1    0    0    0  501 -0.00000000000E+00 -0.00000000000E+00 -0.11846488815E+03  0.11846488815E+03  0.00000000000E+00 0.  1.
         25    2    1    2    0    0  0.16393548679E+03 -0.63695001934E+02  0.82945925579E+02  0.23121083805E+03  0.12508608219E+03 0.  0.
          5    1    3    3  502    0  0.17330928928E+03 -0.28001443743E+02  0.82615391842E+02  0.19406948748E+03  0.41800000000E+01 0.  1.
         -5    1    3    3    0  502 -0.93738024848E+01 -0.35693558190E+02  0.33053373721E+00  0.37141350566E+02  0.41800000000E+01 0.  1.
        -11    1    1    2    0    0 -0.64797020667E+02 -0.88937741627E+01  0.10368093207E+03  0.12258665825E+03  0.00000000000E+00 0. -1.
         11    1    1    2    0    0 -0.99138466125E+02  0.72588776096E+02  0.73332533476E+02  0.14309167113E+03  0.00000000000E+00 0.  1.
</event>
<event>
 7    1  0.3056346E-009  0.8188749E+02  0.7561462E-02  0.1323779E+00
         -1   -1    0    0    0  501 -0.00000000000E+00  0.00000000000E+00  0.14675216521E+03  0.14675216521E+03  0.00000000000E+00 0.  1.
          1   -1    0    0  501    0  0.00000000000E+00 -0.00000000000E+00 -0.13518149897E+03  0.13518149897E+03  0.00000000000E+00 0. -1.
         25    2    1    2    0    0 -0.95480517874E+01  0.51218072305E+01  0.94812130211E+02  0.15733448451E+03  0.12508957502E+03 0.  0.
          5    1    3    3  502    0  0.30779621169E+02  0.37608245488E+02  0.93390712221E+02  0.10536158094E+03  0.41800000000E+01 0.  1.
         -5    1    3    3    0  502 -0.40327672957E+02 -0.32486438258E+02  0.14214179897E+01  0.51972903574E+02  0.41800000000E+01 0.  1.
        -11    1    1    2    0    0 -0.16443997454E+02  0.20679392807E+02 -0.83908231584E+02  0.87969504186E+02  0.00000000000E+00 0. -1.
         11    1    1    2    0    0  0.25992049241E+02 -0.25801200037E+02  0.66676760816E+00  0.36629675485E+02  0.00000000000E+00 0.  1.
</event>
<event>
 7    1  0.3056346E-009  0.9707885E+02  0.7561462E-02  0.1286561E+00
          3   -1    0    0  501    0  0.00000000000E+00  0.00000000000E+00  0.27742274101E+03  0.27742274101E+03  0.00000000000E+00 0. -1.
         -3   -1    0    0    0  501 -0.00000000000E+00 -0.00000000000E+00 -0.63894328027E+02  0.63894328027E+02  0.00000000000E+00 0.  1.
         25    2    1    2    0    0  0.43827811121E+02  0.61803000646E+02  0.13003653493E+03  0.19569755787E+03  0.12509015078E+03 0.  0.
          5    1    3    3  502    0  0.42891345142E+02  0.84150266916E+02  0.39701383515E+02  0.10254075855E+03  0.41800000000E+01 0.  1.
         -5    1    3    3    0  502  0.93646597839E+00 -0.22347266270E+02  0.90335151416E+02  0.93156799320E+02  0.41800000000E+01 0.  1.
        -11    1    1    2    0    0 -0.15307473943E+02 -0.32736422173E+02  0.96359216041E+02  0.10291302450E+03  0.00000000000E+00 0. -1.
         11    1    1    2    0    0 -0.28520337178E+02 -0.29066578473E+02 -0.12867337991E+02  0.42706486671E+02  0.00000000000E+00 0.  1.
</event>
<event>
 7    1  0.3056346E-009  0.1806024E+03  0.7561462E-02  0.1167221E+00
          1   -1    0    0  501    0  0.00000000000E+00  0.00000000000E+00  0.18952193405E+04  0.18952193405E+04  0.00000000000E+00 0. -1.
         -1   -1    0    0    0  501 -0.00000000000E+00 -0.00000000000E+00 -0.23180226355E+02  0.23180226355E+02  0.00000000000E+00 0.  1.
         25    2    1    2    0    0 -0.62918398252E+02 -0.15655728868E+03  0.12439461816E+04  0.12615541793E+04  0.12509170735E+03 0.  0.
          5    1    3    3  502    0  0.26603730102E+01 -0.51173698101E+02  0.76642249546E+03  0.76814499862E+03  0.41800000000E+01 0.  1.
         -5    1    3    3    0  502 -0.65578771262E+02 -0.10538359058E+03  0.47752368611E+03  0.49340918070E+03  0.41800000000E+01 0.  1.
        -11    1    1    2    0    0  0.42266488896E+02  0.18725004289E+02  0.24180123234E+03  0.24618066096E+03  0.00000000000E+00 0. -1.
         11    1    1    2    0    0  0.20651909356E+02  0.13783228439E+03  0.38629170026E+03  0.41066472660E+03  0.00000000000E+00 0.  1.
</event>
<event>
 7    1  0.3056346E-009  0.1075395E+03  0.7561462E-02  0.1265195E+00
          1   -1    0    0  501    0  0.00000000000E+00  0.00000000000E+00  0.11655871484E+03  0.11655871484E+03  0.00000000000E+00 0. -1.
         -1   -1    0    0    0  501 -0.00000000000E+00 -0.00000000000E+00 -0.12999731408E+03  0.12999731408E+03  0.00000000000E+00 0.  1.
         25    2    1    2    0    0  0.25906226768E+02  0.35407849616E+02 -0.42690239815E+02  0.13926506025E+03  0.12508977588E+03 0.  0.
          5    1    3    3  502    0 -0.36656442317E+02 -0.15884348706E+02  0.11524235327E+02  0.41788607264E+02  0.41800000000E+01 0.  1.
         -5    1    3    3    0  502  0.62562669085E+02  0.51292198322E+02 -0.54214475141E+02  0.97476452985E+02  0.41800000000E+01 0.  1.
        -11    1    1    2    0    0  0.30101074509E+02 -0.61878546071E+01 -0.10707295848E+02  0.32542440222E+02  0.00000000000E+00 0.  1.
         11    1    1    2    0    0 -0.56007301277E+02 -0.29219995009E+02  0.39958936427E+02  0.74748528447E+02  0.00000000000E+00 0. -1.
</event>
<event>
 7    1  0.3056346E-009  0.1058871E+03  0.7561462E-02  0.1268382E+00
         -2   -1    0    0    0  501 -0.00000000000E+00  0.00000000000E+00  0.69445279879E+02  0.69445279879E+02  0.00000000000E+00 0. -1.
          2   -1    0    0  501    0  0.00000000000E+00 -0.00000000000E+00 -0.27406492780E+03  0.27406492780E+03  0.00000000000E+00 0.  1.
         25    2    1    2    0    0  0.50353251333E+02  0.43689975248E+02 -0.54592638510E+02  0.15189572527E+03  0.12509073235E+03 0.  0.
          5    1    3    3  502    0  0.92386836008E+02  0.27172492038E+02 -0.37102044736E+02  0.10328458701E+03  0.41800000000E+01 0.  1.
         -5    1    3    3    0  502 -0.42033584675E+02  0.16517483209E+02 -0.17490593774E+02  0.48611138258E+02  0.41800000000E+01 0.  1.
        -11    1    1    2    0    0 -0.40682595406E+02 -0.21931833859E+02 -0.15944551315E+03  0.16600888702E+03  0.00000000000E+00 0.  1.
         11    1    1    2    0    0 -0.96706559271E+01 -0.21758141389E+02  0.94185037354E+01  0.25605595392E+02  0.00000000000E+00 0. -1.
</event>
<event>
 7    1  0.3056346E-009  0.1165997E+03  0.7561462E-02  0.1248814E+00
         -2   -1    0    0    0  501 -0.00000000000E+00  0.00000000000E+00  0.37320440788E+03  0.37320440788E+03  0.00000000000E+00 0.  1.
          2   -1    0    0  501    0  0.00000000000E+00 -0.00000000000E+00 -0.57503952964E+02  0.57503952964E+02  0.00000000000E+00 0. -1.
         25    2    1    2    0    0  0.85796188562E+02 -0.14803998947E+02  0.23604460096E+03  0.28097210031E+03  0.12509245842E+03 0.  0.
          5    1    3    3  502    0 -0.14877024646E+02 -0.34627206557E+02  0.12080526292E+03  0.12661655992E+03  0.41800000000E+01 0.  1.
         -5    1    3    3    0  502  0.10067321321E+03  0.19823207610E+02  0.11523933804E+03  0.15435554039E+03  0.41800000000E+01 0.  1.
        -11    1    1    2    0    0 -0.39956628754E+02 -0.89700666899E+01  0.88342862170E+02  0.97372766081E+02  0.00000000000E+00 0.  1.
         11    1    1    2    0    0 -0.45839559808E+02  0.23774065637E+02 -0.86870082095E+01  0.52363494459E+02  0.00000000000E+00 0. -1.
</event>
<event>
 7    1  0.3056346E-009  0.1317931E+03  0.7561462E-02  0.1224819E+00
         -1   -1    0    0    0  501 -0.00000000000E+00  0.00000000000E+00  0.47108623287E+02  0.47108623287E+02  0.00000000000E+00 0.  1.
          1   -1    0    0  501    0  0.00000000000E+00 -0.00000000000E+00 -0.49261933842E+03  0.49261933842E+03  0.00000000000E+00 0. -1.
         25    2    1    2    0    0 -0.46398233233E+02 -0.94965870881E+02 -0.22754243369E+03  0.28035141393E+03  0.12510013383E+03 0.  0.
          5    1    3    3  502    0  0.15617782172E+02 -0.74822912399E+02 -0.50680662455E+02  0.91806237734E+02  0.41800000000E+01 0.  1.
         -5    1    3    3    0  502 -0.62016015404E+02 -0.20142958481E+02 -0.17686177123E+03  0.18854517620E+03  0.41800000000E+01 0.  1.
        -11    1    1    2    0    0  0.61241834925E+02  0.75378934796E+02 -0.21328726123E+03  0.23435870362E+03  0.00000000000E+00 0. -1.
         11    1    1    2    0    0 -0.14843601693E+02  0.19586936085E+02 -0.46810202131E+01  0.25017844165E+02  0.00000000000E+00 0.  1.
</event>
<event>
 7    1  0.3056346E-009  0.1197806E+03  0.7561462E-02  0.1243459E+00
         -4   -1    0    0    0  501 -0.00000000000E+00  0.00000000000E+00  0.16070530948E+03  0.16070530948E+03  0.00000000000E+00 0.  1.
          4   -1    0    0  501    0  0.00000000000E+00 -0.00000000000E+00 -0.16880618297E+03  0.16880618297E+03  0.00000000000E+00 0. -1.
         25    2    1    2    0    0 -0.43215354134E+02  0.38963020081E+02 -0.11341132608E+03  0.17859170032E+03  0.12508869962E+03 0.  0.
          5    1    3    3  502    0  0.34276445860E+02  0.42854143193E+02 -0.23734593395E+02  0.59934594795E+02  0.41800000000E+01 0.  1.
         -5    1    3    3    0  502 -0.77491799994E+02 -0.38911231116E+01 -0.89676732687E+02  0.11865710552E+03  0.41800000000E+01 0.  1.
        -11    1    1    2    0    0  0.67536179382E+00  0.27719823759E+02  0.38116326588E+02  0.47134903154E+02  0.00000000000E+00 0.  1.
         11    1    1    2    0    0  0.42539992340E+02 -0.66682843841E+02  0.67194126007E+02  0.10378488898E+03  0.00000000000E+00 0. -1.
</event>
<event>
 7    1  0.3056346E-009  0.1528841E+03  0.7561462E-02  0.1196973E+00
          2   -1    0    0  501    0  0.00000000000E+00  0.00000000000E+00  0.20954221880E+03  0.20954221880E+03  0.00000000000E+00 0.  1.
         -2   -1    0    0    0  501 -0.00000000000E+00 -0.00000000000E+00 -0.15071895609E+03  0.15071895609E+03  0.00000000000E+00 0. -1.
         25    2    1    2    0    0 -0.78319340012E+02 -0.95098432864E+02 -0.33934502482E+02  0.17882006864E+03  0.12508970996E+03 0.  0.
          5    1    3    3  502    0  0.20080147214E+02  0.16542397938E+02 -0.91680124311E+01  0.27899607410E+02  0.41800000000E+01 0.  1.
         -5    1    3    3    0  502 -0.98399487226E+02 -0.11164083080E+03 -0.24766490051E+02  0.15092046123E+03  0.41800000000E+01 0.  1.
        -11    1    1    2    0    0  0.47605823787E+02  0.24471432004E+02 -0.85255574986E+01  0.54201942525E+02  0.00000000000E+00 0. -1.
         11    1    1    2    0    0  0.30713516225E+02  0.70627000860E+02  0.10128332269E+03  0.12723916372E+03  0.00000000000E+00 0.  1.
</event>
<event>
 7    1  0.3056346E-009  0.1499917E+03  0.7561462E-02  0.1200483E+00
          1   -1    0    0  501    0  0.00000000000E+00  0.00000000000E+00  0.29692870111E+03  0.29692870111E+03  0.00000000000E+00 0. -1.
         -1   -1    0    0    0  501 -0.00000000000E+00 -0.00000000000E+00 -0.83995769697E+02  0.83995769697E+02  0.00000000000E+00 0.  1.
         25    2    1    2    0    0  0.67203084652E+02  0.86808421761E+02  0.15281707727E+03  0.22595033517E+03  0.12509411731E+03 0.  0.
          5    1    3    3  502    0  0.81327745488E+02  0.10753345041E+03  0.14767790735E+03  0.20000970442E+03  0.41800000000E+01 0.  1.
         -5    1    3    3    0  502 -0.14124660837E+02 -0.20725028649E+02  0.51391699118E+01  0.25940630749E+02  0.41800000000E+01 0.  1.
        -11    1    1    2    0    0 -0.83517669816E+02 -0.45176680862E+02  0.55595882482E+02  0.11003197633E+03  0.00000000000E+00 0.  1.
         11    1    1    2    0    0  0.16314585164E+02 -0.41631740899E+02  0.45199716635E+01  0.44942159307E+02  0.00000000000E+00 0. -1.
</event>
<event>
 7    1  0.3056346E-009  0.9643089E+02  0.7561462E-02  0.1287986E+00
          3   -1    0    0  501    0  0.00000000000E+00  0.00000000000E+00  0.64758806186E+02  0.64758806186E+02  0.00000000000E+00 0. -1.
         -3   -1    0    0    0  501 -0.00000000000E+00 -0.00000000000E+00 -0.24580967994E+03  0.24580967994E+03  0.00000000000E+00 0.  1.
         25    2    1    2    0    0 -0.43707944045E+02 -0.23734688987E+02 -0.15269010163E+03  0.20355806120E+03  0.12509155570E+03 0.  0.
          5    1    3    3  502    0 -0.63671513669E+02  0.98210516205E+01 -0.23780929380E+02  0.68800579285E+02  0.41800000000E+01 0.  1.
         -5    1    3    3    0  502  0.19963569623E+02 -0.33555740608E+02 -0.12890917225E+03  0.13475748191E+03  0.41800000000E+01 0.  1.
        -11    1    1    2    0    0  0.51667055231E+02  0.43617780771E+02  0.45225630181E+01  0.67767610050E+02  0.00000000000E+00 0. -1.
         11    1    1    2    0    0 -0.79591111856E+01 -0.19883091784E+02 -0.32883335135E+02  0.39242814875E+02  0.00000000000E+00 0.  1.
</event>
<event>
 7    1  0.3056346E-009  0.9647378E+02  0.7561462E-02  0.1287891E+00
         -4   -1    0    0    0  501 -0.00000000000E+00  0.00000000000E+00  0.56247062605E+02  0.56247062605E+02  0.00000000000E+00 0.  1.
          4   -1    0    0  501    0  0.00000000000E+00 -0.00000000000E+00 -0.27112271312E+03  0.27112271312E+03  0.00000000000E+00 0. -1.
         25    2    1    2    0    0 -0.38746127696E+02  0.76298170430E+01 -0.17703558283E+03  0.22033531972E+03  0.12508628625E+03 0.  0.
          5    1    3    3  502    0 -0.14203982321E+02 -0.57950555156E+02 -0.96508814566E+02  0.11354049342E+03  0.41800000000E+01 0. -1.
         -5    1    3    3    0  502 -0.24542145375E+02  0.65580372199E+02 -0.80526768266E+02  0.10679482630E+03  0.41800000000E+01 0. -1.
        -11    1    1    2    0    0  0.35779029160E+02 -0.26096517077E+02 -0.62180057202E+02  0.76338238418E+02  0.00000000000E+00 0. -1.
         11    1    1    2    0    0  0.29670985358E+01  0.18466700034E+02  0.24339989524E+02  0.30696217583E+02  0.00000000000E+00 0.  1.
</event>
<event>
 7    1  0.3056346E-009  0.8453256E+02  0.7561462E-02  0.1316659E+00
          1   -1    0    0  501    0  0.00000000000E+00  0.00000000000E+00  0.50216021836E+03  0.50216021836E+03  0.00000000000E+00 0. -1.
         -1   -1    0    0    0  501 -0.00000000000E+00 -0.00000000000E+00 -0.30210367046E+02  0.30210367046E+02  0.00000000000E+00 0.  1.
         25    2    1    2    0    0  0.40762442511E+02  0.41892004005E+02  0.26659037642E+03  0.30022426001E+03  0.12509061028E+03 0.  0.
          5    1    3    3  502    0  0.43301336769E+02 -0.45554092095E+00  0.16503366576E+02  0.46530063313E+02  0.41800000000E+01 0.  1.
         -5    1    3    3    0  502 -0.25388942584E+01  0.42347544926E+02  0.25008700984E+03  0.25369419669E+03  0.41800000000E+01 0.  1.
        -11    1    1    2    0    0 -0.54797810850E+02 -0.41758020698E+02  0.20685920980E+03  0.21803042229E+03  0.00000000000E+00 0. -1.
         11    1    1    2    0    0  0.14035368339E+02 -0.13398330673E+00 -0.14997348939E+01  0.14115903113E+02  0.00000000000E+00 0.  1.
</event>
<event>
 7    1  0.3056346E-009  0.1191279E+03  0.7561462E-02  0.1244543E+00
          1   -1    0    0  501    0  0.00000000000E+00  0.00000000000E+00  0.90712431977E+03  0.90712431977E+03  0.00000000000E+00 0. -1.
         -1   -1    0    0    0  501 -0.00000000000E+00 -0.00000000000E+00 -0.16028809257E+02  0.16028809257E+02  0.00000000000E+00 0.  1.
         25    2    1    2    0    0  0.51470167152E+02 -0.18303309902E+02  0.51813133660E+03  0.53580927998E+03  0.12508922133E+03 0.  0.
          5    1    3    3  502    0 -0.23092840316E+02  0.36579655958E+02  0.18399536057E+03  0.18905849786E+03  0.41800000000E+01 0.  1.
         -5    1    3    3    0  502  0.74563007468E+02 -0.54882965860E+02  0.33413597603E+03  0.34675078212E+03  0.41800000000E+01 0.  1.
        -11    1    1    2    0    0  0.24440217136E+02  0.65441626521E+01  0.60528856278E+02  0.65604060247E+02  0.00000000000E+00 0.  1.
         11    1    1    2    0    0 -0.75910384289E+02  0.11759147249E+02  0.31243531764E+03  0.32173978880E+03  0.00000000000E+00 0. -1.
</event>
<event>
 7    1  0.3056346E-009  0.2857299E+03  0.7561462E-02  0.1092600E+00
          2   -1    0    0  501    0  0.00000000000E+00  0.00000000000E+00  0.20345946496E+04  0.20345946496E+04  0.00000000000E+00 0. -1.
         -2   -1    0    0    0  501 -0.00000000000E+00 -0.00000000000E+00 -0.57540016325E+02  0.57540016325E+02  0.00000000000E+00 0.  1.
         25    2    1    2    0    0 -0.23641225808E+03  0.12332816455E+03  0.15678919161E+04  0.15953162652E+04  0.12509330006E+03 0.  0.
          5    1    3    3  502    0 -0.22121162795E+03  0.66136294993E+02  0.11238966003E+04  0.11473751062E+04  0.41800000000E+01 0.  1.
         -5    1    3    3    0  502 -0.15200630129E+02  0.57191869553E+02  0.44399531577E+03  0.44794115899E+03  0.41800000000E+01 0.  1.
        -11    1    1    2    0    0  0.22007528512E+03 -0.78762417715E+02  0.35163399356E+03  0.42223585233E+03  0.00000000000E+00 0.  1.
         11    1    1    2    0    0  0.16336972963E+02 -0.44565746831E+02  0.57528723678E+02  0.74582548389E+02  0.00000000000E+00 0. -1.
</event>
<event>
 7    1  0.3056346E-009  0.1027062E+03  0.7561462E-02  0.1274706E+00
          2   -1    0    0  501    0  0.00000000000E+00  0.00000000000E+00  0.81472411057E+03  0.81472411057E+03  0.00000000000E+00 0. -1.
         -2   -1    0    0    0  501 -0.00000000000E+00 -0.00000000000E+00 -0.21409681153E+02  0.21409681153E+02  0.00000000000E+00 0.  1.
         25    2    1    2    0    0 -0.10396071650E+02  0.55484098159E+02  0.61801017753E+03  0.63306449782E+03  0.12509002927E+03 0.  0.
          5    1    3    3  502    0  0.32284215209E+02 -0.16740011442E+01  0.44060085169E+03  0.44180499741E+03  0.41800000000E+01 0. -1.
         -5    1    3    3    0  502 -0.42680286860E+02  0.57158099303E+02  0.17740932584E+03  0.19125950041E+03  0.41800000000E+01 0. -1.
        -11    1    1    2    0    0  0.14462439406E+01  0.22658734438E+02  0.52980135517E+02  0.57640303844E+02  0.00000000000E+00 0. -1.
         11    1    1    2    0    0  0.89498277098E+01 -0.78142832597E+02  0.12232411637E+03  0.14542899006E+03  0.00000000000E+00 0.  1.
</event>
<event>
 7    1  0.3056346E-009  0.3147055E+03  0.7561462E-02  0.1078112E+00
          2   -1    0    0  501    0  0.00000000000E+00  0.00000000000E+00  0.46505081253E+03  0.46505081253E+03  0.00000000000E+00 0. -1.
         -2   -1    0    0    0  501 -0.00000000000E+00 -0.00000000000E+00 -0.22953424230E+03  0.22953424230E+03  0.00000000000E+00 0.  1.
         25    2    1    2    0    0 -0.29649263203E+03 -0.25729152199E+02  0.20492851474E+03  0.38237705314E+03  0.12508654803E+03 0.  0.
          5    1    3    3  502    0 -0.25966131688E+03 -0.64838642400E+02  0.18276633587E+03  0.32411271953E+03  0.41800000000E+01 0.  1.
         -5    1    3    3    0  502 -0.36831315145E+02  0.39109490202E+02  0.22162178865E+02  0.58264333612E+02  0.41800000000E+01 0.  1.
        -11    1    1    2    0    0  0.11654228804E+03 -0.28383723546E+02 -0.85926867721E+01  0.12025628853E+03  0.00000000000E+00 0.  1.
         11    1    1    2    0    0  0.17995034398E+03  0.54112875745E+02  0.39180742257E+02  0.19195171316E+03  0.00000000000E+00 0. -1.
</event>
<event>
 7    1  0.3056346E-009  0.1083395E+03  0.7561462E-02  0.1263676E+00
          1   -1    0    0  501    0  0.00000000000E+00  0.00000000000E+00  0.15663951613E+04  0.15663951613E+04  0.00000000000E+00 0. -1.
         -1   -1    0    0    0  501 -0.00000000000E+00 -0.00000000000E+00 -0.83533433997E+01  0.83533433997E+01  0.00000000000E+00 0.  1.
         25    2    1    2    0    0 -0.87903265647E+01 -0.11186967425E+02  0.10806390238E+04  0.10879446886E+04  0.12506209573E+03 0.  0.
          5    1    3    3  502    0 -0.39211125094E+01  0.55087128146E+02  0.35990002377E+03  0.36413660393E+03  0.41800000000E+01 0. -1.
         -5    1    3    3    0  502 -0.48692140553E+01 -0.66274095571E+02  0.72073900000E+03  0.72380808472E+03  0.41800000000E+01 0. -1.
        -11    1    1    2    0    0  0.40873736029E+02 -0.23753307247E+02  0.21345263054E+03  0.21862503834E+03  0.00000000000E+00 0.  1.
         11    1    1    2    0    0 -0.32083409464E+02  0.34940274672E+02  0.26395016356E+03  0.26817877768E+03  0.00000000000E+00 0. -1.
</event>
<event>
 7    1  0.3056346E-009  0.1192586E+03  0.7561462E-02  0.1244325E+00
         -2   -1    0    0    0  501 -0.00000000000E+00  0.00000000000E+00  0.18721917806E+03  0.18721917806E+03  0.00000000000E+00 0.  1.
          2   -1    0    0  501    0  0.00000000000E+00 -0.00000000000E+00 -0.10937317221E+03  0.10937317221E+03  0.00000000000E+00 0. -1.
         25    2    1    2    0    0 -0.58803611127E+02  0.49076032564E+02  0.10174517548E+03  0.17850093919E+03  0.12507670808E+03 0.  0.
          5    1    3    3  502    0 -0.22344161189E+02  0.89286091642E+02  0.66980268635E+02  0.11390828103E+03  0.41800000000E+01 0.  1.
         -5    1    3    3    0  502 -0.36459449938E+02 -0.40210059078E+02  0.34764906849E+02  0.64592658166E+02  0.41800000000E+01 0.  1.
        -11    1    1    2    0    0  0.49187024669E+02 -0.80940079374E+01  0.23148092297E+02  0.54960991051E+02  0.00000000000E+00 0.  1.
         11    1    1    2    0    0  0.96165864576E+01 -0.40982024626E+02 -0.47047261927E+02  0.63130420024E+02  0.00000000000E+00 0. -1.
</event>
<event>
 7    1  0.3056346E-009  0.1385326E+03  0.7561462E-02  0.1215317E+00
          2   -1    0    0  501    0  0.00000000000E+00  0.00000000000E+00  0.56228997829E+02  0.56228997829E+02  0.00000000000E+00 0. -1.
         -2   -1    0    0    0  501 -0.00000000000E+00 -0.00000000000E+00 -0.41326033243E+03  0.41326033243E+03  0.00000000000E+00 0.  1.
         25    2    1    2    0    0  0.24119878993E+02 -0.92885033432E+02 -0.12029055312E+03  0.19830928185E+03  0.12508939243E+03 0.  0.
          5    1    3    3  502    0 -0.47247436382E+02 -0.19001023904E+02 -0.61209924874E+02  0.79733847625E+02  0.41800000000E+01 0.  1.
         -5    1    3    3    0  502  0.71367315375E+02 -0.73884009528E+02 -0.59080628250E+02  0.11857543423E+03  0.41800000000E+01 0.  1.
        -11    1    1    2    0    0 -0.38625850316E+02  0.11227705699E+02 -0.12954754047E+03  0.13564874835E+03  0.00000000000E+00 0.  1.
         11    1    1    2    0    0  0.14505971323E+02  0.81657327733E+02 -0.10719324101E+03  0.13553130005E+03  0.00000000000E+00 0. -1.
</event>
<event>
 7    1  0.3056346E-009  0.1317593E+03  0.7561462E-02  0.1224868E+00
          3   -1    0    0  501    0  0.00000000000E+00  0.00000000000E+00  0.14955240081E+03  0.14955240081E+03  0.00000000000E+00 0. -1.
         -3   -1    0    0    0  501 -0.00000000000E+00 -0.00000000000E+00 -0.15945053916E+03  0.15945053916E+03  0.00000000000E+00 0.  1.
         25    2    1    2    0    0 -0.59310776947E+02  0.71144185169E+02 -0.64048043848E+02  0.16831040871E+03  0.12508788276E+03 0.  0.
          5    1    3    3  502    0 -0.95039031172E+02  0.53785211005E+02 -0.24280755606E+02  0.11194772826E+03  0.41800000000E+01 0. -1.
         -5    1    3    3    0  502  0.35728254224E+02  0.17358974163E+02 -0.39767288243E+02  0.56362680455E+02  0.41800000000E+01 0. -1.
        -11    1    1    2    0    0  0.19951383677E+02  0.11305514524E+02 -0.13860731921E+02  0.26795377562E+02  0.00000000000E+00 0.  1.
         11    1    1    2    0    0  0.39359393270E+02 -0.82449699693E+02  0.68010637413E+02  0.11389715369E+03  0.00000000000E+00 0. -1.
</event>
<event>
 7    1  0.3056346E-009  0.8821463E+02  0.7561462E-02  0.1307234E+00
         -1   -1    0    0    0  501 -0.00000000000E+00  0.00000000000E+00  0.57510518645E+03  0.57510518645E+03  0.00000000000E+00 0.  1.
          1   -1    0    0  501    0  0.00000000000E+00 -0.00000000000E+00 -0.27936003698E+02  0.27936003698E+02  0.00000000000E+00 0. -1.
         25    2    1    2    0    0 -0.50595420983E+01  0.14115054879E+02  0.45081341855E+03  0.46808698577E+03  0.12509138324E+03 0.  0.
          5    1    3    3  502    0  0.20326677883E+01  0.63297974959E+02  0.14567610478E+03  0.15890174725E+03  0.41800000000E+01 0.  1.
         -5    1    3    3    0  502 -0.70922098867E+01 -0.49182920080E+02  0.30513731376E+03  0.30918523852E+03  0.41800000000E+01 0.  1.
        -11    1    1    2    0    0  0.10509516786E+02  0.23154413392E+02  0.93818133757E+02  0.97202978474E+02  0.00000000000E+00 0.  1.
         11    1    1    2    0    0 -0.54499746875E+01 -0.37269468271E+02  0.25376304478E+01  0.37751225909E+02  0.00000000000E+00 0. -1.
</event>
<event>
 7    1  0.3056346E-009  0.1004015E+03  0.7561462E-02  0.1279454E+00
         -1   -1    0    0    0  501 -0.00000000000E+00  0.00000000000E+00  0.65801660555E+03  0.65801660555E+03  0.00000000000E+00 0.  1.
          1   -1    0    0  501    0  0.00000000000E+00 -0.00000000000E+00 -0.33852266861E+02  0.33852266861E+02  0.00000000000E+00 0. -1.
         25    2    1    2    0    0 -0.17351118583E+02 -0.47525595707E+02  0.55023279438E+03  0.56653716616E+03  0.12509392101E+03 0.  0.
          5    1    3    3  502    0 -0.54642321291E+02  0.22639639749E+01  0.40202887860E+03  0.40575312746E+03  0.41800000000E+01 0. -1.
         -5    1    3    3    0  502  0.37291202708E+02 -0.49789559682E+02  0.14820391577E+03  0.16078403871E+03  0.41800000000E+01 0. -1.
        -11    1    1    2    0    0 -0.10207812179E+02 -0.13337712954E+02 -0.88238362756E+01  0.18972456428E+02  0.00000000000E+00 0. -1.
         11    1    1    2    0    0  0.27558930762E+02  0.60863308660E+02  0.82755380591E+02  0.10635924982E+03  0.00000000000E+00 0.  1.
</event>
<event>
 7    1  0.3056346E-009  0.1245598E+03  0.7561462E-02  0.1235759E+00
         -1   -1    0    0    0  501 -0.00000000000E+00  0.00000000000E+00  0.65030737013E+03  0.65030737013E+03  0.00000000000E+00 0.  1.
          1   -1    0    0  501    0  0.00000000000E+00 -0.00000000000E+00 -0.33388302024E+02  0.33388302024E+02  0.00000000000E+00 0. -1.
         25    2    1    2    0    0 -0.31000853755E+02  0.78477156429E+02  0.21073663242E+03  0.25918395779E+03  0.12508668480E+03 0.  0.
          5    1    3    3  502    0  0.15242200306E+02  0.91939540902E+02  0.92173469270E+02  0.13114352706E+03  0.41800000000E+01 0.  1.
         -5    1    3    3    0  502 -0.46243054061E+02 -0.13462384473E+02  0.11856316315E+03  0.12804043073E+03  0.41800000000E+01 0.  1.
        -11    1    1    2    0    0 -0.14470788179E+02 -0.53880355479E+02  0.31314254002E+03  0.31807349275E+03  0.00000000000E+00 0.  1.
         11    1    1    2    0    0  0.45471641934E+02 -0.24596800949E+02  0.93039895660E+02  0.10643822162E+03  0.00000000000E+00 0. -1.
</event>
<event>
 7    1  0.3056346E-009  0.1053084E+03  0.7561462E-02  0.1269513E+00
         -3   -1    0    0    0  501 -0.00000000000E+00  0.00000000000E+00  0.51426894850E+03  0.51426894850E+03  0.00000000000E+00 0.  1.
          3   -1    0    0  501    0  0.00000000000E+00 -0.00000000000E+00 -0.27319668846E+02  0.27319668846E+02  0.00000000000E+00 0. -1.
         25    2    1    2    0    0  0.28205065188E+02  0.38452454498E+02  0.25780427672E+03  0.29049134353E+03  0.12509220043E+03 0.  0.
          5    1    3    3  502    0 -0.45072761271E+02  0.13936342816E+02  0.15333817529E+03  0.16048627312E+03  0.41800000000E+01 0. -1.
         -5    1    3    3    0  502  0.73277826459E+02  0.24516111682E+02  0.10446610143E+03  0.13000507041E+03  0.41800000000E+01 0. -1.
        -11    1    1    2    0    0 -0.52479172934E+02 -0.27343681058E+02  0.21017912038E+03  0.21835064262E+03  0.00000000000E+00 0.  1.
         11    1    1    2    0    0  0.24274107746E+02 -0.11108773440E+02  0.18965882545E+02  0.32746631199E+02  0.00000000000E+00 0. -1.
</event>
<event>
 7    1  0.3056346E-009  0.1089269E+03  0.7561462E-02  0.1262570E+00
         -2   -1    0    0    0  501 -0.00000000000E+00  0.00000000000E+00  0.24089766632E+02  0.24089766632E+02  0.00000000000E+00 0. -1.
          2   -1    0    0  501    0  0.00000000000E+00 -0.00000000000E+00 -0.15534344353E+04  0.15534344353E+04  0.00000000000E+00 0.  1.
         25    2    1    2    0    0 -0.69437957373E+02 -0.47220541858E+02 -0.13538644228E+04  0.13622216022E+04  0.12508960276E+03 0.  0.
          5    1    3    3  502    0  0.24121019284E+01  0.82987951055E+01 -0.86050494224E+03  0.86055849089E+03  0.41800000000E+01 0.  1.
         -5    1    3    3    0  502 -0.71850059302E+02 -0.55519336963E+02 -0.49335948057E+03  0.50166311133E+03  0.41800000000E+01 0.  1.
        -11    1    1    2    0    0  0.35877229454E+02 -0.20826105432E+02 -0.10007510357E+03  0.10833249104E+03  0.00000000000E+00 0.  1.
         11    1    1    2    0    0  0.33560727919E+02  0.68046647290E+02 -0.75405142313E+02  0.10697010869E+03  0.00000000000E+00 0. -1.
</event>
<event>
 7    1  0.3056346E-009  0.1055568E+03  0.7561462E-02  0.1269027E+00
         -2   -1    0    0    0  501 -0.00000000000E+00  0.00000000000E+00  0.28802019096E+02  0.28802019096E+02  0.00000000000E+00 0.  1.
          2   -1    0    0  501    0  0.00000000000E+00 -0.00000000000E+00 -0.76394538051E+03  0.76394538051E+03  0.00000000000E+00 0. -1.
         25    2    1    2    0    0  0.67481851858E+02  0.16392002766E+02 -0.59347167902E+03  0.61047434221E+03  0.12509112922E+03 0.  0.
          5    1    3    3  502    0  0.38382048275E+02 -0.34372083972E+02 -0.47962686458E+03  0.48240441894E+03  0.41800000000E+01 0.  1.
         -5    1    3    3    0  502  0.29099803583E+02  0.50764086737E+02 -0.11384481444E+03  0.12806992327E+03  0.41800000000E+01 0.  1.
        -11    1    1    2    0    0 -0.22103218171E+02 -0.42861157723E+02 -0.25000513946E+02  0.54319948384E+02  0.00000000000E+00 0.  1.
         11    1    1    2    0    0 -0.45378633687E+02  0.26469154957E+02 -0.11667116845E+03  0.12795310901E+03  0.00000000000E+00 0. -1.
</event>
<event>
 7    1  0.3056346E-009  0.1554316E+03  0.7561462E-02  0.1193953E+00
         -2   -1    0    0    0  501 -0.00000000000E+00  0.00000000000E+00  0.23535776078E+03  0.23535776078E+03  0.00000000000E+00 0.  1.
          2   -1    0    0  501    0  0.00000000000E+00 -0.00000000000E+00 -0.15283113722E+03  0.15283113722E+03  0.00000000000E+00 0. -1.
         25    2    1    2    0    0 -0.13803482010E+03 -0.33585649367E+02 -0.19536643324E+02  0.19028787638E+03  0.12508472353E+03 0.  0.
          5    1    3    3  502    0 -0.13836940281E+03 -0.26137322171E+02  0.26598684141E+02  0.14336740788E+03  0.41800000000E+01 0. -1.
         -5    1    3    3    0  502  0.33458271062E+00 -0.74483271954E+01 -0.46135327465E+02  0.46920468496E+02  0.41800000000E+01 0. -1.
        -11    1    1    2    0    0  0.22109472559E+02 -0.23459625878E+02  0.48055677366E+02  0.57866492466E+02  0.00000000000E+00 0. -1.
         11    1    1    2    0    0  0.11592534754E+03  0.57045275245E+02  0.54007589522E+02  0.14003452916E+03  0.00000000000E+00 0.  1.
</event>
<event>
 7    1  0.3056346E-009  0.3739712E+03  0.7561462E-02  0.1053185E+00
         -2   -1    0    0    0  501 -0.00000000000E+00  0.00000000000E+00  0.10001717544E+03  0.10001717544E+03  0.00000000000E+00 0.  1.
          2   -1    0    0  501    0  0.00000000000E+00 -0.00000000000E+00 -0.14990812241E+04  0.14990812241E+04  0.00000000000E+00 0. -1.
         25    2    1    2    0    0 -0.24139469776E+03  0.27313311515E+03 -0.55987757327E+03  0.67969368864E+03  0.12509002610E+03 0.  0.
          5    1    3    3  502    0 -0.23798417302E+03  0.20507599963E+03 -0.42499403048E+03  0.52851682146E+03  0.41800000000E+01 0. -1.
         -5    1    3    3    0  502 -0.34105247382E+01  0.68057115524E+02 -0.13488354280E+03  0.15117686718E+03  0.41800000000E+01 0. -1.
        -11    1    1    2    0    0  0.67102371488E+02 -0.94645201253E+02 -0.17551829523E+03  0.21039751505E+03  0.00000000000E+00 0.  1.
         11    1    1    2    0    0  0.17429232627E+03 -0.17848791390E+03 -0.66366818020E+03  0.70900719589E+03  0.00000000000E+00 0. -1.
</event>
<event>
 7    1  0.3056346E-009  0.1228476E+03  0.7561462E-02  0.1238472E+00
         -2   -1    0    0    0  501 -0.00000000000E+00  0.00000000000E+00  0.18679871714E+03  0.18679871714E+03  0.00000000000E+00 0. -1.
          2   -1    0    0  501    0  0.00000000000E+00 -0.00000000000E+00 -0.10640088091E+03  0.10640088091E+03  0.00000000000E+00 0.  1.
         25    2    1    2    0    0 -0.59296909299E+02 -0.62120820069E+02  0.62896695331E+02  0.16424976889E+03  0.12508745964E+03 0.  0.
          5    1    3    3  502    0 -0.74681376468E+02  0.11390166428E+02  0.40218097586E+02  0.85685539363E+02  0.41800000000E+01 0.  1.
         -5    1    3    3    0  502  0.15384467170E+02 -0.73510986498E+02  0.22678597744E+02  0.78564229530E+02  0.41800000000E+01 0.  1.
        -11    1    1    2    0    0  0.62339843495E+02  0.43667984769E+02 -0.26935265947E+02  0.80738203673E+02  0.00000000000E+00 0.  1.
         11    1    1    2    0    0 -0.30429341960E+01  0.18452835300E+02  0.44436406837E+02  0.48211625483E+02  0.00000000000E+00 0. -1.
</event>
<event>
 7    1  0.3056346E-009  0.1277809E+03  0.7561462E-02  0.1230786E+00
          2   -1    0    0  501    0  0.00000000000E+00  0.00000000000E+00  0.10877176505E+04  0.10877176505E+04  0.00000000000E+00 0. -1.
         -2   -1    0    0    0  501 -0.00000000000E+00 -0.00000000000E+00 -0.18430740631E+02  0.18430740631E+02  0.00000000000E+00 0.  1.
         25    2    1    2    0    0  0.64882866575E+02 -0.45878487292E+02  0.75985471087E+03  0.77417163032E+03  0.12509160480E+03 0.  0.
          5    1    3    3  502    0  0.97458036021E+02 -0.54217579409E+02  0.63827569872E+03  0.64795906867E+03  0.41800000000E+01 0.  1.
         -5    1    3    3    0  502 -0.32575169446E+02  0.83390921171E+01  0.12157901215E+03  0.12621256165E+03  0.41800000000E+01 0.  1.
        -11    1    1    2    0    0 -0.11939196209E+02 -0.21374528717E+02  0.14029999735E+03  0.14242016761E+03  0.00000000000E+00 0. -1.
         11    1    1    2    0    0 -0.52943670366E+02  0.67253016009E+02  0.16913220167E+03  0.18955659323E+03  0.00000000000E+00 0.  1.
</event>
<event>
 7    1  0.3056346E-009  0.1278476E+03  0.7561462E-02  0.1230685E+00
          1   -1    0    0  501    0  0.00000000000E+00  0.00000000000E+00  0.23778029908E+03  0.23778029908E+03  0.00000000000E+00 0. -1.
         -1   -1    0    0    0  501 -0.00000000000E+00 -0.00000000000E+00 -0.10309853684E+03  0.10309853684E+03  0.00000000000E+00 0.  1.
         25    2    1    2    0    0  0.82065607469E+02  0.18812658197E+02 -0.10078496362E+02  0.15112371510E+03  0.12509245036E+03 0.  0.
          5    1    3    3  502    0  0.88804874975E+02 -0.31780790955E+02 -0.25215693631E+02  0.97722198595E+02  0.41800000000E+01 0.  1.
         -5    1    3    3    0  502 -0.67392675058E+01  0.50593449152E+02  0.15137197269E+02  0.53401516502E+02  0.41800000000E+01 0.  1.
        -11    1    1    2    0    0 -0.82813305396E+02  0.80449451174E+01  0.64975651800E+02  0.10556798766E+03  0.00000000000E+00 0.  1.
         11    1    1    2    0    0  0.74769792726E+00 -0.26857603314E+02  0.79784606797E+02  0.84187133160E+02  0.00000000000E+00 0. -1.
</event>
<event>
 7    1  0.3056346E-009  0.2903567E+03  0.7561462E-02  0.1090163E+00
         -2   -1    0    0    0  501 -0.00000000000E+00  0.00000000000E+00  0.18204505575E+03  0.18204505575E+03  0.00000000000E+00 0. -1.
          2   -1    0    0  501    0  0.00000000000E+00 -0.00000000000E+00 -0.51295534508E+03  0.51295534508E+03  0.00000000000E+00 0.  1.
         25    2    1    2    0    0 -0.19181616757E+03  0.19893107118E+03 -0.87459115067E+02  0.31569448107E+03  0.12508755073E+03 0.  0.
          5    1    3    3  502    0  0.10765804310E+02 -0.51223157243E+01  0.50621412732E+01  0.13610229061E+02  0.41800000000E+01 0.  1.
         -5    1    3    3    0  502 -0.20258197188E+03  0.20405338691E+03 -0.92521256340E+02  0.30208425201E+03  0.41800000000E+01 0.  1.
        -11    1    1    2    0    0  0.13180961136E+03 -0.10265936715E+03 -0.19266537311E+03  0.25501502957E+03  0.00000000000E+00 0.  1.
         11    1    1    2    0    0  0.60006556207E+02 -0.96271704030E+02 -0.50785801146E+02  0.12429089018E+03  0.00000000000E+00 0. -1.
</event>
<event>
 7    1  0.3056346E-009  0.1581846E+03  0.7561462E-02  0.1190762E+00
         -1   -1    0    0    0  501 -0.00000000000E+00  0.00000000000E+00  0.29712100082E+03  0.29712100082E+03  0.00000000000E+00 0.  1.
          1   -1    0    0  501    0  0.00000000000E+00 -0.00000000000E+00 -0.10183500869E+03  0.10183500869E+03  0.00000000000E+00 0. -1.
         25    2    1    2    0    0 -0.98751063563E+02 -0.91832804262E+02  0.10633356964E+03  0.21246135233E+03  0.12509181311E+03 0.  0.
          5    1    3    3  502    0 -0.86815205552E+02  0.16711573525E+01  0.69005679361E+02  0.11099067017E+03  0.41800000000E+01 0. -1.
         -5    1    3    3    0  502 -0.11935858011E+02 -0.93503961614E+02  0.37327890281E+02  0.10147068215E+03  0.41800000000E+01 0. -1.
        -11    1    1    2    0    0  0.33916547044E+02  0.26527106503E+02  0.83934142107E+02  0.94334297867E+02  0.00000000000E+00 0.  1.
         11    1    1    2    0    0  0.64834516518E+02  0.65305697759E+02  0.50182803848E+01  0.92160359320E+02  0.00000000000E+00 0. -1.
</event>
<event>
 7    1  0.3056346E-009  0.5666775E+02  0.7561462E-02  0.1412373E+00
          2   -1    0    0  501    0  0.00000000000E+00  0.00000000000E+00  0.14420055220E+03  0.14420055220E+03  0.00000000000E+00 0.  1.
         -2   -1    0    0    0  501 -0.00000000000E+00 -0.00000000000E+00 -0.14252252348E+03  0.14252252348E+03  0.00000000000E+00 0. -1.
         25    2    1    2    0    0  0.35829906306E+02  0.38940967774E+02  0.67829422087E+02  0.15181502602E+03  0.12508713150E+03 0.  0.
          5    1    3    3  502    0  0.37731287942E+02  0.28570065077E+02 -0.28111951879E+02  0.55205551774E+02  0.41800000000E+01 0. -1.
         -5    1    3    3    0  502 -0.19013816360E+01  0.10370902696E+02  0.95941373965E+02  0.96609474241E+02  0.41800000000E+01 0. -1.
        -11    1    1    2    0    0 -0.13277136126E+02 -0.24002828772E+02 -0.92900081182E+02  0.96865077383E+02  0.00000000000E+00 0. -1.
         11    1    1    2    0    0 -0.22552770180E+02 -0.14938139002E+02  0.26748687820E+02  0.38042972278E+02  0.00000000000E+00 0.  1.
</event>
<event>
 7    1  0.3056346E-009  0.1251170E+03  0.7561462E-02  0.1234887E+00
          1   -1    0    0  501    0  0.00000000000E+00  0.00000000000E+00  0.10209134205E+03  0.10209134205E+03  0.00000000000E+00 0. -1.
         -1   -1    0    0    0  501 -0.00000000000E+00 -0.00000000000E+00 -0.19271756670E+03  0.19271756670E+03  0.00000000000E+00 0.  1.
         25    2    1    2    0    0  0.75845501410E+02  0.42677568059E+02 -0.66784909371E+02  0.16637621204E+03  0.12508758896E+03 0.  0.
          5    1    3    3  502    0  0.71490869740E+02  0.69447484630E+02 -0.62977710036E+01  0.99955149428E+02  0.41800000000E+01 0. -1.
         -5    1    3    3    0  502  0.43546316705E+01 -0.26769916571E+02 -0.60487138367E+02  0.66421062609E+02  0.41800000000E+01 0. -1.
        -11    1    1    2    0    0  0.87286706637E+01 -0.37281103806E+02 -0.20930317649E+02  0.43636551072E+02  0.00000000000E+00 0.  1.
         11    1    1    2    0    0 -0.84574172074E+02 -0.53964642529E+01 -0.29109976352E+01  0.84796145642E+02  0.00000000000E+00 0. -1.
</event>
<event>
 7    1  0.3056346E-009  0.1983642E+03  0.7561462E-02  0.1151126E+00
          2   -1    0    0  501    0  0.00000000000E+00  0.00000000000E+00  0.22836395584E+03  0.22836395584E+03  0.00000000000E+00 0. -1.
         -2   -1    0    0    0  501 -0.00000000000E+00 -0.00000000000E+00 -0.20312083157E+03  0.20312083157E+03  0.00000000000E+00 0.  1.
         25    2    1    2    0    0 -0.41061424476E+02 -0.17268993968E+03 -0.43792714121E+02  0.22152525534E+03  0.12509109120E+03 0.  0.
          5    1    3    3  502    0  0.12482152874E+01 -0.15058412729E+03  0.81339809035E+01  0.15086673417E+03  0.41800000000E+01 0.  1.
         -5    1    3    3    0  502 -0.42309639763E+02 -0.22105812389E+02 -0.51926695025E+02  0.70658521174E+02  0.41800000000E+01 0.  1.
        -11    1    1    2    0    0 -0.22008555330E+02  0.10995286686E+02  0.61603771184E+01  0.25361843057E+02  0.00000000000E+00 0.  1.
         11    1    1    2    0    0  0.63069979806E+02  0.16169465299E+03  0.62875461275E+02  0.18459768901E+03  0.00000000000E+00 0. -1.
</event>
<event>
 7    1  0.3056346E-009  0.6715703E+02  0.7561462E-02  0.1370037E+00
         -1   -1    0    0    0  501 -0.00000000000E+00  0.00000000000E+00  0.19481631631E+03  0.19481631631E+03  0.00000000000E+00 0.  1.
          1   -1    0    0  501    0  0.00000000000E+00 -0.00000000000E+00 -0.10789042688E+03  0.10789042688E+03  0.00000000000E+00 0. -1.
         25    2    1    2    0    0  0.30351315939E+02 -0.28719160823E+02  0.14023418640E+03  0.19250682828E+03  0.12508900560E+03 0.  0.
          5    1    3    3  502    0  0.14207941353E+02 -0.25822905377E+02  0.16212537193E+03  0.16483566563E+03  0.41800000000E+01 0. -1.
         -5    1    3    3    0  502  0.16143374586E+02 -0.28962554467E+01 -0.21891185532E+02  0.27671162654E+02  0.41800000000E+01 0. -1.
        -11    1    1    2    0    0  0.22789221536E+02  0.25765271473E+02  0.65824415051E+00  0.34403940438E+02  0.00000000000E+00 0.  1.
         11    1    1    2    0    0 -0.53140537475E+02  0.29538893510E+01 -0.53966541122E+02  0.75795974472E+02  0.00000000000E+00 0. -1.
</event>
<event>
 7    1  0.3056346E-009  0.8554526E+02  0.7561462E-02  0.1314013E+00
          2   -1    0    0  501    0  0.00000000000E+00  0.00000000000E+00  0.30881300493E+03  0.30881300493E+03  0.00000000000E+00 0. -1.
         -2   -1    0    0    0  501 -0.00000000000E+00 -0.00000000000E+00 -0.37708079245E+02  0.37708079245E+02  0.00000000000E+00 0.  1.
         25    2    1    2    0    0  0.69815564852E+01  0.86678240021E+01  0.19223227676E+03  0.22961535578E+03  0.12508433186E+03 0.  0.
          5    1    3    3  502    0 -0.25760008862E+02 -0.30479277879E+02  0.11458363003E+02  0.41729257353E+02  0.41800000000E+01 0. -1.
         -5    1    3    3    0  502  0.32741565347E+02  0.39147101881E+02  0.18077391375E+03  0.18788609842E+03  0.41800000000E+01 0. -1.
        -11    1    1    2    0    0  0.32620839685E+02  0.12405194482E+02  0.13071204367E+02  0.37267471279E+02  0.00000000000E+00 0. -1.
         11    1    1    2    0    0 -0.39602396171E+02 -0.21073018484E+02  0.65801444565E+02  0.79638257122E+02  0.00000000000E+00 0.  1.
</event>
<event>
 7    1  0.3056346E-009  0.1114708E+03  0.7561462E-02  0.1257870E+00
          1   -1    0    0  501    0  0.00000000000E+00  0.00000000000E+00  0.71069811176E+02  0.71069811176E+02  0.00000000000E+00 0. -1.
         -1   -1    0    0    0  501 -0.00000000000E+00 -0.00000000000E+00 -0.23998032999E+03  0.23998032999E+03  0.00000000000E+00 0.  1.
         25    2    1    2    0    0 -0.71545866590E+02 -0.66112096302E+01 -0.93056890741E+02  0.17166803948E+03  0.12509121370E+03 0.  0.
          5    1    3    3  502    0 -0.10712608072E+03 -0.83949615550E+01 -0.61418950700E+02  0.12383954318E+03  0.41800000000E+01 0.  1.
         -5    1    3    3    0  502  0.35580214127E+02  0.17837519247E+01 -0.31637940041E+02  0.47828496300E+02  0.41800000000E+01 0.  1.
        -11    1    1    2    0    0  0.34369250714E+02  0.20303853600E+02 -0.89079446746E+02  0.97614751438E+02  0.00000000000E+00 0.  1.
         11    1    1    2    0    0  0.37176615876E+02 -0.13692643970E+02  0.13225818678E+02  0.41767350246E+02  0.00000000000E+00 0. -1.
</event>
<event>
 7    1  0.3167372E-009  0.8514463E+02  0.7561462E-02  0.1315055E+00
         -2   -1    0    0    0  501 -0.00000000000E+00  0.00000000000E+00  0.40043013941E+02  0.40043013941E+02  0.00000000000E+00 0.  1.
          2   -1    0    0  501    0  0.00000000000E+00 -0.00000000000E+00 -0.37189041210E+03  0.37189041210E+03  0.00000000000E+00 0. -1.
         25    2    1    2    0    0  0.51043174809E+02  0.18337995334E+02 -0.20532583488E+03  0.24646970847E+03  0.12508769307E+03 0.  0.
          5    1    3    3  502    0 -0.23491645416E+02  0.26087759020E+02 -0.92846493985E+01  0.36552779504E+02  0.41800000000E+01 0. -1.
         -5    1    3    3    0  502  0.74534820224E+02 -0.77497636860E+01 -0.19604118548E+03  0.20991692897E+03  0.41800000000E+01 0. -1.
        -11    1    1    2    0    0 -0.10539840781E+02 -0.16194402043E+02  0.10897838630E+02  0.22183547688E+02  0.00000000000E+00 0.  1.
         11    1    1    2    0    0 -0.40503334028E+02 -0.21435932908E+01 -0.13741940191E+03  0.14328016988E+03  0.00000000000E+00 0. -1.
</event>
<event>
 7    1  0.3056346E-009  0.6090666E+02  0.7561462E-02  0.1394066E+00
          2   -1    0    0  501    0  0.00000000000E+00  0.00000000000E+00  0.28893387777E+03  0.28893387777E+03  0.00000000000E+00 0. -1.
         -2   -1    0    0    0  501 -0.00000000000E+00 -0.00000000000E+00 -0.49214874446E+02  0.49214874446E+02  0.00000000000E+00 0.  1.
         25    2    1    2    0    0  0.18415073357E+02  0.14829876303E+02  0.19490439408E+03  0.23279724976E+03  0.12509115279E+03 0.  0.
          5    1    3    3  502    0  0.41314744702E+02  0.28536428991E+02  0.17485186866E+02  0.53333292314E+02  0.41800000000E+01 0. -1.
         -5    1    3    3    0  502 -0.22899671344E+02 -0.13706552688E+02  0.17741920722E+03  0.17946395745E+03  0.41800000000E+01 0. -1.
        -11    1    1    2    0    0 -0.21879401601E+02  0.64844263099E+01 -0.24066113454E+02  0.33165250124E+02  0.00000000000E+00 0.  1.
         11    1    1    2    0    0  0.34643282440E+01 -0.21314302613E+02  0.68880722694E+02  0.72186252327E+02  0.00000000000E+00 0. -1.
</event>
<event>
 7    1  0.3056346E-009  0.1445876E+03  0.7561462E-02  0.1207286E+00
          1   -1    0    0  501    0  0.00000000000E+00  0.00000000000E+00  0.10727957271E+04  0.10727957271E+04  0.00000000000E+00 0. -1.
         -1   -1    0    0    0  501 -0.00000000000E+00 -0.00000000000E+00 -0.39810313760E+02  0.39810313760E+02  0.00000000000E+00 0.  1.
         25    2    1    2    0    0  0.13067650568E+03 -0.10155787055E+02  0.85428954197E+03  0.87329097329E+03  0.12508802241E+03 0.  0.
          5    1    3    3  502    0  0.91197326063E+02 -0.37617588280E+02  0.27857712852E+03  0.29555832617E+03  0.41800000000E+01 0.  1.
         -5    1    3    3    0  502  0.39479179616E+02  0.27461801225E+02  0.57571241345E+03  0.57773264712E+03  0.41800000000E+01 0.  1.
        -11    1    1    2    0    0 -0.19374846441E+02 -0.18968271983E+02  0.39353059712E+00  0.27117058893E+02  0.00000000000E+00 0. -1.
         11    1    1    2    0    0 -0.11130165924E+03  0.29124059039E+02  0.17830234077E+03  0.21219800868E+03  0.00000000000E+00 0.  1.
</event>
<event>
 7    1  0.3056346E-009  0.2441841E+03  0.7561462E-02  0.1117036E+00
          2   -1    0    0  501    0  0.00000000000E+00  0.00000000000E+00  0.15645357819E+04  0.15645357819E+04  0.00000000000E+00 0.  1.
         -2   -1    0    0    0  501 -0.00000000000E+00 -0.00000000000E+00 -0.40128035959E+02  0.40128035959E+02  0.00000000000E+00 0. -1.
         25    2    1    2    0    0  0.36338314886E+02  0.21582696076E+03  0.89547989073E+03  0.93028658228E+03  0.12508852999E+03 0.  0.
          5    1    3    3  502    0  0.76455022376E+02  0.10012348525E+03  0.37653912780E+03  0.39707589943E+03  0.41800000000E+01 0. -1.
         -5    1    3    3    0  502 -0.40116707491E+02  0.11570347551E+03  0.51894076294E+03  0.53321068285E+03  0.41800000000E+01 0. -1.
        -11    1    1    2    0    0 -0.70413585691E+02 -0.14503211794E+03  0.47396034363E+03  0.50063039821E+03  0.00000000000E+00 0. -1.
         11    1    1    2    0    0  0.34075270806E+02 -0.70794842822E+02  0.15496751157E+03  0.17374683736E+03  0.00000000000E+00 0.  1.
</event>
<event>
 7    1  0.3056346E-009  0.1360558E+03  0.7561462E-02  0.1218737E+00
          2   -1    0    0  501    0  0.00000000000E+00  0.00000000000E+00  0.18978370409E+03  0.18978370409E+03  0.00000000000E+00 0. -1.
         -2   -1    0    0    0  501 -0.00000000000E+00 -0.00000000000E+00 -0.11934552069E+03  0.11934552069E+03  0.00000000000E+00 0.  1.
         25    2    1    2    0    0 -0.24704385765E+02 -0.80600621632E+02  0.10063135526E+03  0.18133003637E+03  0.12508855082E+03 0.  0.
          5    1    3    3  502    0 -0.24533843552E+02  0.30645900310E+02  0.28200210825E+02  0.48516028030E+02  0.41800000000E+01 0. -1.
         -5    1    3    3    0  502 -0.17054221373E+00 -0.11124652194E+03  0.72431144432E+02  0.13281400834E+03  0.41800000000E+01 0. -1.
        -11    1    1    2    0    0  0.36993168631E+01 -0.19081465637E+02  0.49140582855E+01  0.20048322746E+02  0.00000000000E+00 0. -1.
         11    1    1    2    0    0  0.21005068902E+02  0.99682087269E+02 -0.35107230150E+02  0.10775086566E+03  0.00000000000E+00 0.  1.
</event>
<event>
 7    1  0.3056346E-009  0.1185966E+03  0.7561462E-02  0.1245430E+00
          2   -1    0    0  501    0  0.00000000000E+00  0.00000000000E+00  0.48128269831E+03  0.48128269831E+03  0.00000000000E+00 0. -1.
         -2   -1    0    0    0  501 -0.00000000000E+00 -0.00000000000E+00 -0.31692253573E+02  0.31692253573E+02  0.00000000000E+00 0.  1.
         25    2    1    2    0    0 -0.55191666720E+02  0.37831483665E+00  0.24251594733E+03  0.27840224358E+03  0.12509021273E+03 0.  0.
          5    1    3    3  502    0 -0.89298265783E+02 -0.15769221430E+02  0.12212900256E+03  0.15217034626E+03  0.41800000000E+01 0. -1.
         -5    1    3    3    0  502  0.34106599063E+02  0.16147536267E+02  0.12038694478E+03  0.12623189731E+03  0.41800000000E+01 0. -1.
        -11    1    1    2    0    0  0.75035423507E+02  0.22335447821E+02  0.12929699533E+03  0.15115191038E+03  0.00000000000E+00 0.  1.
         11    1    1    2    0    0 -0.19843756788E+02 -0.22713762658E+02  0.77777502070E+02  0.83420797921E+02  0.00000000000E+00 0. -1.
</event>
<event>
 7    1  0.3056346E-009  0.2223297E+03  0.7561462E-02  0.1132158E+00
         -2   -1    0    0    0  501 -0.00000000000E+00  0.00000000000E+00  0.12619260285E+04  0.12619260285E+04  0.00000000000E+00 0.  1.
          2   -1    0    0  501    0  0.00000000000E+00 -0.00000000000E+00 -0.47285727190E+02  0.47285727190E+02  0.00000000000E+00 0. -1.
         25    2    1    2    0    0 -0.12302738656E+03  0.17418025832E+03  0.49201922258E+03  0.55064031235E+03  0.12508931996E+03 0.  0.
          5    1    3    3  502    0 -0.27216807366E+02 -0.42642979231E+01  0.15449734195E+03  0.15698993569E+03  0.41800000000E+01 0. -1.
         -5    1    3    3    0  502 -0.95810579198E+02  0.17844455625E+03  0.33752188063E+03  0.39365037666E+03  0.41800000000E+01 0. -1.
        -11    1    1    2    0    0  0.13805618146E+02 -0.32571445468E+02  0.42328709673E+02  0.55165331639E+02  0.00000000000E+00 0. -1.
         11    1    1    2    0    0  0.10922176842E+03 -0.14160881286E+03  0.68029236904E+03  0.70340611168E+03  0.00000000000E+00 0.  1.
</event>
<event>
 7    1  0.3056346E-009  0.4104176E+03  0.7561462E-02  0.1040231E+00
         -1   -1    0    0    0  501 -0.00000000000E+00  0.00000000000E+00  0.69225434802E+03  0.69225434802E+03  0.00000000000E+00 0.  1.
          1   -1    0    0  501    0  0.00000000000E+00 -0.00000000000E+00 -0.44711414559E+03  0.44711414559E+03  0.00000000000E+00 0. -1.
         25    2    1    2    0    0 -0.34728143408E+03 -0.21666035045E+03 -0.24574948121E+03  0.49353239924E+03  0.12504127187E+03 0.  0.
          5    1    3    3  502    0 -0.10314557472E+03 -0.76881029416E+02 -0.14692441566E+03  0.19533038316E+03  0.41800000000E+01 0. -1.
         -5    1    3    3    0  502 -0.24413585936E+03 -0.13977932103E+03 -0.98825065554E+02  0.29820201608E+03  0.41800000000E+01 0. -1.
        -11    1    1    2    0    0  0.17981103145E+03  0.13240532429E+03  0.33189606563E+03  0.40002271849E+03  0.00000000000E+00 0. -1.
         11    1    1    2    0    0  0.16747040264E+03  0.84255026156E+02  0.15899361801E+03  0.24581337588E+03  0.00000000000E+00 0.  1.
</event>
<event>
 7    1  0.3056346E-009  0.1203986E+03  0.7561462E-02  0.1242441E+00
          1   -1    0    0  501    0  0.00000000000E+00  0.00000000000E+00  0.84056176628E+02  0.84056176628E+02  0.00000000000E+00 0. -1.
         -1   -1    0    0    0  501 -0.00000000000E+00 -0.00000000000E+00 -0.24868416734E+03  0.24868416734E+03  0.00000000000E+00 0.  1.
         25    2    1    2    0    0  0.51413343139E+02 -0.40792915222E+02 -0.10579234113E+02  0.14165611638E+03  0.12508853396E+03 0.  0.
          5    1    3    3  502    0  0.56674250622E+02 -0.79415936903E+02  0.85635286155E+01  0.98028914817E+02  0.41800000000E+01 0.  1.
         -5    1    3    3    0  502 -0.52609074831E+01  0.38623021681E+02 -0.19142762728E+02  0.43627201563E+02  0.41800000000E+01 0.  1.
        -11    1    1    2    0    0 -0.39256529835E+02 -0.18511543373E+02 -0.29135553302E+02  0.52274590758E+02  0.00000000000E+00 0.  1.
         11    1    1    2    0    0 -0.12156813304E+02  0.59304458595E+02 -0.12491320330E+03  0.13880963683E+03  0.00000000000E+00 0. -1.
</event>
<event>
 7    1  0.3056346E-009  0.1168902E+03  0.7561462E-02  0.1248317E+00
          2   -1    0    0  501    0  0.00000000000E+00  0.00000000000E+00  0.33210008379E+02  0.33210008379E+02  0.00000000000E+00 0. -1.
         -2   -1    0    0    0  501 -0.00000000000E+00 -0.00000000000E+00 -0.50519016028E+03  0.50519016028E+03  0.00000000000E+00 0.  1.
         25    2    1    2    0    0  0.34447432056E+02 -0.61023872990E+02 -0.25786166219E+03  0.29504482340E+03  0.12509305472E+03 0.  0.
          5    1    3    3  502    0  0.66177008145E+02 -0.55757255799E+02 -0.93314726334E+02  0.12733176560E+03  0.41800000000E+01 0. -1.
         -5    1    3    3    0  502 -0.31729576089E+02 -0.52666171909E+01 -0.16454693586E+03  0.16771305780E+03  0.41800000000E+01 0. -1.
        -11    1    1    2    0    0  0.30341724232E+02  0.30742969377E+02 -0.96066913922E+02  0.10533091828E+03  0.00000000000E+00 0.  1.
         11    1    1    2    0    0 -0.64789156289E+02  0.30280903612E+02 -0.11805157579E+03  0.13802442698E+03  0.00000000000E+00 0. -1.
</event>
<event>
 7    1  0.3056346E-009  0.1284921E+03  0.7561462E-02  0.1229711E+00
         -2   -1    0    0    0  501 -0.00000000000E+00  0.00000000000E+00  0.25251177765E+02  0.25251177765E+02  0.00000000000E+00 0.  1.
          2   -1    0    0  501    0  0.00000000000E+00 -0.00000000000E+00 -0.84123194596E+03  0.84123194596E+03  0.00000000000E+00 0. -1.
         25    2    1    2    0    0  0.98703892752E+01 -0.10198152252E+03 -0.42565425137E+03  0.45533161962E+03  0.12509071346E+03 0.  0.
          5    1    3    3  502    0 -0.14865091580E+02  0.74347022980E+01 -0.22305086877E+03  0.22370831054E+03  0.41800000000E+01 0.  1.
         -5    1    3    3    0  502  0.24735480855E+02 -0.10941622482E+03 -0.20260338260E+03  0.23162330908E+03  0.41800000000E+01 0.  1.
        -11    1    1    2    0    0  0.12847323821E+02  0.10399353182E+03 -0.29252148730E+03  0.31072259158E+03  0.00000000000E+00 0. -1.
         11    1    1    2    0    0 -0.22717713096E+02 -0.20120092972E+01 -0.97805029533E+02  0.10042891253E+03  0.00000000000E+00 0.  1.
</event>
<event>
 7    1  0.3056346E-009  0.1201895E+03  0.7561462E-02  0.1242785E+00
          1   -1    0    0  501    0  0.00000000000E+00  0.00000000000E+00  0.16949630769E+03  0.16949630769E+03  0.00000000000E+00 0. -1.
         -1   -1    0    0    0  501 -0.00000000000E+00 -0.00000000000E+00 -0.14999659776E+03  0.14999659776E+03  0.00000000000E+00 0.  1.
         25    2    1    2    0    0 -0.83593270858E+02  0.34474790409E+02 -0.62933642805E+02  0.16668558303E+03  0.12508834513E+03 0.  0.
          5    1    3    3  502    0  0.19392578516E+02  0.19523417298E+02  0.19396226827E+02  0.33925240451E+02  0.41800000000E+01 0.  1.
         -5    1    3    3    0  502 -0.10298584937E+03  0.14951373110E+02 -0.82329869633E+02  0.13276034258E+03  0.41800000000E+01 0.  1.
        -11    1    1    2    0    0  0.46847547235E+02  0.12757354122E+02  0.79174078667E+02  0.92876140633E+02  0.00000000000E+00 0.  1.
         11    1    1    2    0    0  0.36745723624E+02 -0.47232144531E+02  0.32592740709E+01  0.59931181776E+02  0.00000000000E+00 0. -1.
</event>
<event>
 7    1  0.3056346E-009  0.1486194E+03  0.7561462E-02  0.1202180E+00
         -2   -1    0    0    0  501 -0.00000000000E+00  0.00000000000E+00  0.14469519746E+04  0.14469519746E+04  0.00000000000E+00 0.  1.
          2   -1    0    0  501    0  0.00000000000E+00 -0.00000000000E+00 -0.20850836092E+02  0.20850836092E+02  0.00000000000E+00 0. -1.
         25    2    1    2    0    0  0.65807262601E+02 -0.87827586398E+02  0.10967123407E+04  0.11092653257E+04  0.12508926323E+03 0.  0.
          5    1    3    3  502    0 -0.15619048677E+02 -0.83168227439E+02  0.55072966653E+03  0.55720871020E+03  0.41800000000E+01 0. -1.
         -5    1    3    3    0  502  0.81426311278E+02 -0.46593589589E+01  0.54598267417E+03  0.55205661548E+03  0.41800000000E+01 0. -1.
        -11    1    1    2    0    0  0.15442672480E+02  0.17977563321E+02  0.13038904020E+03  0.13252535878E+03  0.00000000000E+00 0.  1.
         11    1    1    2    0    0 -0.81249935081E+02  0.69850023077E+02  0.19899975764E+03  0.22601212625E+03  0.00000000000E+00 0. -1.
</event>
<event>
 7    1  0.3056346E-009  0.2073260E+03  0.7561462E-02  0.1143701E+00
          1   -1    0    0  501    0  0.00000000000E+00  0.00000000000E+00  0.58086054545E+03  0.58086054545E+03  0.00000000000E+00 0. -1.
         -1   -1    0    0    0  501 -0.00000000000E+00 -0.00000000000E+00 -0.78240535178E+02  0.78240535178E+02  0.00000000000E+00 0.  1.
         25    2    1    2    0    0 -0.17993373232E+03 -0.34373906218E+02  0.25318789131E+03  0.33661263656E+03  0.12508495246E+03 0.  0.
          5    1    3    3  502    0 -0.59263300852E+02  0.47322164762E+02  0.82428736143E+02  0.11208699768E+03  0.41800000000E+01 0.  1.
         -5    1    3    3    0  502 -0.12067043146E+03 -0.81696070980E+02  0.17075915517E+03  0.22452563889E+03  0.41800000000E+01 0.  1.
        -11    1    1    2    0    0  0.36488441460E+02 -0.17382026937E+02  0.15597991665E+02  0.43322494902E+02  0.00000000000E+00 0.  1.
         11    1    1    2    0    0  0.14344529086E+03  0.51755933155E+02  0.23383412729E+03  0.27916594916E+03  0.00000000000E+00 0. -1.
</event>
<event>
 7    1  0.3056346E-009  0.1720506E+03  0.7561462E-02  0.1175726E+00
          2   -1    0    0  501    0  0.00000000000E+00  0.00000000000E+00  0.33948990038E+03  0.33948990038E+03  0.00000000000E+00 0. -1.
         -2   -1    0    0    0  501 -0.00000000000E+00 -0.00000000000E+00 -0.10622627740E+03  0.10622627740E+03  0.00000000000E+00 0.  1.
         25    2    1    2    0    0 -0.15394361170E+03  0.29267360781E+02  0.11567618842E+03  0.23148303619E+03  0.12509277152E+03 0.  0.
          5    1    3    3  502    0 -0.40813734265E+02  0.56989754756E+02  0.86349142044E+02  0.11129797745E+03  0.41800000000E+01 0. -1.
         -5    1    3    3    0  502 -0.11312987744E+03 -0.27722393974E+02  0.29327046373E+02  0.12018505875E+03  0.41800000000E+01 0. -1.
        -11    1    1    2    0    0  0.35821426452E+02 -0.83231695022E+00  0.79016644387E+02  0.86761151644E+02  0.00000000000E+00 0.  1.
         11    1    1    2    0    0  0.11812218525E+03 -0.28435043831E+02  0.38570790170E+02  0.12747198995E+03  0.00000000000E+00 0. -1.
</event>
<event>
 7    1  0.3056346E-009  0.1335603E+03  0.7561462E-02  0.1222266E+00
          1   -1    0    0  501    0  0.00000000000E+00  0.00000000000E+00  0.98339765285E+02  0.98339765285E+02  0.00000000000E+00 0. -1.
         -1   -1    0    0    0  501 -0.00000000000E+00 -0.00000000000E+00 -0.27064879017E+03  0.27064879017E+03  0.00000000000E+00 0.  1.
         25    2    1    2    0    0 -0.49433936200E+02 -0.10852353981E+03 -0.75587504689E+02  0.18862707053E+03  0.12508248531E+03 0.  0.
          5    1    3    3  502    0 -0.28730556656E+02 -0.18999857190E+02  0.31915766661E+02  0.47143695448E+02  0.41800000000E+01 0. -1.
         -5    1    3    3    0  502 -0.20703379545E+02 -0.89523682622E+02 -0.10750327135E+03  0.14148337509E+03  0.41800000000E+01 0. -1.
        -11    1    1    2    0    0  0.30470415951E+02  0.20029627036E+00  0.46168234889E+01  0.30818848550E+02  0.00000000000E+00 0. -1.
         11    1    1    2    0    0  0.18963520249E+02  0.10832324354E+03 -0.10133834368E+03  0.14954263637E+03  0.00000000000E+00 0.  1.
</event>
<event>
 7    1  0.3056346E-009  0.1010631E+03  0.7561462E-02  0.1278076E+00
         -1   -1    0    0    0  501 -0.00000000000E+00  0.00000000000E+00  0.25175000649E+03  0.25175000649E+03  0.00000000000E+00 0.  1.
          1   -1    0    0  501    0  0.00000000000E+00 -0.00000000000E+00 -0.54934235102E+02  0.54934235102E+02  0.00000000000E+00 0. -1.
         25    2    1    2    0    0 -0.34978452233E+02 -0.49619431595E+01  0.14900490036E+03  0.19773071259E+03  0.12508741491E+03 0.  0.
          5    1    3    3  502    0  0.23538541158E+02  0.34725643229E+02  0.12548961421E+02  0.43987294191E+02  0.41800000000E+01 0. -1.
         -5    1    3    3    0  502 -0.58516993391E+02 -0.39687586389E+02  0.13645593894E+03  0.15374341840E+03  0.41800000000E+01 0. -1.
        -11    1    1    2    0    0  0.54127744077E+02 -0.19975323929E+02  0.51447539434E+02  0.77302493871E+02  0.00000000000E+00 0.  1.
         11    1    1    2    0    0 -0.19149291843E+02  0.24937267089E+02 -0.36366684037E+01  0.31651035134E+02  0.00000000000E+00 0. -1.
</event>
<event>
 7    1  0.3056346E-009  0.1197456E+03  0.7561462E-02  0.1243517E+00
          1   -1    0    0  501    0  0.00000000000E+00  0.00000000000E+00  0.21649495909E+03  0.21649495909E+03  0.00000000000E+00 0. -1.
         -1   -1    0    0    0  501 -0.00000000000E+00 -0.00000000000E+00 -0.96667947817E+02  0.96667947817E+02  0.00000000000E+00 0.  1.
         25    2    1    2    0    0 -0.80847079027E+02  0.29475353789E+00  0.12025728087E+03  0.19142930518E+03  0.12508808181E+03 0.  0.
          5    1    3    3  502    0 -0.71709722579E+02  0.56378837326E+02  0.65243569597E+02  0.11222768546E+03  0.41800000000E+01 0. -1.
         -5    1    3    3    0  502 -0.91373564478E+01 -0.56084083789E+02  0.55013711271E+02  0.79201619712E+02  0.41800000000E+01 0. -1.
        -11    1    1    2    0    0  0.60388978403E+01  0.13810760820E+02  0.34744762588E+02  0.37873525434E+02  0.00000000000E+00 0. -1.
         11    1    1    2    0    0  0.74808181186E+02 -0.14105514358E+02 -0.35175032182E+02  0.83860076298E+02  0.00000000000E+00 0.  1.
</event>
<event>
 7    1  0.3056346E-009  0.9963688E+02  0.7561462E-02  0.1281061E+00
          2   -1    0    0  501    0  0.00000000000E+00  0.00000000000E+00  0.44831833905E+03  0.44831833905E+03  0.00000000000E+00 0.  1.
         -2   -1    0    0    0  501 -0.00000000000E+00 -0.00000000000E+00 -0.32952022398E+02  0.32952022398E+02  0.00000000000E+00 0. -1.
         25    2    1    2    0    0  0.39555655618E+02 -0.38827017896E+01  0.17056621591E+03  0.21522292373E+03  0.12509335563E+03 0.  0.
          5    1    3    3  502    0 -0.31898715885E+02 -0.32216118130E+02  0.10370940041E+03  0.11326304992E+03  0.41800000000E+01 0. -1.
         -5    1    3    3    0  502  0.71454371503E+02  0.28333416340E+02  0.66856815499E+02  0.10195987381E+03  0.41800000000E+01 0. -1.
        -11    1    1    2    0    0 -0.29097688914E+01  0.31025265193E+02  0.20831150782E+02  0.37482938495E+02  0.00000000000E+00 0. -1.
         11    1    1    2    0    0 -0.36645886727E+02 -0.27142563404E+02  0.22396894995E+03  0.22856449922E+03  0.00000000000E+00 0.  1.
</event>
<event>
 7    1  0.3056346E-009  0.7996586E+02  0.7561462E-02  0.1329148E+00
         -1   -1    0    0    0  501 -0.00000000000E+00  0.00000000000E+00  0.11901475189E+03  0.11901475189E+03  0.00000000000E+00 0.  1.
          1   -1    0    0  501    0  0.00000000000E+00 -0.00000000000E+00 -0.10160301257E+03  0.10160301257E+03  0.00000000000E+00 0. -1.
         25    2    1    2    0    0  0.17549637527E+02 -0.15116789208E+01  0.15329417596E+02  0.12724922651E+03  0.12508836737E+03 0.  0.
          5    1    3    3  502    0  0.31063411124E+02  0.39064870253E+02  0.50941682813E+02  0.71438974281E+02  0.41800000000E+01 0. -1.
         -5    1    3    3    0  502 -0.13513773598E+02 -0.40576549174E+02 -0.35612265216E+02  0.55810252226E+02  0.41800000000E+01 0. -1.
        -11    1    1    2    0    0 -0.41473719732E+02  0.76574315973E+01  0.33174660642E+02  0.53658771843E+02  0.00000000000E+00 0.  1.
         11    1    1    2    0    0  0.23924082205E+02 -0.61457526765E+01 -0.31092338912E+02  0.39709766108E+02  0.00000000000E+00 0. -1.
</event>
<event>
 7    1  0.3056346E-009  0.2304864E+03  0.7561462E-02  0.1126298E+00
         -4   -1    0    0    0  501 -0.00000000000E+00  0.00000000000E+00  0.87338105301E+03  0.87338105301E+03  0.00000000000E+00 0. -1.
          4   -1    0    0  501    0  0.00000000000E+00 -0.00000000000E+00 -0.77917164564E+02  0.77917164564E+02  0.00000000000E+00 0.  1.
         25    2    1    2    0    0  0.10399771399E+03 -0.17899786152E+03  0.62348377524E+03  0.66875597778E+03  0.12508709322E+03 0.  0.
          5    1    3    3  502    0  0.83892140946E+02 -0.19611455686E+03  0.52461502043E+03  0.56633665146E+03  0.41800000000E+01 0. -1.
         -5    1    3    3    0  502  0.20105573039E+02  0.17116695346E+02  0.98868754804E+02  0.10241932632E+03  0.41800000000E+01 0. -1.
        -11    1    1    2    0    0  0.12481436663E+02  0.23487077237E+02  0.38576722332E+02  0.46857150619E+02  0.00000000000E+00 0.  1.
         11    1    1    2    0    0 -0.11647915065E+03  0.15551078428E+03  0.13340339088E+03  0.23568508918E+03  0.00000000000E+00 0. -1.
</event>
<event>
 7    1  0.3146349E-009  0.1229626E+03  0.7561462E-02  0.1238288E+00
          2   -1    0    0  501    0  0.00000000000E+00  0.00000000000E+00  0.87534157292E+02  0.87534157292E+02  0.00000000000E+00 0.  1.
         -2   -1    0    0    0  501 -0.00000000000E+00 -0.00000000000E+00 -0.22608267503E+03  0.22608267503E+03  0.00000000000E+00 0. -1.
         25    2    1    2    0    0 -0.35268050183E+02  0.81257026598E+02 -0.82017698227E+02  0.17383755685E+03  0.12508418611E+03 0.  0.
          5    1    3    3  502    0  0.44215619305E+02  0.11336871020E+02 -0.36216295544E+02  0.58417789225E+02  0.41800000000E+01 0. -1.
         -5    1    3    3    0  502 -0.79483669488E+02  0.69920155578E+02 -0.45801402683E+02  0.11541976763E+03  0.41800000000E+01 0. -1.
        -11    1    1    2    0    0 -0.53452656512E+01 -0.19586933905E+02 -0.62481901860E+02  0.65697853121E+02  0.00000000000E+00 0. -1.
         11    1    1    2    0    0  0.40613315834E+02 -0.61670092694E+02  0.59510823494E+01  0.74081422348E+02  0.00000000000E+00 0.  1.
</event>
<event>
 7    1  0.3056346E-009  0.1175967E+03  0.7561462E-02  0.1247115E+00
         -1   -1    0    0    0  501 -0.00000000000E+00  0.00000000000E+00  0.11408560895E+03  0.11408560895E+03  0.00000000000E+00 0.  1.
          1   -1    0    0  501    0  0.00000000000E+00 -0.00000000000E+00 -0.15883022776E+03  0.15883022776E+03  0.00000000000E+00 0. -1.
         25    2    1    2    0    0  0.41170789490E+02 -0.37554150309E+02  0.12555869377E+02  0.13751614004E+03  0.12509073028E+03 0.  0.
          5    1    3    3  502    0  0.12256152862E+02  0.33645301305E+02 -0.32328607566E+02  0.48423453512E+02  0.41800000000E+01 0. -1.
         -5    1    3    3    0  502  0.28914636628E+02 -0.71199451614E+02  0.44884476943E+02  0.89092686523E+02  0.41800000000E+01 0. -1.
        -11    1    1    2    0    0 -0.78717331900E+02  0.24979861100E+02 -0.44342182332E+02  0.93737084102E+02  0.00000000000E+00 0. -1.
         11    1    1    2    0    0  0.37546542410E+02  0.12574289210E+02 -0.12958305860E+02  0.41662612578E+02  0.00000000000E+00 0.  1.
</event>
<event>
 7    1  0.3056346E-009  0.1038429E+03  0.7561462E-02  0.1272416E+00
          1   -1    0    0  501    0  0.00000000000E+00  0.00000000000E+00  0.11115388908E+04  0.11115388908E+04  0.00000000000E+00 0. -1.
         -1   -1    0    0    0  501 -0.00000000000E+00 -0.00000000000E+00 -0.12604935231E+02  0.12604935231E+02  0.00000000000E+00 0.  1.
         25    2    1    2    0    0  0.39287626524E+02 -0.26157953824E+02  0.65052689995E+03  0.66412418730E+03  0.12509169616E+03 0.  0.
          5    1    3    3  502    0  0.46245597699E+02  0.28715491895E+02  0.51201997187E+03  0.51492247841E+03  0.41800000000E+01 0. -1.
         -5    1    3    3    0  502 -0.69579711753E+01 -0.54873445719E+02  0.13850692808E+03  0.14920170889E+03  0.41800000000E+01 0. -1.
        -11    1    1    2    0    0 -0.48951631528E+01 -0.30743974197E+02  0.83709534136E+02  0.89310921376E+02  0.00000000000E+00 0.  1.
         11    1    1    2    0    0 -0.34392463371E+02  0.56901928021E+02  0.36469752148E+03  0.37070871735E+03  0.00000000000E+00 0. -1.
</event>
<event>
 7    1  0.3056346E-009  0.1127974E+03  0.7561462E-02  0.1255476E+00
         -1   -1    0    0    0  501 -0.00000000000E+00  0.00000000000E+00  0.17489371950E+03  0.17489371950E+03  0.00000000000E+00 0.  1.
          1   -1    0    0  501    0  0.00000000000E+00 -0.00000000000E+00 -0.91135171654E+02  0.91135171654E+02  0.00000000000E+00 0. -1.
         25    2    1    2    0    0 -0.13966138048E+02  0.10301586021E+01 -0.13649451574E+02  0.12661434130E+03  0.12509504249E+03 0.  0.
          5    1    3    3  502    0 -0.45574567183E+02 -0.48669797060E+02 -0.83978570642E+01  0.67333399759E+02  0.41800000000E+01 0.  1.
         -5    1    3    3    0  502  0.31608429135E+02  0.49699955662E+02 -0.52515945096E+01  0.59280941542E+02  0.41800000000E+01 0.  1.
        -11    1    1    2    0    0  0.46343885381E+02 -0.30889541445E+02  0.54088403487E+02  0.77636813914E+02  0.00000000000E+00 0.  1.
         11    1    1    2    0    0 -0.32377747334E+02  0.29859382843E+02  0.43319595935E+02  0.61777735942E+02  0.00000000000E+00 0. -1.
</event>
<event>
 7    1  0.3056346E-009  0.1023521E+03  0.7561462E-02  0.1275426E+00
          2   -1    0    0  501    0  0.00000000000E+00  0.00000000000E+00  0.30434540585E+03  0.30434540585E+03  0.00000000000E+00 0. -1.
         -2   -1    0    0    0  501 -0.00000000000E+00 -0.00000000000E+00 -0.45940252493E+02  0.45940252493E+02  0.00000000000E+00 0.  1.
         25    2    1    2    0    0 -0.34906770175E+02  0.29716266389E+01  0.19528317189E+03  0.23454320133E+03  0.12509069869E+03 0.  0.
          5    1    3    3  502    0 -0.59139909627E+02  0.48035121073E+02  0.94694840271E+02  0.12161203452E+03  0.41800000000E+01 0. -1.
         -5    1    3    3    0  502  0.24233139451E+02 -0.45063494434E+02  0.10058833162E+03  0.11293116680E+03  0.41800000000E+01 0. -1.
        -11    1    1    2    0    0  0.53988817236E+02  0.87137744309E+01  0.73058764486E+02  0.91259549197E+02  0.00000000000E+00 0. -1.
         11    1    1    2    0    0 -0.19082047060E+02 -0.11685401070E+02 -0.99367830212E+01  0.24482907813E+02  0.00000000000E+00 0.  1.
</event>
<event>
 7    1  0.3056346E-009  0.7892923E+02  0.7561462E-02  0.1332118E+00
         -2   -1    0    0    0  501 -0.00000000000E+00  0.00000000000E+00  0.21873669740E+02  0.21873669740E+02  0.00000000000E+00 0.  1.
          2   -1    0    0  501    0  0.00000000000E+00 -0.00000000000E+00 -0.75465437669E+03  0.75465437669E+03  0.00000000000E+00 0. -1.
         25    2    1    2    0    0  0.65515079582E+02 -0.20232139423E+02 -0.37156172877E+03  0.39800421971E+03  0.12509066912E+03 0.  0.
          5    1    3    3  502    0  0.24157399837E+02 -0.25710548181E+02 -0.34819920994E+03  0.35000682059E+03  0.41800000000E+01 0. -1.
         -5    1    3    3    0  502  0.41357679745E+02  0.54784087580E+01 -0.23362518833E+02  0.47997399123E+02  0.41800000000E+01 0. -1.
        -11    1    1    2    0    0 -0.61698813485E+01  0.20135446925E+02 -0.11878666975E+02  0.24178634945E+02  0.00000000000E+00 0.  1.
         11    1    1    2    0    0 -0.59345198233E+02  0.96692498432E-01 -0.34934031120E+03  0.35434519178E+03  0.00000000000E+00 0. -1.
</event>
<event>
 7    1  0.3056346E-009  0.1625870E+03  0.7561462E-02  0.1185807E+00
         -1   -1    0    0    0  501 -0.00000000000E+00  0.00000000000E+00  0.20658265319E+02  0.20658265319E+02  0.00000000000E+00 0.  1.
          1   -1    0    0  501    0  0.00000000000E+00 -0.00000000000E+00 -0.17403583363E+04  0.17403583363E+04  0.00000000000E+00 0. -1.
         25    2    1    2    0    0  0.10020524788E+03 -0.80892322425E+02 -0.13027978220E+04  0.13151102420E+04  0.12509246259E+03 0.  0.
          5    1    3    3  502    0  0.83200477683E+02 -0.10987114141E+03 -0.85624039034E+03  0.86727104509E+03  0.41800000000E+01 0. -1.
         -5    1    3    3    0  502  0.17004770192E+02  0.28978818986E+02 -0.44655743167E+03  0.44783919696E+03  0.41800000000E+01 0. -1.
        -11    1    1    2    0    0 -0.85263178501E+02  0.98541710399E+02 -0.38535788804E+03  0.40679353507E+03  0.00000000000E+00 0.  1.
         11    1    1    2    0    0 -0.14942069374E+02 -0.17649387974E+02 -0.31544360894E+02  0.39112824461E+02  0.00000000000E+00 0. -1.
</event>
<event>
 7    1  0.3056346E-009  0.9223834E+02  0.7561462E-02  0.1297520E+00
          2   -1    0    0  501    0  0.00000000000E+00  0.00000000000E+00  0.77002097053E+02  0.77002097053E+02  0.00000000000E+00 0. -1.
         -2   -1    0    0    0  501 -0.00000000000E+00 -0.00000000000E+00 -0.31979891828E+03  0.31979891828E+03  0.00000000000E+00 0.  1.
         25    2    1    2    0    0 -0.77528491416E+02 -0.23291816893E+02 -0.30612379629E+02  0.15210967389E+03  0.12508820643E+03 0.  0.
          5    1    3    3  502    0 -0.25426933442E+02 -0.45665293907E+01  0.48705116330E+02  0.55290531664E+02  0.41800000000E+01 0. -1.
         -5    1    3    3    0  502 -0.52101557974E+02 -0.18725287503E+02 -0.79317495959E+02  0.96819142222E+02  0.41800000000E+01 0. -1.
        -11    1    1    2    0    0  0.40888744028E+02 -0.20456400668E+02 -0.32317092767E+02  0.55988822111E+02  0.00000000000E+00 0. -1.
         11    1    1    2    0    0  0.36639747388E+02  0.43748217562E+02 -0.17986734883E+03  0.18870251934E+03  0.00000000000E+00 0.  1.
</event>
<event>
 7    1  0.3056346E-009  0.1123304E+03  0.7561462E-02  0.1256314E+00
         -1   -1    0    0    0  501 -0.00000000000E+00  0.00000000000E+00  0.36214530199E+02  0.36214530199E+02  0.00000000000E+00 0.  1.
          1   -1    0    0  501    0  0.00000000000E+00 -0.00000000000E+00 -0.50333597629E+03  0.50333597629E+03  0.00000000000E+00 0. -1.
         25    2    1    2    0    0  0.57736978242E+02  0.48716834860E+02 -0.32272892878E+03  0.35427093466E+03  0.12508814900E+03 0.  0.
          5    1    3    3  502    0  0.56372213768E+02 -0.28526650521E+02 -0.98748714950E+02  0.11730463494E+03  0.41800000000E+01 0.  1.
         -5    1    3    3    0  502  0.13647644736E+01  0.77243485381E+02 -0.22398021383E+03  0.23696629972E+03  0.41800000000E+01 0.  1.
        -11    1    1    2    0    0 -0.41913097136E+02 -0.11390951259E+02 -0.13744845235E+03  0.14414762757E+03  0.00000000000E+00 0. -1.
         11    1    1    2    0    0 -0.15823881106E+02 -0.37325883601E+02 -0.69440649649E+01  0.41131944254E+02  0.00000000000E+00 0.  1.
</event>
<event>
 7    1  0.3056346E-009  0.6816418E+02  0.7561462E-02  0.1366449E+00
          1   -1    0    0  501    0  0.00000000000E+00  0.00000000000E+00  0.24468375704E+02  0.24468375704E+02  0.00000000000E+00 0. -1.
         -1   -1    0    0    0  501 -0.00000000000E+00 -0.00000000000E+00 -0.57587358325E+03  0.57587358325E+03  0.00000000000E+00 0.  1.
         25    2    1    2    0    0 -0.13589812943E+02 -0.18006496176E+02 -0.46411256456E+03  0.48120302231E+03  0.12508780585E+03 0.  0.
          5    1    3    3  502    0  0.15757124749E+02  0.17143808349E+02 -0.11578218045E+02  0.26338653689E+02  0.41800000000E+01 0. -1.
         -5    1    3    3    0  502 -0.29346937693E+02 -0.35150304525E+02 -0.45253434652E+03  0.45486436862E+03  0.41800000000E+01 0. -1.
        -11    1    1    2    0    0  0.38517899351E+02  0.58636777382E+01 -0.82173234500E+02  0.90942024143E+02  0.00000000000E+00 0.  1.
         11    1    1    2    0    0 -0.24928086408E+02  0.12142818438E+02 -0.51194084848E+01  0.28196912505E+02  0.00000000000E+00 0. -1.
</event>
<event>
 7    1  0.3056346E-009  0.1103211E+03  0.7561462E-02  0.1259976E+00
          3   -1    0    0  501    0  0.00000000000E+00  0.00000000000E+00  0.54720055153E+02  0.54720055153E+02  0.00000000000E+00 0. -1.
         -3   -1    0    0    0  501 -0.00000000000E+00 -0.00000000000E+00 -0.34646321181E+03  0.34646321181E+03  0.00000000000E+00 0.  1.
         25    2    1    2    0    0 -0.72552603264E+02  0.37355787394E+02 -0.11072867019E+03  0.18592389310E+03  0.12509004968E+03 0.  0.
          5    1    3    3  502    0 -0.30006441962E+02 -0.19902165479E+02  0.16635600629E+02  0.39883560000E+02  0.41800000000E+01 0.  1.
         -5    1    3    3    0  502 -0.42546161302E+02  0.57257952873E+02 -0.12736427082E+03  0.14604033310E+03  0.41800000000E+01 0.  1.
        -11    1    1    2    0    0  0.28787365288E+02 -0.57845154795E+02 -0.12890465624E+03  0.14419148634E+03  0.00000000000E+00 0.  1.
         11    1    1    2    0    0  0.43765237976E+02  0.20489367400E+02 -0.52109830229E+02  0.71067887531E+02  0.00000000000E+00 0. -1.
</event>
<event>
 7    1  0.3056346E-009  0.1003649E+03  0.7561462E-02  0.1279530E+00
          2   -1    0    0  501    0  0.00000000000E+00  0.00000000000E+00  0.37375415684E+02  0.37375415684E+02  0.00000000000E+00 0.  1.
         -2   -1    0    0    0  501 -0.00000000000E+00 -0.00000000000E+00 -0.57202756963E+03  0.57202756963E+03  0.00000000000E+00 0. -1.
         25    2    1    2    0    0  0.59267447628E+02 -0.77921066937E+02 -0.31980567784E+03  0.35708384314E+03  0.12509546927E+03 0.  0.
          5    1    3    3  502    0  0.57272425483E+02 -0.56144923934E+02 -0.70734796412E+02  0.10701993752E+03  0.41800000000E+01 0. -1.
         -5    1    3    3    0  502  0.19950221453E+01 -0.21776143003E+02 -0.24907088142E+03  0.25006390561E+03  0.41800000000E+01 0. -1.
        -11    1    1    2    0    0 -0.28108133720E+02  0.42801155972E+02 -0.25433351284E+02  0.57173958157E+02  0.00000000000E+00 0.  1.
         11    1    1    2    0    0 -0.31159313908E+02  0.35119910965E+02 -0.18941312483E+03  0.19514518402E+03  0.00000000000E+00 0. -1.
</event>
<event>
 7    1  0.3056346E-009  0.1986210E+03  0.7561462E-02  0.1150908E+00
         -1   -1    0    0    0  501 -0.00000000000E+00  0.00000000000E+00  0.12046106609E+03  0.12046106609E+03  0.00000000000E+00 0.  1.
          1   -1    0    0  501    0  0.00000000000E+00 -0.00000000000E+00 -0.35893890913E+03  0.35893890913E+03  0.00000000000E+00 0. -1.
         25    2    1    2    0    0  0.12960887876E+03  0.10901441265E+03 -0.64216438207E+02  0.22012609079E+03  0.12509652790E+03 0.  0.
          5    1    3    3  502    0  0.90391788579E+02  0.37392065611E+00 -0.50796882810E+02  0.10377191799E+03  0.41800000000E+01 0.  1.
         -5    1    3    3    0  502  0.39217090185E+02  0.10864049199E+03 -0.13419555398E+02  0.11635417281E+03  0.41800000000E+01 0.  1.
        -11    1    1    2    0    0 -0.12654508852E+03 -0.12322989346E+03 -0.16673903277E+03  0.24290156673E+03  0.00000000000E+00 0. -1.
         11    1    1    2    0    0 -0.30637902407E+01  0.14215480812E+02 -0.75223720544E+01  0.16372317694E+02  0.00000000000E+00 0.  1.
</event>
<event>
 7    1  0.3056346E-009  0.9797244E+02  0.7561462E-02  0.1284618E+00
          1   -1    0    0  501    0  0.00000000000E+00  0.00000000000E+00  0.11591493514E+04  0.11591493514E+04  0.00000000000E+00 0. -1.
         -1   -1    0    0    0  501 -0.00000000000E+00 -0.00000000000E+00 -0.12133816725E+02  0.12133816725E+02  0.00000000000E+00 0.  1.
         25    2    1    2    0    0  0.23837605262E+02 -0.24288817587E+02  0.83151281391E+03  0.84155759006E+03  0.12508972619E+03 0.  0.
          5    1    3    3  502    0  0.55737267383E+02  0.13690248911E+02  0.67199878857E+03  0.67445823453E+03  0.41800000000E+01 0. -1.
         -5    1    3    3    0  502 -0.31899662121E+02 -0.37979066498E+02  0.15951402534E+03  0.16709935552E+03  0.41800000000E+01 0. -1.
        -11    1    1    2    0    0 -0.15721813611E+02  0.54821763923E+02  0.25684696880E+03  0.26310257811E+03  0.00000000000E+00 0.  1.
         11    1    1    2    0    0 -0.81157916514E+01 -0.30532946336E+02  0.58655751962E+02  0.66622999965E+02  0.00000000000E+00 0. -1.
</event>
<event>
 7    1  0.3056346E-009  0.1282160E+03  0.7561462E-02  0.1230127E+00
         -2   -1    0    0    0  501 -0.00000000000E+00  0.00000000000E+00  0.13517840564E+02  0.13517840564E+02  0.00000000000E+00 0.  1.
          2   -1    0    0  501    0  0.00000000000E+00 -0.00000000000E+00 -0.18927827910E+04  0.18927827910E+04  0.00000000000E+00 0. -1.
         25    2    1    2    0    0 -0.11436855692E+03 -0.47867882328E+01 -0.11428472167E+04  0.11553575607E+04  0.12509297391E+03 0.  0.
          5    1    3    3  502    0 -0.77340016313E+02 -0.10399718139E+02 -0.10742679063E+04  0.10771066053E+04  0.41800000000E+01 0.  1.
         -5    1    3    3    0  502 -0.37028540611E+02  0.56129299064E+01 -0.68579310385E+02  0.78250955360E+02  0.41800000000E+01 0.  1.
        -11    1    1    2    0    0 -0.11679533601E+02 -0.76157469623E+01 -0.27861065319E+02  0.31155257464E+02  0.00000000000E+00 0.  1.
         11    1    1    2    0    0  0.12604809053E+03  0.12402535195E+02 -0.70855666840E+03  0.71978781341E+03  0.00000000000E+00 0. -1.
</event>
<event>
 7    1  0.3056346E-009  0.1061804E+03  0.7561462E-02  0.1267811E+00
          1   -1    0    0  501    0  0.00000000000E+00  0.00000000000E+00  0.24311766903E+03  0.24311766903E+03  0.00000000000E+00 0. -1.
         -1   -1    0    0    0  501 -0.00000000000E+00 -0.00000000000E+00 -0.10222205151E+03  0.10222205151E+03  0.00000000000E+00 0.  1.
         25    2    1    2    0    0 -0.86940752475E+01 -0.60904184965E+02  0.17898680597E+03  0.22686291093E+03  0.12508236068E+03 0.  0.
          5    1    3    3  502    0  0.22447565095E+02 -0.68580611880E+02  0.18054880997E+03  0.19448017556E+03  0.41800000000E+01 0. -1.
         -5    1    3    3    0  502 -0.31141640342E+02  0.76764269160E+01 -0.15620040024E+01  0.32382735368E+02  0.41800000000E+01 0. -1.
        -11    1    1    2    0    0  0.35358286336E+02 -0.58613694862E+01 -0.28815060010E+02  0.45987734759E+02  0.00000000000E+00 0.  1.
         11    1    1    2    0    0 -0.26664211088E+02  0.66765554451E+02 -0.92761284418E+01  0.72489074852E+02  0.00000000000E+00 0. -1.
</event>
<event>
 7    1  0.3056346E-009  0.1783001E+03  0.7561462E-02  0.1169458E+00
         -2   -1    0    0    0  501 -0.00000000000E+00  0.00000000000E+00  0.14134268947E+04  0.14134268947E+04  0.00000000000E+00 0. -1.
          2   -1    0    0  501    0  0.00000000000E+00 -0.00000000000E+00 -0.34406148326E+02  0.34406148326E+02  0.00000000000E+00 0.  1.
         25    2    1    2    0    0 -0.11768727193E+03  0.11572920965E+03  0.10404024110E+04  0.10608151708E+04  0.12509238879E+03 0.  0.
          5    1    3    3  502    0 -0.73268737876E+02  0.42095233716E+02  0.21676982696E+03  0.23269496542E+03  0.41800000000E+01 0.  1.
         -5    1    3    3    0  502 -0.44418534055E+02  0.73633975936E+02  0.82363258407E+03  0.82812020536E+03  0.41800000000E+01 0.  1.
        -11    1    1    2    0    0  0.85588443209E+02 -0.24255816735E+02  0.13771395940E+03  0.16394773823E+03  0.00000000000E+00 0. -1.
         11    1    1    2    0    0  0.32098828722E+02 -0.91473392918E+02  0.20090437592E+03  0.22307013400E+03  0.00000000000E+00 0.  1.
</event>
<event>
 7    1  0.3056346E-009  0.1343447E+03  0.7561462E-02  0.1221148E+00
          1   -1    0    0  501    0  0.00000000000E+00  0.00000000000E+00  0.21148459365E+03  0.21148459365E+03  0.00000000000E+00 0. -1.
         -1   -1    0    0    0  501 -0.00000000000E+00 -0.00000000000E+00 -0.11501252305E+03  0.11501252305E+03  0.00000000000E+00 0.  1.
         25    2    1    2    0    0  0.56308969425E+02  0.88950980447E+02  0.12392683643E+02  0.16396296431E+03  0.12508916060E+03 0.  0.
          5    1    3    3  502    0  0.10340834228E+02 -0.32028984286E+02  0.34283803964E+00  0.33917231975E+02  0.41800000000E+01 0.  1.
         -5    1    3    3    0  502  0.45968135197E+02  0.12097996473E+03  0.12049845603E+02  0.13004573234E+03  0.41800000000E+01 0.  1.
        -11    1    1    2    0    0 -0.44021372432E+02 -0.68301631957E+02  0.10353610401E+03  0.13161580069E+03  0.00000000000E+00 0. -1.
         11    1    1    2    0    0 -0.12287596993E+02 -0.20649348490E+02 -0.19456717052E+02  0.30918351693E+02  0.00000000000E+00 0.  1.
</event>
<event>
 7    1  0.3056346E-009  0.9424962E+02  0.7561462E-02  0.1292875E+00
          2   -1    0    0  501    0  0.00000000000E+00  0.00000000000E+00  0.44373799273E+03  0.44373799273E+03  0.00000000000E+00 0. -1.
         -2   -1    0    0    0  501 -0.00000000000E+00 -0.00000000000E+00 -0.44220754252E+02  0.44220754252E+02  0.00000000000E+00 0.  1.
         25    2    1    2    0    0  0.48526998164E+02 -0.73337570794E+02  0.20817369345E+03  0.25830626659E+03  0.12511023888E+03 0.  0.
          5    1    3    3  502    0  0.48969236920E+01 -0.28495466829E+02  0.19109812540E+03  0.19331822838E+03  0.41800000000E+01 0.  1.
         -5    1    3    3    0  502  0.43630074472E+02 -0.44842103964E+02  0.17075568052E+02  0.64988038212E+02  0.41800000000E+01 0.  1.
        -11    1    1    2    0    0  0.19008748046E+01  0.30084302138E+02  0.34281173443E+01  0.30338598331E+02  0.00000000000E+00 0.  1.
         11    1    1    2    0    0 -0.50427872969E+02  0.43253268656E+02  0.18791542768E+03  0.19931388206E+03  0.00000000000E+00 0. -1.
</event>
<event>
 7    1  0.3056346E-009  0.1087617E+03  0.7561462E-02  0.1262880E+00
         -1   -1    0    0    0  501 -0.00000000000E+00  0.00000000000E+00  0.97177942294E+02  0.97177942294E+02  0.00000000000E+00 0.  1.
          1   -1    0    0  501    0  0.00000000000E+00 -0.00000000000E+00 -0.19326682047E+03  0.19326682047E+03  0.00000000000E+00 0. -1.
         25    2    1    2    0    0  0.69127127447E+02  0.47230424772E+02 -0.57572115206E+02  0.16115602421E+03  0.12508973945E+03 0.  0.
          5    1    3    3  502    0  0.27870765079E+01  0.22798088498E+02 -0.82760761611E+02  0.85990329091E+02  0.41800000000E+01 0.  1.
         -5    1    3    3    0  502  0.66340050939E+02  0.24432336274E+02  0.25188646405E+02  0.75165695115E+02  0.41800000000E+01 0.  1.
        -11    1    1    2    0    0 -0.49567084019E+02 -0.74692437874E+02 -0.29768325828E+02  0.94456388435E+02  0.00000000000E+00 0.  1.
         11    1    1    2    0    0 -0.19560043428E+02  0.27462013102E+02 -0.87484371374E+01  0.34832350119E+02  0.00000000000E+00 0. -1.
</event>
<event>
 7    1  0.3427559E-009  0.1083889E+03  0.7561462E-02  0.1263583E+00
         -2   -1    0    0    0  501 -0.00000000000E+00  0.00000000000E+00  0.24908195789E+02  0.24908195789E+02  0.00000000000E+00 0.  1.
          2   -1    0    0  501    0  0.00000000000E+00 -0.00000000000E+00 -0.11072588407E+04  0.11072588407E+04  0.00000000000E+00 0. -1.
         25    2    1    2    0    0  0.82427735741E+02 -0.64543098536E+02 -0.81286876050E+03  0.82907369898E+03  0.12508970121E+03 0.  0.
          5    1    3    3  502    0  0.37354914279E+02 -0.31041634399E+02 -0.71104816809E+03  0.71271729489E+03  0.41800000000E+01 0.  1.
         -5    1    3    3    0  502  0.45072821462E+02 -0.33501464137E+02 -0.10182059242E+03  0.11635640409E+03  0.41800000000E+01 0.  1.
        -11    1    1    2    0    0 -0.66861614420E+02  0.28938426958E+02 -0.74220299544E+02  0.10400269661E+03  0.00000000000E+00 0.  1.
         11    1    1    2    0    0 -0.15566121321E+02  0.35604671578E+02 -0.19526158488E+03  0.19909064092E+03  0.00000000000E+00 0. -1.
</event>
<event>
 7    1  0.3056346E-009  0.1479976E+03  0.7561462E-02  0.1202955E+00
         -1   -1    0    0    0  501 -0.00000000000E+00  0.00000000000E+00  0.31179182123E+03  0.31179182123E+03  0.00000000000E+00 0. -1.
          1   -1    0    0  501    0  0.00000000000E+00 -0.00000000000E+00 -0.90386053795E+02  0.90386053795E+02  0.00000000000E+00 0.  1.
         25    2    1    2    0    0 -0.12675959715E+03 -0.10819339944E+02  0.10343944720E+03  0.20623388082E+03  0.12509053031E+03 0.  0.
          5    1    3    3  502    0 -0.98053929094E+02 -0.48994501259E+02  0.22223571667E+02  0.11192137286E+03  0.41800000000E+01 0.  1.
         -5    1    3    3    0  502 -0.28705668056E+02  0.38175161315E+02  0.81215875531E+02  0.94312507962E+02  0.41800000000E+01 0.  1.
        -11    1    1    2    0    0  0.89908528572E+02 -0.17853934798E+02  0.30165925834E+02  0.96500205073E+02  0.00000000000E+00 0.  1.
         11    1    1    2    0    0  0.36851068579E+02  0.28673274742E+02  0.87800394406E+02  0.99443789136E+02  0.00000000000E+00 0. -1.
</event>
<event>
 7    1  0.3056346E-009  0.1326010E+03  0.7561462E-02  0.1223647E+00
         -2   -1    0    0    0  501 -0.00000000000E+00  0.00000000000E+00  0.62389791372E+02  0.62389791372E+02  0.00000000000E+00 0. -1.
          2   -1    0    0  501    0  0.00000000000E+00 -0.00000000000E+00 -0.74700719860E+03  0.74700719860E+03  0.00000000000E+00 0.  1.
         25    2    1    2    0    0  0.11889858901E+03 -0.30929314972E+02 -0.93249328038E+02  0.19858578204E+03  0.12508948259E+03 0.  0.
          5    1    3    3  502    0  0.81704139915E+02  0.14435727241E+02  0.59233135554E+01  0.83285741539E+02  0.41800000000E+01 0.  1.
         -5    1    3    3    0  502  0.37194449091E+02 -0.45365042213E+02 -0.99172641593E+02  0.11530004050E+03  0.41800000000E+01 0.  1.
        -11    1    1    2    0    0 -0.10412688306E+03  0.23352481118E+02 -0.58209404056E+03  0.59179491228E+03  0.00000000000E+00 0.  1.
         11    1    1    2    0    0 -0.14771705945E+02  0.75768338540E+01 -0.92740386304E+01  0.19016295651E+02  0.00000000000E+00 0. -1.
</event>
<event>
 7    1  0.3056346E-009  0.1350283E+03  0.7561462E-02  0.1220180E+00
          2   -1    0    0  501    0  0.00000000000E+00  0.00000000000E+00  0.55206786991E+03  0.55206786991E+03  0.00000000000E+00 0. -1.
         -2   -1    0    0    0  501 -0.00000000000E+00 -0.00000000000E+00 -0.55450585830E+02  0.55450585830E+02  0.00000000000E+00 0.  1.
         25    2    1    2    0    0 -0.11938421006E+03 -0.12419810761E+02  0.38091618112E+03  0.41851084294E+03  0.12508935730E+03 0.  0.
          5    1    3    3  502    0 -0.41077544981E+02  0.33222652905E+02  0.27028118039E+03  0.27542784579E+03  0.41800000000E+01 0. -1.
         -5    1    3    3    0  502 -0.78306665074E+02 -0.45642463667E+02  0.11063500073E+03  0.14308299714E+03  0.41800000000E+01 0. -1.
        -11    1    1    2    0    0  0.98609301867E+02  0.25402541840E+02  0.39935250667E+02  0.10937964981E+03  0.00000000000E+00 0.  1.
         11    1    1    2    0    0  0.20774908188E+02 -0.12982731078E+02  0.75765852299E+02  0.79627962997E+02  0.00000000000E+00 0. -1.
</event>
<event>
 7    1  0.3056346E-009  0.1236042E+03  0.7561462E-02  0.1237267E+00
          1   -1    0    0  501    0  0.00000000000E+00  0.00000000000E+00  0.56783499451E+03  0.56783499451E+03  0.00000000000E+00 0. -1.
         -1   -1    0    0    0  501 -0.00000000000E+00 -0.00000000000E+00 -0.32032323576E+02  0.32032323576E+02  0.00000000000E+00 0.  1.
         25    2    1    2    0    0  0.75355116305E+02  0.47895094002E+01  0.32319489288E+03  0.35468273099E+03  0.12507424965E+03 0.  0.
          5    1    3    3  502    0  0.10476586969E+02  0.53262580036E+02  0.69162220582E+02  0.88020148049E+02  0.41800000000E+01 0. -1.
         -5    1    3    3    0  502  0.64878529335E+02 -0.48473070636E+02  0.25403267230E+03  0.26666258294E+03  0.41800000000E+01 0. -1.
        -11    1    1    2    0    0  0.46396305560E+00  0.28757168058E+02  0.18726790993E+02  0.34320295415E+02  0.00000000000E+00 0.  1.
         11    1    1    2    0    0 -0.75819079360E+02 -0.33546677458E+02  0.19388098707E+03  0.21086429169E+03  0.00000000000E+00 0. -1.
</event>
<event>
 7    1  0.3056346E-009  0.1506091E+03  0.7561462E-02  0.1199727E+00
          2   -1    0    0  501    0  0.00000000000E+00  0.00000000000E+00  0.15550896700E+03  0.15550896700E+03  0.00000000000E+00 0. -1.
         -2   -1    0    0    0  501 -0.00000000000E+00 -0.00000000000E+00 -0.22181529174E+03  0.22181529174E+03  0.00000000000E+00 0.  1.
         25    2    1    2    0    0  0.45765198314E+02  0.10695611358E+03 -0.13131777926E+03  0.21546916140E+03  0.12509411160E+03 0.  0.
          5    1    3    3  502    0  0.63629190377E+02  0.19510424179E+01 -0.56707935205E+02  0.85356562429E+02  0.41800000000E+01 0.  1.
         -5    1    3    3    0  502 -0.17863992063E+02  0.10500507116E+03 -0.74609844053E+02  0.13011259897E+03  0.41800000000E+01 0.  1.
        -11    1    1    2    0    0  0.13652768852E+02 -0.93173768302E+01  0.42175872586E+02  0.45299181413E+02  0.00000000000E+00 0. -1.
         11    1    1    2    0    0 -0.59417967166E+02 -0.97638736745E+02  0.22835581925E+02  0.11655591593E+03  0.00000000000E+00 0.  1.
</event>
<event>
 7    1  0.3056346E-009  0.5419312E+02  0.7561462E-02  0.1423954E+00
         -2   -1    0    0    0  501 -0.00000000000E+00  0.00000000000E+00  0.40200476943E+02  0.40200476943E+02  0.00000000000E+00 0. -1.
          2   -1    0    0  501    0  0.00000000000E+00 -0.00000000000E+00 -0.37255960707E+03  0.37255960707E+03  0.00000000000E+00 0.  1.
         25    2    1    2    0    0 -0.73561345714E+01  0.96178961609E+01 -0.92502367386E+02  0.15604524614E+03  0.12508722648E+03 0.  0.
          5    1    3    3  502    0 -0.10045358368E+02  0.18819467958E+02  0.27799449352E+02  0.35289706476E+02  0.41800000000E+01 0.  1.
         -5    1    3    3    0  502  0.26892237961E+01 -0.92015717968E+01 -0.12030181674E+03  0.12075553966E+03  0.41800000000E+01 0.  1.
        -11    1    1    2    0    0  0.33115259105E+02  0.18601103744E+02 -0.19075119006E+03  0.19449585588E+03  0.00000000000E+00 0.  1.
         11    1    1    2    0    0 -0.25759124533E+02 -0.28218999905E+02 -0.49105572686E+02  0.62218982000E+02  0.00000000000E+00 0. -1.
</event>
<event>
 7    1  0.3056346E-009  0.1353013E+03  0.7561462E-02  0.1219795E+00
         -1   -1    0    0    0  501 -0.00000000000E+00  0.00000000000E+00  0.38852147685E+03  0.38852147685E+03  0.00000000000E+00 0.  1.
          1   -1    0    0  501    0  0.00000000000E+00 -0.00000000000E+00 -0.78848429586E+02  0.78848429586E+02  0.00000000000E+00 0. -1.
         25    2    1    2    0    0 -0.89736061429E+02  0.92236158856E+02  0.15989865154E+03  0.24036897895E+03  0.12509835154E+03 0.  0.
          5    1    3    3  502    0 -0.74052264218E+02  0.99497062920E+02  0.58096905208E+02  0.13702600542E+03  0.41800000000E+01 0. -1.
         -5    1    3    3    0  502 -0.15683797211E+02 -0.72609040644E+01  0.10180174634E+03  0.10334297354E+03  0.41800000000E+01 0. -1.
        -11    1    1    2    0    0  0.66699085908E+02 -0.66646829400E+02  0.16445701675E+03  0.18956971880E+03  0.00000000000E+00 0.  1.
         11    1    1    2    0    0  0.23036975521E+02 -0.25589329456E+02 -0.14682621025E+02  0.37431208681E+02  0.00000000000E+00 0. -1.
</event>
<event>
 7    1  0.3056346E-009  0.2630464E+03  0.7561462E-02  0.1105327E+00
         -3   -1    0    0    0  501 -0.00000000000E+00  0.00000000000E+00  0.16559642464E+03  0.16559642464E+03  0.00000000000E+00 0.  1.
          3   -1    0    0  501    0  0.00000000000E+00 -0.00000000000E+00 -0.63494531808E+03  0.63494531808E+03  0.00000000000E+00 0. -1.
         25    2    1    2    0    0  0.23477575416E+03  0.98446473386E+02 -0.44619177866E+03  0.52872143100E+03  0.12509150806E+03 0.  0.
          5    1    3    3  502    0  0.72308494554E+02 -0.10113741140E+02 -0.55280510539E+02  0.91674496944E+02  0.41800000000E+01 0. -1.
         -5    1    3    3    0  502  0.16246725960E+03  0.10856021453E+03 -0.39091126813E+03  0.43704693406E+03  0.41800000000E+01 0. -1.
        -11    1    1    2    0    0 -0.53461036544E+02 -0.40824312216E+02 -0.44080297711E+02  0.80422506443E+02  0.00000000000E+00 0. -1.
         11    1    1    2    0    0 -0.18131471761E+03 -0.57622161171E+02  0.20923182937E+02  0.19139780528E+03  0.00000000000E+00 0.  1.
</event>
<event>
 7    1  0.3056346E-009  0.8821307E+02  0.7561462E-02  0.1307238E+00
          2   -1    0    0  501    0  0.00000000000E+00  0.00000000000E+00  0.13415547433E+04  0.13415547433E+04  0.00000000000E+00 0. -1.
         -2   -1    0    0    0  501 -0.00000000000E+00 -0.00000000000E+00 -0.29331638591E+02  0.29331638591E+02  0.00000000000E+00 0.  1.
         25    2    1    2    0    0  0.50993897230E+02 -0.60782733643E+02  0.11900257677E+04  0.11992078016E+04  0.12507240094E+03 0.  0.
          5    1    3    3  502    0  0.62622107619E+01 -0.28637162595E+02  0.51981167141E+02  0.59823210399E+02  0.41800000000E+01 0.  1.
         -5    1    3    3    0  502  0.44731686468E+02 -0.32145571048E+02  0.11380446006E+04  0.11393845912E+04  0.41800000000E+01 0.  1.
        -11    1    1    2    0    0 -0.22973163159E+02 -0.17598892927E+01  0.95317879247E+02  0.98063048800E+02  0.00000000000E+00 0. -1.
         11    1    1    2    0    0 -0.28020734071E+02  0.62542622936E+02  0.26879457779E+02  0.73615531459E+02  0.00000000000E+00 0.  1.
</event>
<event>
 7    1  0.3056346E-009  0.1351785E+03  0.7561462E-02  0.1219968E+00
          2   -1    0    0  501    0  0.00000000000E+00  0.00000000000E+00  0.36789993108E+03  0.36789993108E+03  0.00000000000E+00 0. -1.
         -2   -1    0    0    0  501 -0.00000000000E+00 -0.00000000000E+00 -0.55571923998E+02  0.55571923998E+02  0.00000000000E+00 0.  1.
         25    2    1    2    0    0 -0.67459868222E+02  0.57075256599E+02  0.21346505632E+03  0.26272448700E+03  0.12509359322E+03 0.  0.
          5    1    3    3  502    0 -0.62790668324E+02  0.90247558129E+02  0.11738000407E+03  0.16088140829E+03  0.41800000000E+01 0.  1.
         -5    1    3    3    0  502 -0.46691998975E+01 -0.33172301530E+02  0.96085052246E+02  0.10184307871E+03  0.41800000000E+01 0.  1.
        -11    1    1    2    0    0  0.33431133352E+02  0.22319103804E+02  0.35374659397E+02  0.53545771068E+02  0.00000000000E+00 0.  1.
         11    1    1    2    0    0  0.34028734870E+02 -0.79394360403E+02  0.63488291363E+02  0.10720159701E+03  0.00000000000E+00 0. -1.
</event>
<event>
 7    1  0.3056346E-009  0.2548742E+03  0.7561462E-02  0.1110263E+00
         -1   -1    0    0    0  501 -0.00000000000E+00  0.00000000000E+00  0.53444591948E+02  0.53444591948E+02  0.00000000000E+00 0.  1.
          1   -1    0    0  501    0  0.00000000000E+00 -0.00000000000E+00 -0.13521734345E+04  0.13521734345E+04  0.00000000000E+00 0. -1.
         25    2    1    2    0    0  0.50748077956E+01 -0.24452224006E+03 -0.72343388066E+03  0.77383545771E+03  0.12509139207E+03 0.  0.
          5    1    3    3  502    0  0.26091717954E+02 -0.10447372392E+02 -0.28580382989E+02  0.40301811714E+02  0.41800000000E+01 0. -1.
         -5    1    3    3    0  502 -0.21016910158E+02 -0.23407486767E+03 -0.69485349767E+03  0.73353364600E+03  0.41800000000E+01 0. -1.
        -11    1    1    2    0    0  0.12031397017E+02  0.86033157708E+02 -0.31313352572E+03  0.32496009550E+03  0.00000000000E+00 0.  1.
         11    1    1    2    0    0 -0.17106204813E+02  0.15848908236E+03 -0.26216143622E+03  0.30682247328E+03  0.00000000000E+00 0. -1.
</event>
<event>
 7    1  0.3056346E-009  0.1066817E+03  0.7561462E-02  0.1266841E+00
         -2   -1    0    0    0  501 -0.00000000000E+00  0.00000000000E+00  0.12104800720E+03  0.12104800720E+03  0.00000000000E+00 0.  1.
          2   -1    0    0  501    0  0.00000000000E+00 -0.00000000000E+00 -0.11525973696E+03  0.11525973696E+03  0.00000000000E+00 0. -1.
         25    2    1    2    0    0  0.18340055611E+01  0.43667090338E+02  0.38817116447E+02  0.13805223447E+03  0.12506587287E+03 0.  0.
          5    1    3    3  502    0  0.55420198504E+02  0.74126880451E+01  0.46397606809E+02  0.72777446120E+02  0.41800000000E+01 0.  1.
         -5    1    3    3    0  502 -0.53586192943E+02  0.36254402293E+02 -0.75804903615E+01  0.65274788347E+02  0.41800000000E+01 0.  1.
        -11    1    1    2    0    0  0.34198076396E+02 -0.44860007324E+02 -0.22103586915E+02  0.60584628750E+02  0.00000000000E+00 0. -1.
         11    1    1    2    0    0 -0.36032081957E+02  0.11929169863E+01 -0.10925259293E+02  0.37670880952E+02  0.00000000000E+00 0.  1.
</event>
<event>
 7    1  0.3056346E-009  0.1001490E+03  0.7561462E-02  0.1279983E+00
         -4   -1    0    0    0  501 -0.00000000000E+00  0.00000000000E+00  0.15612374866E+03  0.15612374866E+03  0.00000000000E+00 0.  1.
          4   -1    0    0  501    0  0.00000000000E+00 -0.00000000000E+00 -0.11164446902E+03  0.11164446902E+03  0.00000000000E+00 0. -1.
         25    2    1    2    0    0  0.27418652734E+01  0.89931028978E+01 -0.51408505228E+02  0.13556624997E+03  0.12508788909E+03 0.  0.
          5    1    3    3  502    0 -0.47801047489E+02  0.27554178266E+02 -0.59164694373E+02  0.81006828979E+02  0.41800000000E+01 0. -1.
         -5    1    3    3    0  502  0.50542912763E+02 -0.18561075369E+02  0.77561891444E+01  0.54559420996E+02  0.41800000000E+01 0. -1.
        -11    1    1    2    0    0 -0.76819017969E+01  0.40499720248E+02  0.41282374862E+02  0.58339295759E+02  0.00000000000E+00 0. -1.
         11    1    1    2    0    0  0.49400365235E+01 -0.49492823146E+02  0.54605410009E+02  0.73862671940E+02  0.00000000000E+00 0.  1.
</event>
<event>
 7    1  0.3056346E-009  0.2505694E+03  0.7561462E-02  0.1112945E+00
          1   -1    0    0  501    0  0.00000000000E+00  0.00000000000E+00  0.38627686814E+03  0.38627686814E+03  0.00000000000E+00 0. -1.
         -1   -1    0    0    0  501 -0.00000000000E+00 -0.00000000000E+00 -0.18169152249E+03  0.18169152249E+03  0.00000000000E+00 0.  1.
         25    2    1    2    0    0  0.87871993876E+02 -0.22247179219E+03  0.71803945129E+02  0.27931915176E+03  0.12509275109E+03 0.  0.
          5    1    3    3  502    0  0.11285505104E+03 -0.18300698701E+03  0.31219604118E+02  0.21730153225E+03  0.41800000000E+01 0. -1.
         -5    1    3    3    0  502 -0.24983057166E+02 -0.39464805185E+02  0.40584341010E+02  0.62017619503E+02  0.41800000000E+01 0. -1.
        -11    1    1    2    0    0 -0.76200539986E+01  0.19042761711E+02 -0.14387723786E+02  0.25053913711E+02  0.00000000000E+00 0.  1.
         11    1    1    2    0    0 -0.80251939878E+02  0.20342903048E+03  0.14716912430E+03  0.26359532516E+03  0.00000000000E+00 0. -1.
</event>
<event>
 7    1  0.3056346E-009  0.2065224E+03  0.7561462E-02  0.1144350E+00
          4   -1    0    0  501    0  0.00000000000E+00  0.00000000000E+00  0.61866310724E+03  0.61866310724E+03  0.00000000000E+00 0. -1.
         -4   -1    0    0    0  501 -0.00000000000E+00 -0.00000000000E+00 -0.73679689219E+02  0.73679689219E+02  0.00000000000E+00 0.  1.
         25    2    1    2    0    0  0.12733167528E+03  0.13022690000E+03  0.31502538229E+03  0.38478844090E+03  0.12509497092E+03 0.  0.
          5    1    3    3  502    0  0.83638340227E+01  0.81217848017E+02  0.18278066944E+03  0.20023121154E+03  0.41800000000E+01 0.  1.
         -5    1    3    3    0  502  0.11896784126E+03  0.49009051980E+02  0.13224471286E+03  0.18455722936E+03  0.41800000000E+01 0.  1.
        -11    1    1    2    0    0 -0.29604807269E+02  0.10336977239E+02  0.51206805800E+02  0.60045271855E+02  0.00000000000E+00 0. -1.
         11    1    1    2    0    0 -0.97726868013E+02 -0.14056387724E+03  0.17875122993E+03  0.24750908371E+03  0.00000000000E+00 0.  1.
</event>
<event>
 7    1  0.3056346E-009  0.1054164E+03  0.7561462E-02  0.1269301E+00
         -1   -1    0    0    0  501 -0.00000000000E+00  0.00000000000E+00  0.33280024481E+02  0.33280024481E+02  0.00000000000E+00 0.  1.
          1   -1    0    0  501    0  0.00000000000E+00 -0.00000000000E+00 -0.72226509907E+03  0.72226509907E+03  0.00000000000E+00 0. -1.
         25    2    1    2    0    0  0.61427524325E+02  0.75599748614E+02 -0.48691193354E+03  0.51207467189E+03  0.12509426778E+03 0.  0.
          5    1    3    3  502    0  0.10976777540E+02  0.25235128774E+02 -0.39355465827E+03  0.39453775842E+03  0.41800000000E+01 0. -1.
         -5    1    3    3    0  502  0.50450746785E+02  0.50364619839E+02 -0.93357275268E+02  0.11753691347E+03  0.41800000000E+01 0. -1.
        -11    1    1    2    0    0 -0.68200483287E+02 -0.48582727775E+02 -0.71954103676E+02  0.11040371549E+03  0.00000000000E+00 0.  1.
         11    1    1    2    0    0  0.67729589619E+01 -0.27017020839E+02 -0.13011903738E+03  0.13306673617E+03  0.00000000000E+00 0. -1.
</event>
<event>
 7    1  0.4527956E-009  0.1242671E+03  0.7561462E-02  0.1236219E+00
          2   -1    0    0  501    0  0.00000000000E+00  0.00000000000E+00  0.17125353890E+03  0.17125353890E+03  0.00000000000E+00 0. -1.
         -2   -1    0    0    0  501 -0.00000000000E+00 -0.00000000000E+00 -0.11760907525E+03  0.11760907525E+03  0.00000000000E+00 0.  1.
         25    2    1    2    0    0  0.33928367697E+02  0.75817599538E+02 -0.95785765943E+01  0.15045678351E+03  0.12508417981E+03 0.  0.
          5    1    3    3  502    0  0.79283636446E+01 -0.33699216321E+02 -0.14372243949E+02  0.37716441068E+02  0.41800000000E+01 0.  1.
         -5    1    3    3    0  502  0.26000004052E+02  0.10951681586E+03  0.47936673542E+01  0.11274034244E+03  0.41800000000E+01 0.  1.
        -11    1    1    2    0    0  0.82405775926E+01 -0.51890592566E+02 -0.70691730482E+01  0.53014280373E+02  0.00000000000E+00 0.  1.
         11    1    1    2    0    0 -0.42168945290E+02 -0.23927006972E+02  0.70292213290E+02  0.85391550277E+02  0.00000000000E+00 0. -1.
</event>
<event>
 7    1  0.3056346E-009  0.1007133E+03  0.7561462E-02  0.1278803E+00
          1   -1    0    0  501    0  0.00000000000E+00  0.00000000000E+00  0.24168458385E+02  0.24168458385E+02  0.00000000000E+00 0. -1.
         -1   -1    0    0    0  501 -0.00000000000E+00 -0.00000000000E+00 -0.62215131635E+03  0.62215131635E+03  0.00000000000E+00 0.  1.
         25    2    1    2    0    0 -0.47039890714E+02  0.30623497560E+02 -0.38832112350E+03  0.41181413566E+03  0.12508811875E+03 0.  0.
          5    1    3    3  502    0 -0.53203564671E+02 -0.24720331348E+02 -0.84807510213E+02  0.10320610575E+03  0.41800000000E+01 0.  1.
         -5    1    3    3    0  502  0.61636739566E+01  0.55343828908E+02 -0.30351361329E+03  0.30860802991E+03  0.41800000000E+01 0.  1.
        -11    1    1    2    0    0  0.16217100123E+02 -0.48498567161E+02 -0.18298084673E+03  0.18999235675E+03  0.00000000000E+00 0.  1.
         11    1    1    2    0    0  0.30822790591E+02  0.17875069600E+02 -0.26680887737E+02  0.44513282327E+02  0.00000000000E+00 0. -1.
</event>
<event>
 7    1  0.3056346E-009  0.1094856E+03  0.7561462E-02  0.1261526E+00
         -1   -1    0    0    0  501 -0.00000000000E+00  0.00000000000E+00  0.67191238603E+02  0.67191238603E+02  0.00000000000E+00 0.  1.
          1   -1    0    0  501    0  0.00000000000E+00 -0.00000000000E+00 -0.49474932475E+03  0.49474932475E+03  0.00000000000E+00 0. -1.
         25    2    1    2    0    0  0.62601844873E+02 -0.40575766573E+01 -0.37034666575E+02  0.14476616077E+03  0.12510083879E+03 0.  0.
          5    1    3    3  502    0  0.33719732002E+02  0.23461039255E+02 -0.77484956059E+02  0.87799951621E+02  0.41800000000E+01 0.  1.
         -5    1    3    3    0  502  0.28882112872E+02 -0.27518615912E+02  0.40450289484E+02  0.56966209151E+02  0.41800000000E+01 0.  1.
        -11    1    1    2    0    0 -0.98489636050E+02 -0.10064966269E+02 -0.20461406476E+03  0.22730690147E+03  0.00000000000E+00 0.  1.
         11    1    1    2    0    0  0.35887791177E+02  0.14122542927E+02 -0.18590935480E+03  0.18986750111E+03  0.00000000000E+00 0. -1.
</event>
<event>
 7    1  0.3056346E-009  0.1778507E+03  0.7561462E-02  0.1169900E+00
         -3   -1    0    0    0  501 -0.00000000000E+00  0.00000000000E+00  0.68025360513E+02  0.68025360513E+02  0.00000000000E+00 0.  1.
          3   -1    0    0  501    0  0.00000000000E+00 -0.00000000000E+00 -0.60155644305E+03  0.60155644305E+03  0.00000000000E+00 0. -1.
         25    2    1    2    0    0 -0.91108781525E+02 -0.12565957675E+03 -0.39742325484E+03  0.44461657652E+03  0.12509003689E+03 0.  0.
          5    1    3    3  502    0 -0.42103808241E+02  0.56238438686E+00 -0.20481697854E+03  0.20914232962E+03  0.41800000000E+01 0. -1.
         -5    1    3    3    0  502 -0.49004973284E+02 -0.12622196113E+03 -0.19260627630E+03  0.23547424689E+03  0.41800000000E+01 0. -1.
        -11    1    1    2    0    0  0.31632271875E+01  0.77669629246E+02 -0.46689854547E+02  0.90678111091E+02  0.00000000000E+00 0. -1.
         11    1    1    2    0    0  0.87945554338E+02  0.47989947501E+02 -0.89417973155E+02  0.13428711596E+03  0.00000000000E+00 0.  1.
</event>
<event>
 7    1  0.3056346E-009  0.8929489E+02  0.7561462E-02  0.1304568E+00
         -2   -1    0    0    0  501 -0.00000000000E+00  0.00000000000E+00  0.80486951921E+02  0.80486951921E+02  0.00000000000E+00 0.  1.
          2   -1    0    0  501    0  0.00000000000E+00 -0.00000000000E+00 -0.16152693832E+03  0.16152693832E+03  0.00000000000E+00 0. -1.
         25    2    1    2    0    0  0.22513362083E+02 -0.16094717265E+02 -0.21580728832E+02  0.12995067281E+03  0.12512217274E+03 0.  0.
          5    1    3    3  502    0 -0.25661661650E+02 -0.49960331971E+02 -0.38874530517E+02  0.68434327441E+02  0.41800000000E+01 0. -1.
         -5    1    3    3    0  502  0.48175023733E+02  0.33865614707E+02  0.17293801686E+02  0.61516345372E+02  0.41800000000E+01 0. -1.
        -11    1    1    2    0    0 -0.41538828589E+02  0.69194286448E+01 -0.74881127480E+02  0.85910046130E+02  0.00000000000E+00 0. -1.
         11    1    1    2    0    0  0.19025466506E+02  0.91752886198E+01  0.15421869918E+02  0.26153171295E+02  0.00000000000E+00 0.  1.
</event>
<event>
 7    1  0.3056346E-009  0.1054811E+03  0.7561462E-02  0.1269175E+00
         -2   -1    0    0    0  501 -0.00000000000E+00  0.00000000000E+00  0.17703042922E+03  0.17703042922E+03  0.00000000000E+00 0.  1.
          2   -1    0    0  501    0  0.00000000000E+00 -0.00000000000E+00 -0.75340102305E+02  0.75340102305E+02  0.00000000000E+00 0. -1.
         25    2    1    2    0    0 -0.30358915572E+02 -0.23619145355E+02  0.57497953511E+02  0.14294573044E+03  0.12509172399E+03 0.  0.
          5    1    3    3  502    0  0.42963011096E+02 -0.35812157814E+02  0.19642121196E+02  0.59427403568E+02  0.41800000000E+01 0. -1.
         -5    1    3    3    0  502 -0.73321926668E+02  0.12193012459E+02  0.37855832315E+02  0.83518326872E+02  0.41800000000E+01 0. -1.
        -11    1    1    2    0    0 -0.46221953246E+01 -0.22259944493E+02 -0.14627057569E+02  0.27033694375E+02  0.00000000000E+00 0. -1.
         11    1    1    2    0    0  0.34981110897E+02  0.45879089848E+02  0.58819430968E+02  0.82391106706E+02  0.00000000000E+00 0.  1.
</event>
<event>
 7    1  0.3056346E-009  0.2909037E+03  0.7561462E-02  0.1089878E+00
         -2   -1    0    0    0  501 -0.00000000000E+00  0.00000000000E+00  0.73327444569E+02  0.73327444569E+02  0.00000000000E+00 0.  1.
          2   -1    0    0  501    0  0.00000000000E+00 -0.00000000000E+00 -0.13024703509E+04  0.13024703509E+04  0.00000000000E+00 0. -1.
         25    2    1    2    0    0 -0.25171689771E+03  0.13749348207E+03 -0.70541439737E+03  0.77170114005E+03  0.12508926144E+03 0.  0.
          5    1    3    3  502    0 -0.54994904891E+02  0.61382600641E+02 -0.33890973607E+03  0.34881161796E+03  0.41800000000E+01 0. -1.
         -5    1    3    3    0  502 -0.19672199282E+03  0.76110881427E+02 -0.36650466130E+03  0.42288952208E+03  0.41800000000E+01 0. -1.
        -11    1    1    2    0    0  0.75654228632E+02 -0.26389325399E+02 -0.23391750010E+03  0.24725969275E+03  0.00000000000E+00 0.  1.
         11    1    1    2    0    0  0.17606266908E+03 -0.11110415667E+03 -0.28981100887E+03  0.35683696268E+03  0.00000000000E+00 0. -1.
</event>
<event>
 7    1  0.3056346E-009  0.9273069E+02  0.7561462E-02  0.1296370E+00
         -1   -1    0    0    0  501 -0.00000000000E+00  0.00000000000E+00  0.36209106800E+03  0.36209106800E+03  0.00000000000E+00 0.  1.
          1   -1    0    0  501    0  0.00000000000E+00 -0.00000000000E+00 -0.38355500508E+02  0.38355500508E+02  0.00000000000E+00 0. -1.
         25    2    1    2    0    0  0.49914150949E+01  0.48402968087E+02  0.18957618295E+03  0.23228209496E+03  0.12509228973E+03 0.  0.
          5    1    3    3  502    0  0.38051868006E+02 -0.22744370521E+02  0.27950704821E+02  0.52573428166E+02  0.41800000000E+01 0. -1.
         -5    1    3    3    0  502 -0.33060452911E+02  0.71147338608E+02  0.16162547813E+03  0.17970866679E+03  0.41800000000E+01 0. -1.
        -11    1    1    2    0    0  0.16856751299E+02 -0.15676185428E+02  0.12586189681E+03  0.12794963823E+03  0.00000000000E+00 0.  1.
         11    1    1    2    0    0 -0.21848166394E+02 -0.32726782659E+02  0.82974877333E+01  0.40214835330E+02  0.00000000000E+00 0. -1.
</event>
<event>
 7    1  0.3056346E-009  0.3275578E+03  0.7561462E-02  0.1072223E+00
         -1   -1    0    0    0  501 -0.00000000000E+00  0.00000000000E+00  0.48410895713E+03  0.48410895713E+03  0.00000000000E+00 0.  1.
          1   -1    0    0  501    0  0.00000000000E+00 -0.00000000000E+00 -0.24573805818E+03  0.24573805818E+03  0.00000000000E+00 0. -1.
         25    2    1    2    0    0 -0.27625426988E+03  0.17450405389E+03  0.14034786663E+03  0.37697964786E+03  0.12509214517E+03 0.  0.
          5    1    3    3  502    0 -0.17631517548E+03  0.11328287525E+03  0.15229648371E+03  0.25909793956E+03  0.41800000000E+01 0.  1.
         -5    1    3    3    0  502 -0.99939094392E+02  0.61221178634E+02 -0.11948617087E+02  0.11788170830E+03  0.41800000000E+01 0.  1.
        -11    1    1    2    0    0  0.99766080010E+02 -0.45690268137E+02  0.75535469734E+02  0.13321590938E+03  0.00000000000E+00 0. -1.
         11    1    1    2    0    0  0.17648818987E+03 -0.12881378575E+03  0.22487562595E+02  0.21965145807E+03  0.00000000000E+00 0.  1.
</event>
<event>
 7    1  0.3056346E-009  0.6022400E+02  0.7561462E-02  0.1396894E+00
          2   -1    0    0  501    0  0.00000000000E+00  0.00000000000E+00  0.16801845753E+03  0.16801845753E+03  0.00000000000E+00 0.  1.
         -2   -1    0    0    0  501 -0.00000000000E+00 -0.00000000000E+00 -0.91245237327E+02  0.91245237327E+02  0.00000000000E+00 0. -1.
         25    2    1    2    0    0 -0.31715262467E+02 -0.20782413207E+02 -0.65875564568E+01  0.13087719856E+03  0.12509068163E+03 0.  0.
          5    1    3    3  502    0  0.22808629072E+01  0.23736222386E+01 -0.61728529355E+02  0.61957405969E+02  0.41800000000E+01 0.  1.
         -5    1    3    3    0  502 -0.33996125374E+02 -0.23156035446E+02  0.55140972898E+02  0.68919792587E+02  0.41800000000E+01 0.  1.
        -11    1    1    2    0    0  0.16923102772E+01 -0.21697783189E+02  0.71898049943E+02  0.75119819588E+02  0.00000000000E+00 0.  1.
         11    1    1    2    0    0  0.30022952190E+02  0.42480196396E+02  0.11462726716E+02  0.53266676711E+02  0.00000000000E+00 0. -1.
</event>
<event>
 7    1  0.3056346E-009  0.1269238E+03  0.7561462E-02  0.1232093E+00
          2   -1    0    0  501    0  0.00000000000E+00  0.00000000000E+00  0.62737867284E+03  0.62737867284E+03  0.00000000000E+00 0. -1.
         -2   -1    0    0    0  501 -0.00000000000E+00 -0.00000000000E+00 -0.33110993117E+02  0.33110993117E+02  0.00000000000E+00 0.  1.
         25    2    1    2    0    0  0.44908581900E+02  0.65643024953E+02  0.20737985894E+03  0.25490889471E+03  0.12508537586E+03 0.  0.
          5    1    3    3  502    0 -0.18636000611E+01 -0.28233672703E+02  0.81855080381E+01  0.29750432288E+02  0.41800000000E+01 0.  1.
         -5    1    3    3    0  502  0.46772181961E+02  0.93876697656E+02  0.19919435090E+03  0.22515846242E+03  0.41800000000E+01 0.  1.
        -11    1    1    2    0    0  0.27915293933E+02 -0.19862003516E+02  0.14022128609E+03  0.14434601446E+03  0.00000000000E+00 0. -1.
         11    1    1    2    0    0 -0.72823875833E+02 -0.45781021437E+02  0.24666653470E+03  0.26123475679E+03  0.00000000000E+00 0.  1.
</event>
<event>
 7    1  0.3056346E-009  0.1580994E+03  0.7561462E-02  0.1190859E+00
         -2   -1    0    0    0  501 -0.00000000000E+00  0.00000000000E+00  0.26255629450E+02  0.26255629450E+02  0.00000000000E+00 0.  1.
          2   -1    0    0  501    0  0.00000000000E+00 -0.00000000000E+00 -0.11590523352E+04  0.11590523352E+04  0.00000000000E+00 0. -1.
         25    2    1    2    0    0 -0.98627015312E+02  0.81864632851E+02 -0.77397804963E+03  0.79442958377E+03  0.12508891234E+03 0.  0.
          5    1    3    3  502    0 -0.33506044472E+02 -0.32407164794E+02 -0.23554188116E+03  0.24014647515E+03  0.41800000000E+01 0. -1.
         -5    1    3    3    0  502 -0.65120970840E+02  0.11427179765E+03 -0.53843616847E+03  0.55428310861E+03  0.41800000000E+01 0. -1.
        -11    1    1    2    0    0  0.72356339035E+02 -0.27461301903E+02 -0.10787665877E+03  0.13276647320E+03  0.00000000000E+00 0.  1.
         11    1    1    2    0    0  0.26270676277E+02 -0.54403330948E+02 -0.25094199737E+03  0.25811190770E+03  0.00000000000E+00 0. -1.
</event>
<event>
 7    1  0.3056346E-009  0.1298294E+03  0.7561462E-02  0.1227709E+00
          1   -1    0    0  501    0  0.00000000000E+00  0.00000000000E+00  0.62373927012E+03  0.62373927012E+03  0.00000000000E+00 0. -1.
         -1   -1    0    0    0  501 -0.00000000000E+00 -0.00000000000E+00 -0.42616757605E+02  0.42616757605E+02  0.00000000000E+00 0.  1.
         25    2    1    2    0    0 -0.11892772007E+03 -0.18813856377E+02  0.27681481696E+03  0.32675888622E+03  0.12508862076E+03 0.  0.
          5    1    3    3  502    0 -0.61386792858E+02 -0.32285483406E+02  0.35018600522E+02  0.77810446333E+02  0.41800000000E+01 0. -1.
         -5    1    3    3    0  502 -0.57540927212E+02  0.13471627029E+02  0.24179621643E+03  0.24894843988E+03  0.41800000000E+01 0. -1.
        -11    1    1    2    0    0  0.55966725085E+02 -0.17004253133E+02  0.22371615328E+03  0.23123653730E+03  0.00000000000E+00 0. -1.
         11    1    1    2    0    0  0.62960994985E+02  0.35818109510E+02  0.80591542277E+02  0.10836060421E+03  0.00000000000E+00 0.  1.
</event>
<event>
 7    1  0.3056346E-009  0.1276239E+03  0.7561462E-02  0.1231025E+00
         -4   -1    0    0    0  501 -0.00000000000E+00  0.00000000000E+00  0.37806296946E+03  0.37806296946E+03  0.00000000000E+00 0.  1.
          4   -1    0    0  501    0  0.00000000000E+00 -0.00000000000E+00 -0.53403637462E+02  0.53403637462E+02  0.00000000000E+00 0. -1.
         25    2    1    2    0    0  0.28305306006E+02 -0.59706018825E+02  0.27042644842E+03  0.30518712953E+03  0.12507086389E+03 0.  0.
          5    1    3    3  502    0 -0.32111606448E+02  0.22310682344E+02  0.68617823786E+02  0.79087293267E+02  0.41800000000E+01 0.  1.
         -5    1    3    3    0  502  0.60416912453E+02 -0.82016701169E+02  0.20180862464E+03  0.22609983626E+03  0.41800000000E+01 0.  1.
        -11    1    1    2    0    0 -0.62691341826E+02  0.38173398849E+02  0.32795847915E+02  0.80392663596E+02  0.00000000000E+00 0. -1.
         11    1    1    2    0    0  0.34386035820E+02  0.21532619977E+02  0.21437035667E+02  0.45886813799E+02  0.00000000000E+00 0.  1.
</event>
<event>
 7    1  0.3056346E-009  0.4091950E+03  0.7561462E-02  0.1040641E+00
          2   -1    0    0  501    0  0.00000000000E+00  0.00000000000E+00  0.29681710792E+03  0.29681710792E+03  0.00000000000E+00 0. -1.
         -2   -1    0    0    0  501 -0.00000000000E+00 -0.00000000000E+00 -0.58921241366E+03  0.58921241366E+03  0.00000000000E+00 0.  1.
         25    2    1    2    0    0 -0.38631515033E+03 -0.88343621499E+02 -0.66604275893E+02  0.42086764418E+03  0.12509777580E+03 0.  0.
          5    1    3    3  502    0 -0.63334592846E+02 -0.65070626515E+02 -0.25602824774E+02  0.94437461435E+02  0.41800000000E+01 0. -1.
         -5    1    3    3    0  502 -0.32298055749E+03 -0.23272994984E+02 -0.41001451119E+02  0.32643018274E+03  0.41800000000E+01 0. -1.
        -11    1    1    2    0    0  0.76792972680E+02  0.50283305086E+02 -0.76142345959E+02  0.11926117672E+03  0.00000000000E+00 0. -1.
         11    1    1    2    0    0  0.30952217765E+03  0.38060316413E+02 -0.14964868389E+03  0.34590070069E+03  0.00000000000E+00 0.  1.
</event>
<event>
 7    1  0.3056346E-009  0.1057233E+03  0.7561462E-02  0.1268701E+00
          1   -1    0    0  501    0  0.00000000000E+00  0.00000000000E+00  0.12786808455E+03  0.12786808455E+03  0.00000000000E+00 0. -1.
         -1   -1    0    0    0  501 -0.00000000000E+00 -0.00000000000E+00 -0.10001191617E+03  0.10001191617E+03  0.00000000000E+00 0.  1.
         25    2    1    2    0    0 -0.18610351299E+01  0.30688731148E+02  0.40397465513E+02  0.13500553086E+03  0.12509706819E+03 0.  0.
          5    1    3    3  502    0  0.29584825021E+02  0.66561785521E+02  0.46817859623E+02  0.86689777615E+02  0.41800000000E+01 0. -1.
         -5    1    3    3    0  502 -0.31445860151E+02 -0.35873054373E+02 -0.64203941103E+01  0.48315753241E+02  0.41800000000E+01 0. -1.
        -11    1    1    2    0    0 -0.40392025338E+02 -0.26115443075E+02 -0.14771111971E+02  0.50316178579E+02  0.00000000000E+00 0.  1.
         11    1    1    2    0    0  0.42253060468E+02 -0.45732880737E+01  0.22298148353E+01  0.42558291283E+02  0.00000000000E+00 0. -1.
</event>
<event>
 7    1  0.3056346E-009  0.1039735E+03  0.7561462E-02  0.1272155E+00
          1   -1    0    0  501    0  0.00000000000E+00  0.00000000000E+00  0.95379045712E+02  0.95379045712E+02  0.00000000000E+00 0. -1.
         -1   -1    0    0    0  501 -0.00000000000E+00 -0.00000000000E+00 -0.16852979230E+03  0.16852979230E+03  0.00000000000E+00 0.  1.
         25    2    1    2    0    0 -0.17571881688E+02 -0.60681563139E+02 -0.60426599983E+02  0.15261050363E+03  0.12509024223E+03 0.  0.
          5    1    3    3  502    0 -0.38147413021E+02 -0.70286672522E+02  0.79181103603E+01  0.80471176990E+02  0.41800000000E+01 0. -1.
         -5    1    3    3    0  502  0.20575531333E+02  0.96051093828E+01 -0.68344710344E+02  0.72139326638E+02  0.41800000000E+01 0. -1.
        -11    1    1    2    0    0  0.48211694282E+02  0.55814513085E+02 -0.25084314336E+02  0.77902825123E+02  0.00000000000E+00 0.  1.
         11    1    1    2    0    0 -0.30639812593E+02  0.48670500540E+01  0.12360167736E+02  0.33395509255E+02  0.00000000000E+00 0. -1.
</event>
<event>
 7    1  0.3056346E-009  0.1386316E+03  0.7561462E-02  0.1215182E+00
          1   -1    0    0  501    0  0.00000000000E+00  0.00000000000E+00  0.19506915807E+02  0.19506915807E+02  0.00000000000E+00 0. -1.
         -1   -1    0    0    0  501 -0.00000000000E+00 -0.00000000000E+00 -0.10150972731E+04  0.10150972731E+04  0.00000000000E+00 0.  1.
         25    2    1    2    0    0  0.12637185785E+02  0.86980201045E+02 -0.61380600344E+03  0.63256072912E+03  0.12510000933E+03 0.  0.
          5    1    3    3  502    0  0.56058577503E+02  0.92834993975E+02 -0.41676978378E+03  0.43066857940E+03  0.41800000000E+01 0. -1.
         -5    1    3    3    0  502 -0.43421391718E+02 -0.58547929301E+01 -0.19703621966E+03  0.20189214972E+03  0.41800000000E+01 0. -1.
        -11    1    1    2    0    0  0.28571007812E+02 -0.77272664772E+02 -0.27817024813E+03  0.29011386411E+03  0.00000000000E+00 0.  1.
         11    1    1    2    0    0 -0.41208193597E+02 -0.97075362730E+01 -0.10361410568E+03  0.11192959562E+03  0.00000000000E+00 0. -1.
</event>
<event>
 7    1  0.3056346E-009  0.1294584E+03  0.7561462E-02  0.1228262E+00
         -2   -1    0    0    0  501 -0.00000000000E+00  0.00000000000E+00  0.16169180163E+03  0.16169180163E+03  0.00000000000E+00 0.  1.
          2   -1    0    0  501    0  0.00000000000E+00 -0.00000000000E+00 -0.16039898849E+03  0.16039898849E+03  0.00000000000E+00 0. -1.
         25    2    1    2    0    0 -0.77474049989E+02 -0.56526389553E+02  0.71952018867E+02  0.17325900186E+03  0.12507648687E+03 0.  0.
          5    1    3    3  502    0  0.22771830081E+02 -0.39088733950E+02 -0.48764786836E+01  0.45691769624E+02  0.41800000000E+01 0. -1.
         -5    1    3    3    0  502 -0.10024588007E+03 -0.17437655603E+02  0.76828497550E+02  0.12756723223E+03  0.41800000000E+01 0. -1.
        -11    1    1    2    0    0  0.43189629093E+02  0.63369808315E+02 -0.81812111047E+02  0.11213517816E+03  0.00000000000E+00 0.  1.
         11    1    1    2    0    0  0.34284420896E+02 -0.68434187626E+01  0.11152905321E+02  0.36696610111E+02  0.00000000000E+00 0. -1.
</event>
<event>
 7    1  0.3056346E-009  0.1093152E+03  0.7561462E-02  0.1261843E+00
         -4   -1    0    0    0  501 -0.00000000000E+00  0.00000000000E+00  0.12463789593E+03  0.12463789593E+03  0.00000000000E+00 0. -1.
          4   -1    0    0  501    0  0.00000000000E+00 -0.00000000000E+00 -0.12529731973E+03  0.12529731973E+03  0.00000000000E+00 0.  1.
         25    2    1    2    0    0  0.56222929224E+02 -0.82801947929E+01  0.19270341863E+02  0.13873541040E+03  0.12508632470E+03 0.  0.
          5    1    3    3  502    0 -0.26759791355E+02  0.34559889962E+02  0.60383917771E+01  0.44321631319E+02  0.41800000000E+01 0. -1.
         -5    1    3    3    0  502  0.82982720578E+02 -0.42840084755E+02  0.13231950086E+02  0.94413779076E+02  0.41800000000E+01 0. -1.
        -11    1    1    2    0    0 -0.27968222917E+02 -0.25049294299E+02 -0.46727285623E+02  0.59942704808E+02  0.00000000000E+00 0.  1.
         11    1    1    2    0    0 -0.28254706307E+02  0.33329489092E+02  0.26797519956E+02  0.51257100458E+02  0.00000000000E+00 0. -1.
</event>
<event>
 6    1  0.3056346E-009  0.1727312E+03  0.7561462E-02  0.1175029E+00
         -1   -1    0    0    0  501 -0.00000000000E+00  0.00000000000E+00  0.18325490657E+02  0.18325490657E+02  0.00000000000E+00 0.  1.
          1   -1    0    0  501    0  0.00000000000E+00 -0.00000000000E+00 -0.25167785138E+04  0.25167785138E+04  0.00000000000E+00 0. -1.
          5    1    1    2  502    0  0.66736236112E+02  0.60893218959E+02 -0.13731646092E+04  0.13761396098E+04  0.41800000000E+01 0. -1.
         -5    1    1    2    0  502  0.75667210687E+02  0.34604122775E+02 -0.33638012673E+03  0.34654297590E+03  0.41800000000E+01 0. -1.
        -11    1    1    2    0    0 -0.17550077519E+02 -0.82170881443E+01 -0.17484909384E+02  0.26100724409E+02  0.00000000000E+00 0.  1.
         11    1    1    2    0    0 -0.12485336928E+03 -0.87280253590E+02 -0.77142337784E+03  0.78632069435E+03  0.00000000000E+00 0. -1.
</event>
<event>
 7    1  0.3056346E-009  0.1520720E+03  0.7561462E-02  0.1197950E+00
          1   -1    0    0  501    0  0.00000000000E+00  0.00000000000E+00  0.94926813889E+03  0.94926813889E+03  0.00000000000E+00 0. -1.
         -1   -1    0    0    0  501 -0.00000000000E+00 -0.00000000000E+00 -0.28541192895E+02  0.28541192895E+02  0.00000000000E+00 0.  1.
         25    2    1    2    0    0  0.62496877941E+02  0.10603386031E+03  0.54373914371E+03  0.57135816847E+03  0.12509540752E+03 0.  0.
          5    1    3    3  502    0  0.34893454082E+02 -0.22872548976E+02  0.10008869734E+03  0.10851694048E+03  0.41800000000E+01 0.  1.
         -5    1    3    3    0  502  0.27603423859E+02  0.12890640929E+03  0.44365044637E+03  0.46284122799E+03  0.41800000000E+01 0.  1.
        -11    1    1    2    0    0  0.67888305414E+00 -0.35975712126E+02  0.29936891733E+02  0.46807373690E+02  0.00000000000E+00 0.  1.
         11    1    1    2    0    0 -0.63175760995E+02 -0.70058148187E+02  0.34705091055E+03  0.35964378963E+03  0.00000000000E+00 0. -1.
</event>
<event>
 7    1  0.3056346E-009  0.9867923E+02  0.7561462E-02  0.1283098E+00
         -1   -1    0    0    0  501 -0.00000000000E+00  0.00000000000E+00  0.13845223046E+03  0.13845223046E+03  0.00000000000E+00 0.  1.
          1   -1    0    0  501    0  0.00000000000E+00 -0.00000000000E+00 -0.10141660370E+03  0.10141660370E+03  0.00000000000E+00 0. -1.
         25    2    1    2    0    0  0.19918055715E+02  0.33680200492E+02 -0.74007850943E+01  0.13129375621E+03  0.12510872852E+03 0.  0.
          5    1    3    3  502    0  0.63188929220E+02 -0.40423308647E+01  0.21355217828E+02  0.66952960676E+02  0.41800000000E+01 0. -1.
         -5    1    3    3    0  502 -0.43270873505E+02  0.37722531357E+02 -0.28756002922E+02  0.64340795534E+02  0.41800000000E+01 0. -1.
        -11    1    1    2    0    0 -0.40989424276E+02 -0.57994196917E+01  0.57854435424E+02  0.71140015951E+02  0.00000000000E+00 0.  1.
         11    1    1    2    0    0  0.21071368561E+02 -0.27880780800E+02 -0.13418023568E+02  0.37435062008E+02  0.00000000000E+00 0. -1.
</event>
<event>
 7    1  0.3056346E-009  0.9213364E+02  0.7561462E-02  0.1297766E+00
          2   -1    0    0  501    0  0.00000000000E+00  0.00000000000E+00  0.10362628766E+03  0.10362628766E+03  0.00000000000E+00 0.  1.
         -2   -1    0    0    0  501 -0.00000000000E+00 -0.00000000000E+00 -0.20561853189E+03  0.20561853189E+03  0.00000000000E+00 0. -1.
         25    2    1    2    0    0  0.35298052122E+02 -0.67160304423E+02  0.10071011015E+02  0.14664243747E+03  0.12508445240E+03 0.  0.
          5    1    3    3  502    0  0.37224363367E+02 -0.52351872501E+01  0.57278644948E+02  0.68639463727E+02  0.41800000000E+01 0. -1.
         -5    1    3    3    0  502 -0.19263112453E+01 -0.61925117173E+02 -0.47207633934E+02  0.78002973748E+02  0.41800000000E+01 0. -1.
        -11    1    1    2    0    0 -0.37272915853E+02  0.31976370693E+02 -0.11712251896E+03  0.12700174403E+03  0.00000000000E+00 0. -1.
         11    1    1    2    0    0  0.19748637310E+01  0.35183933730E+02  0.50592637240E+01  0.35600638041E+02  0.00000000000E+00 0.  1.
</event>
<event>
 7    1  0.3056346E-009  0.1366808E+03  0.7561462E-02  0.1217866E+00
          2   -1    0    0  501    0  0.00000000000E+00  0.00000000000E+00  0.33004820278E+03  0.33004820278E+03  0.00000000000E+00 0. -1.
         -2   -1    0    0    0  501 -0.00000000000E+00 -0.00000000000E+00 -0.62457350643E+02  0.62457350643E+02  0.00000000000E+00 0.  1.
         25    2    1    2    0    0  0.47057618539E+02 -0.64482546329E+02  0.11347989442E+03  0.18681039182E+03  0.12509203736E+03 0.  0.
          5    1    3    3  502    0 -0.31375480220E+02 -0.55984561535E+02  0.75419892482E+02  0.99117730358E+02  0.41800000000E+01 0.  1.
         -5    1    3    3    0  502  0.78433098759E+02 -0.84979847939E+01  0.38060001938E+02  0.87692661460E+02  0.41800000000E+01 0.  1.
        -11    1    1    2    0    0 -0.20293551446E+02 -0.27540528924E+02  0.16448422202E+02  0.37958655885E+02  0.00000000000E+00 0.  1.
         11    1    1    2    0    0 -0.26764067093E+02  0.92023075253E+02  0.13766253552E+03  0.16773650572E+03  0.00000000000E+00 0. -1.
</event>
<event>
 7    1  0.3056346E-009  0.2390800E+03  0.7561462E-02  0.1120407E+00
         -2   -1    0    0    0  501 -0.00000000000E+00  0.00000000000E+00  0.77798594443E+02  0.77798594443E+02  0.00000000000E+00 0.  1.
          2   -1    0    0  501    0  0.00000000000E+00 -0.00000000000E+00 -0.91282500037E+03  0.91282500037E+03  0.00000000000E+00 0. -1.
         25    2    1    2    0    0  0.16897880613E+03 -0.13921999533E+03 -0.62044525590E+03  0.66972806872E+03  0.12508927389E+03 0.  0.
          5    1    3    3  502    0 -0.67800090259E+01 -0.55998206477E+02 -0.11526585673E+03  0.12839570779E+03  0.41800000000E+01 0. -1.
         -5    1    3    3    0  502  0.17575881516E+03 -0.83221788855E+02 -0.50517939917E+03  0.54133236093E+03  0.41800000000E+01 0. -1.
        -11    1    1    2    0    0 -0.63945678074E+02  0.91725375600E+02 -0.56582746341E+02  0.12531640538E+03  0.00000000000E+00 0. -1.
         11    1    1    2    0    0 -0.10503312806E+03  0.47494619732E+02 -0.15799840369E+03  0.19557912072E+03  0.00000000000E+00 0.  1.
</event>
<event>
 7    1  0.3056346E-009  0.1078114E+03  0.7561462E-02  0.1264677E+00
         -2   -1    0    0    0  501 -0.00000000000E+00  0.00000000000E+00  0.30734534596E+02  0.30734534596E+02  0.00000000000E+00 0.  1.
          2   -1    0    0  501    0  0.00000000000E+00 -0.00000000000E+00 -0.57496516831E+03  0.57496516831E+03  0.00000000000E+00 0. -1.
         25    2    1    2    0    0 -0.52338320669E+02 -0.55753661499E+02 -0.28464880681E+03  0.32018849355E+03  0.12509179670E+03 0.  0.
          5    1    3    3  502    0 -0.29637491748E+02 -0.70926200205E+02 -0.28213794772E+03  0.29245204861E+03  0.41800000000E+01 0.  1.
         -5    1    3    3    0  502 -0.22700828921E+02  0.15172538706E+02 -0.25108590884E+01  0.27736444939E+02  0.41800000000E+01 0.  1.
        -11    1    1    2    0    0  0.45895360563E+02  0.76545362812E+02 -0.15653935773E+03  0.18019474800E+03  0.00000000000E+00 0.  1.
         11    1    1    2    0    0  0.64429601061E+01 -0.20791701314E+02 -0.10304246918E+03  0.10531646135E+03  0.00000000000E+00 0. -1.
</event>
<event>
 7    1  0.3056346E-009  0.1238575E+03  0.7561462E-02  0.1236866E+00
         -1   -1    0    0    0  501 -0.00000000000E+00  0.00000000000E+00  0.93595691547E+02  0.93595691547E+02  0.00000000000E+00 0.  1.
          1   -1    0    0  501    0  0.00000000000E+00 -0.00000000000E+00 -0.19913272535E+03  0.19913272535E+03  0.00000000000E+00 0. -1.
         25    2    1    2    0    0 -0.77763677604E+02 -0.76221928325E+01 -0.77613864142E+02  0.16666284494E+03  0.12508918657E+03 0.  0.
          5    1    3    3  502    0 -0.73072940420E+01 -0.54017072835E+02 -0.58490749805E+02  0.80061731911E+02  0.41800000000E+01 0.  1.
         -5    1    3    3    0  502 -0.70456383562E+02  0.46394880003E+02 -0.19123114337E+02  0.86601113024E+02  0.41800000000E+01 0.  1.
        -11    1    1    2    0    0  0.34259714971E+01  0.30587042076E+02 -0.36551995380E+02  0.47784440877E+02  0.00000000000E+00 0.  1.
         11    1    1    2    0    0  0.74337706107E+02 -0.22964849243E+02  0.86288257233E+01  0.78281131081E+02  0.00000000000E+00 0. -1.
</event>
<event>
 7    1  0.3056346E-009  0.1271051E+03  0.7561462E-02  0.1231815E+00
         -1   -1    0    0    0  501 -0.00000000000E+00  0.00000000000E+00  0.38027828932E+03  0.38027828932E+03  0.00000000000E+00 0.  1.
          1   -1    0    0  501    0  0.00000000000E+00 -0.00000000000E+00 -0.52819874982E+02  0.52819874982E+02  0.00000000000E+00 0. -1.
         25    2    1    2    0    0 -0.90025329835E+02  0.87949138773E+01  0.16076757526E+03  0.22288111052E+03  0.12509142916E+03 0.  0.
          5    1    3    3  502    0 -0.10734081322E+03  0.14461917824E+02  0.17032316476E+03  0.20188771657E+03  0.41800000000E+01 0.  1.
         -5    1    3    3    0  502  0.17315483389E+02 -0.56670039471E+01 -0.95555894979E+01  0.20993393946E+02  0.41800000000E+01 0.  1.
        -11    1    1    2    0    0  0.48759648590E+02  0.40110351511E+02  0.95620354228E+02  0.11458444821E+03  0.00000000000E+00 0.  1.
         11    1    1    2    0    0  0.41265681245E+02 -0.48905265389E+02  0.71070484852E+02  0.95632605572E+02  0.00000000000E+00 0. -1.
</event>
<event>
 7    1  0.3056346E-009  0.9602996E+02  0.7561462E-02  0.1288873E+00
         -1   -1    0    0    0  501 -0.00000000000E+00  0.00000000000E+00  0.70208458471E+03  0.70208458471E+03  0.00000000000E+00 0.  1.
          1   -1    0    0  501    0  0.00000000000E+00 -0.00000000000E+00 -0.31617460417E+02  0.31617460417E+02  0.00000000000E+00 0. -1.
         25    2    1    2    0    0  0.71116995264E+02 -0.88167359477E+01  0.50873328290E+03  0.52876400739E+03  0.12508581267E+03 0.  0.
          5    1    3    3  502    0  0.68209473237E+02  0.16503012134E+02  0.49410713591E+03  0.49908337561E+03  0.41800000000E+01 0.  1.
         -5    1    3    3    0  502  0.29075220273E+01 -0.25319748082E+02  0.14626146990E+02  0.29680631783E+02  0.41800000000E+01 0.  1.
        -11    1    1    2    0    0 -0.10597165328E+02  0.29995819151E+02  0.12915902159E+03  0.13301917883E+03  0.00000000000E+00 0.  1.
         11    1    1    2    0    0 -0.60519829936E+02 -0.21179083203E+02  0.32574819803E+02  0.71918858904E+02  0.00000000000E+00 0. -1.
</event>
<event>
 7    1  0.3056346E-009  0.5833990E+02  0.7561462E-02  0.1404933E+00
          2   -1    0    0  501    0  0.00000000000E+00  0.00000000000E+00  0.61493330133E+03  0.61493330133E+03  0.00000000000E+00 0. -1.
         -2   -1    0    0    0  501 -0.00000000000E+00 -0.00000000000E+00 -0.20610856410E+02  0.20610856410E+02  0.00000000000E+00 0.  1.
         25    2    1    2    0    0 -0.72030901094E+01 -0.27830595294E+02  0.36925480471E+03  0.39092649592E+03  0.12509191768E+03 0.  0.
          5    1    3    3  502    0 -0.20681350874E+02 -0.78002566877E+01  0.36543709431E+03  0.36612880872E+03  0.41800000000E+01 0. -1.
         -5    1    3    3    0  502  0.13478260765E+02 -0.20030338606E+02  0.38177104074E+01  0.24797687205E+02  0.41800000000E+01 0. -1.
        -11    1    1    2    0    0  0.15064764412E+02 -0.17834531635E+02  0.11394429728E+02  0.25977888180E+02  0.00000000000E+00 0.  1.
         11    1    1    2    0    0 -0.78616743029E+01  0.45665126929E+02  0.21367321048E+03  0.21863977364E+03  0.00000000000E+00 0. -1.
</event>
<event>
 7    1  0.3056346E-009  0.1120374E+03  0.7561462E-02  0.1256843E+00
         -2   -1    0    0    0  501 -0.00000000000E+00  0.00000000000E+00  0.36593573816E+02  0.36593573816E+02  0.00000000000E+00 0.  1.
          2   -1    0    0  501    0  0.00000000000E+00 -0.00000000000E+00 -0.45747956543E+03  0.45747956543E+03  0.00000000000E+00 0. -1.
         25    2    1    2    0    0 -0.84125370369E+01  0.50183984222E+02 -0.32534068434E+03  0.35225561530E+03  0.12509298371E+03 0.  0.
          5    1    3    3  502    0 -0.55197347059E+02  0.56776998498E+02 -0.13954661975E+03  0.16050266716E+03  0.41800000000E+01 0.  1.
         -5    1    3    3    0  502  0.46784810022E+02 -0.65930142763E+01 -0.18579406459E+03  0.19175294815E+03  0.41800000000E+01 0.  1.
        -11    1    1    2    0    0  0.16581383999E+02 -0.72087531395E+02 -0.92195696182E+02  0.11820152652E+03  0.00000000000E+00 0.  1.
         11    1    1    2    0    0 -0.81688469625E+01  0.21903547173E+02 -0.33496110878E+01  0.23615997415E+02  0.00000000000E+00 0. -1.
</event>
<event>
 7    1  0.3056346E-009  0.9959351E+02  0.7561462E-02  0.1281153E+00
         -1   -1    0    0    0  501 -0.00000000000E+00  0.00000000000E+00  0.64697688018E+02  0.64697688018E+02  0.00000000000E+00 0.  1.
          1   -1    0    0  501    0  0.00000000000E+00 -0.00000000000E+00 -0.85897441235E+03  0.85897441235E+03  0.00000000000E+00 0. -1.
         25    2    1    2    0    0 -0.40856297340E+02 -0.81662922332E+01 -0.81116592895E+03  0.82181148207E+03  0.12509205576E+03 0.  0.
          5    1    3    3  502    0 -0.69823566671E+02  0.83145338882E+01 -0.73741807327E+03  0.74077483025E+03  0.41800000000E+01 0. -1.
         -5    1    3    3    0  502  0.28967269330E+02 -0.16480826121E+02 -0.73747855680E+02  0.81036651828E+02  0.41800000000E+01 0. -1.
        -11    1    1    2    0    0  0.67540012195E+02  0.10584550251E+02 -0.30967691639E+01  0.68434464494E+02  0.00000000000E+00 0.  1.
         11    1    1    2    0    0 -0.26683714855E+02 -0.24182580177E+01  0.19985973780E+02  0.33426153805E+02  0.00000000000E+00 0. -1.
</event>
<event>
 7    1  0.3056346E-009  0.8681573E+02  0.7561462E-02  0.1310751E+00
         -3   -1    0    0    0  501 -0.00000000000E+00  0.00000000000E+00  0.13576365421E+04  0.13576365421E+04  0.00000000000E+00 0.  1.
          3   -1    0    0  501    0  0.00000000000E+00 -0.00000000000E+00 -0.10733785846E+02  0.10733785846E+02  0.00000000000E+00 0. -1.
         25    2    1    2    0    0  0.90836811431E+01  0.35616153244E+02  0.99847889591E+03  0.10069527743E+04  0.12507102151E+03 0.  0.
          5    1    3    3  502    0 -0.36771538016E+02  0.10531027486E+02  0.10320098988E+03  0.11014066124E+03  0.41800000000E+01 0. -1.
         -5    1    3    3    0  502  0.45855219159E+02  0.25085125758E+02  0.89527790603E+03  0.89681211304E+03  0.41800000000E+01 0. -1.
        -11    1    1    2    0    0  0.10398960068E+02 -0.54561421564E+02  0.30625287645E+03  0.31124895409E+03  0.00000000000E+00 0.  1.
         11    1    1    2    0    0 -0.19482641211E+02  0.18945268320E+02  0.42170983924E+02  0.50168599596E+02  0.00000000000E+00 0. -1.
</event>
<event>
 7    1  0.3056346E-009  0.9942576E+02  0.7561462E-02  0.1281508E+00
         -1   -1    0    0    0  501 -0.00000000000E+00  0.00000000000E+00  0.54499167992E+03  0.54499167992E+03  0.00000000000E+00 0.  1.
          1   -1    0    0  501    0  0.00000000000E+00 -0.00000000000E+00 -0.25897614867E+02  0.25897614867E+02  0.00000000000E+00 0. -1.
         25    2    1    2    0    0  0.30059924527E+02 -0.15143778194E+02  0.37764386460E+03  0.39924342271E+03  0.12508992376E+03 0.  0.
          5    1    3    3  502    0 -0.32099610715E+01  0.52839423600E+02  0.13646102703E+03  0.14642879783E+03  0.41800000000E+01 0.  1.
         -5    1    3    3    0  502  0.33269885598E+02 -0.67983201793E+02  0.24118283757E+03  0.25281462488E+03  0.41800000000E+01 0.  1.
        -11    1    1    2    0    0 -0.11891102394E+02 -0.24004379158E+02  0.33958977376E+01  0.27002604622E+02  0.00000000000E+00 0. -1.
         11    1    1    2    0    0 -0.18168822133E+02  0.39148157352E+02  0.13805430271E+03  0.14464326745E+03  0.00000000000E+00 0.  1.
</event>
<event>
 7    1  0.3056346E-009  0.1518089E+03  0.7561462E-02  0.1198268E+00
          2   -1    0    0  501    0  0.00000000000E+00  0.00000000000E+00  0.23767227758E+04  0.23767227758E+04  0.00000000000E+00 0. -1.
         -2   -1    0    0    0  501 -0.00000000000E+00 -0.00000000000E+00 -0.13499810252E+02  0.13499810252E+02  0.00000000000E+00 0.  1.
         25    2    1    2    0    0 -0.61881476534E+02  0.11977835848E+03  0.15439772863E+04  0.15548922174E+04  0.12509106576E+03 0.  0.
          5    1    3    3  502    0 -0.67435102299E+02  0.87059423220E+02  0.58246346727E+03  0.59279676053E+03  0.41800000000E+01 0. -1.
         -5    1    3    3    0  502  0.55536257646E+01  0.32718935258E+02  0.96151381907E+03  0.96209545688E+03  0.41800000000E+01 0. -1.
        -11    1    1    2    0    0  0.58549537420E+02 -0.22643769185E+02  0.24481083497E+03  0.25273134656E+03  0.00000000000E+00 0. -1.
         11    1    1    2    0    0  0.33319391144E+01 -0.97134589293E+02  0.57443484426E+03  0.58259902210E+03  0.00000000000E+00 0.  1.
</event>
<event>
 7    1  0.3056346E-009  0.1771786E+03  0.7561462E-02  0.1170562E+00
          2   -1    0    0  501    0  0.00000000000E+00  0.00000000000E+00  0.10625451883E+04  0.10625451883E+04  0.00000000000E+00 0. -1.
         -2   -1    0    0    0  501 -0.00000000000E+00 -0.00000000000E+00 -0.32696044109E+02  0.32696044109E+02  0.00000000000E+00 0.  1.
         25    2    1    2    0    0 -0.24183682684E+02 -0.14436062420E+03  0.46984891579E+03  0.50776964587E+03  0.12508864567E+03 0.  0.
          5    1    3    3  502    0 -0.68929875035E+02 -0.50114412969E+02  0.25492914387E+03  0.26882917039E+03  0.41800000000E+01 0. -1.
         -5    1    3    3    0  502  0.44746192351E+02 -0.94246211231E+02  0.21491977192E+03  0.23894047548E+03  0.41800000000E+01 0. -1.
        -11    1    1    2    0    0 -0.22478447932E+02  0.14801432057E+02  0.32019742934E+02  0.41828542288E+02  0.00000000000E+00 0.  1.
         11    1    1    2    0    0  0.46662130616E+02  0.12955919214E+03  0.52798048552E+03  0.54564304430E+03  0.00000000000E+00 0. -1.
</event>
<event>
 7    1  0.3056346E-009  0.1126970E+03  0.7561462E-02  0.1255655E+00
          4   -1    0    0  501    0  0.00000000000E+00  0.00000000000E+00  0.19375044159E+03  0.19375044159E+03  0.00000000000E+00 0. -1.
         -4   -1    0    0    0  501 -0.00000000000E+00 -0.00000000000E+00 -0.76355130521E+02  0.76355130521E+02  0.00000000000E+00 0.  1.
         25    2    1    2    0    0 -0.25375182617E+02 -0.14054905810E+02  0.27356057507E+02  0.13129456876E+03  0.12509384331E+03 0.  0.
          5    1    3    3  502    0 -0.16594625725E+02 -0.66308078628E+02 -0.56766170705E+01  0.68715640692E+02  0.41800000000E+01 0. -1.
         -5    1    3    3    0  502 -0.87805568915E+01  0.52253172818E+02  0.33032674578E+02  0.62578928072E+02  0.41800000000E+01 0. -1.
        -11    1    1    2    0    0 -0.37675316766E+02  0.15392091487E+02  0.22902995786E+02  0.46700034151E+02  0.00000000000E+00 0.  1.
         11    1    1    2    0    0  0.63050499383E+02 -0.13371856774E+01  0.67136257777E+02  0.92110969196E+02  0.00000000000E+00 0. -1.
</event>
<event>
 7    1  0.3056346E-009  0.9171558E+02  0.7561462E-02  0.1298750E+00
         -1   -1    0    0    0  501 -0.00000000000E+00  0.00000000000E+00  0.15021865060E+03  0.15021865060E+03  0.00000000000E+00 0.  1.
          1   -1    0    0  501    0  0.00000000000E+00 -0.00000000000E+00 -0.11375520857E+03  0.11375520857E+03  0.00000000000E+00 0. -1.
         25    2    1    2    0    0 -0.59421636477E+02 -0.42280671805E+02  0.44418909912E+01  0.14486684165E+03  0.12509230721E+03 0.  0.
          5    1    3    3  502    0 -0.43995026607E+02 -0.21505833079E+02 -0.58665650833E+02  0.76532308277E+02  0.41800000000E+01 0.  1.
         -5    1    3    3    0  502 -0.15426609870E+02 -0.20774838726E+02  0.63107541824E+02  0.68334533373E+02  0.41800000000E+01 0.  1.
        -11    1    1    2    0    0  0.66370353929E+02  0.11730638920E+01 -0.25676988674E+00  0.66381216397E+02  0.00000000000E+00 0.  1.
         11    1    1    2    0    0 -0.69487174518E+01  0.41107607913E+02  0.32278320926E+02  0.52725801126E+02  0.00000000000E+00 0. -1.
</event>
<event>
 7    1  0.3056346E-009  0.1107465E+03  0.7561462E-02  0.1259194E+00
         -2   -1    0    0    0  501 -0.00000000000E+00  0.00000000000E+00  0.69359341112E+03  0.69359341112E+03  0.00000000000E+00 0.  1.
          2   -1    0    0  501    0  0.00000000000E+00 -0.00000000000E+00 -0.21802117957E+02  0.21802117957E+02  0.00000000000E+00 0. -1.
         25    2    1    2    0    0  0.16862301328E+02 -0.31180464826E+02  0.51499939684E+03  0.53115726166E+03  0.12508836584E+03 0.  0.
          5    1    3    3  502    0 -0.20994986807E+02  0.42181095679E+02  0.18024313576E+03  0.18634670561E+03  0.41800000000E+01 0. -1.
         -5    1    3    3    0  502  0.37857288136E+02 -0.73361560506E+02  0.33475626109E+03  0.34481055605E+03  0.41800000000E+01 0. -1.
        -11    1    1    2    0    0  0.26130330769E+02  0.39869648565E+02  0.51499751829E+02  0.70175547744E+02  0.00000000000E+00 0.  1.
         11    1    1    2    0    0 -0.42992632097E+02 -0.86891837386E+01  0.10529214449E+03  0.11406271968E+03  0.00000000000E+00 0. -1.
</event>
<event>
 7    1  0.3056346E-009  0.2058597E+03  0.7561462E-02  0.1144887E+00
         -1   -1    0    0    0  501 -0.00000000000E+00  0.00000000000E+00  0.13753627532E+03  0.13753627532E+03  0.00000000000E+00 0.  1.
          1   -1    0    0  501    0  0.00000000000E+00 -0.00000000000E+00 -0.32073435125E+03  0.32073435125E+03  0.00000000000E+00 0. -1.
         25    2    1    2    0    0 -0.17708815246E+03 -0.14106870727E+02 -0.11800603697E+03  0.24725129673E+03  0.12509421021E+03 0.  0.
          5    1    3    3  502    0 -0.66515789046E+02 -0.67110133314E+02 -0.51814759395E+02  0.10784415551E+03  0.41800000000E+01 0. -1.
         -5    1    3    3    0  502 -0.11057236342E+03  0.53003262587E+02 -0.66191277577E+02  0.13940714122E+03  0.41800000000E+01 0. -1.
        -11    1    1    2    0    0  0.40767109124E+02 -0.30609819419E+02 -0.41227305193E+02  0.65563777535E+02  0.00000000000E+00 0.  1.
         11    1    1    2    0    0  0.13632104334E+03  0.44716690147E+02 -0.23964733766E+02  0.14545555231E+03  0.00000000000E+00 0. -1.
</event>
<event>
 7    1  0.3056346E-009  0.8615949E+02  0.7561462E-02  0.1312428E+00
         -4   -1    0    0    0  501 -0.00000000000E+00  0.00000000000E+00  0.16147772656E+03  0.16147772656E+03  0.00000000000E+00 0. -1.
          4   -1    0    0  501    0  0.00000000000E+00 -0.00000000000E+00 -0.94187703522E+02  0.94187703522E+02  0.00000000000E+00 0.  1.
         25    2    1    2    0    0  0.60470829012E+02 -0.17181155613E+00  0.31372610046E+02  0.14243936956E+03  0.12509189685E+03 0.  0.
          5    1    3    3  502    0  0.51381637913E+01 -0.12913982213E+02 -0.44941580789E+02  0.47227002313E+02  0.41800000000E+01 0.  1.
         -5    1    3    3    0  502  0.55332665221E+02  0.12742170657E+02  0.76314190835E+02  0.95212367244E+02  0.41800000000E+01 0.  1.
        -11    1    1    2    0    0 -0.26334402858E+02  0.40328687101E+02 -0.21457946938E+01  0.48213153931E+02  0.00000000000E+00 0.  1.
         11    1    1    2    0    0 -0.34136426155E+02 -0.40156875545E+02  0.38063207682E+02  0.65012906589E+02  0.00000000000E+00 0. -1.
</event>
<event>
 7    1  0.3056346E-009  0.1640051E+03  0.7561462E-02  0.1184248E+00
          2   -1    0    0  501    0  0.00000000000E+00  0.00000000000E+00  0.44804599451E+03  0.44804599451E+03  0.00000000000E+00 0. -1.
         -2   -1    0    0    0  501 -0.00000000000E+00 -0.00000000000E+00 -0.13329911271E+03  0.13329911271E+03  0.00000000000E+00 0.  1.
         25    2    1    2    0    0  0.13582657749E+03  0.39013146982E+02 -0.36228610091E+02  0.19217503622E+03  0.12509135689E+03 0.  0.
          5    1    3    3  502    0  0.45395381973E+02 -0.28708090111E+02 -0.55660002645E+02  0.77462271053E+02  0.41800000000E+01 0.  1.
         -5    1    3    3    0  502  0.90431195521E+02  0.67721237092E+02  0.19431392553E+02  0.11471276517E+03  0.41800000000E+01 0.  1.
        -11    1    1    2    0    0 -0.76461820007E+02  0.18239382392E+02  0.22737684512E+03  0.24058120185E+03  0.00000000000E+00 0. -1.
         11    1    1    2    0    0 -0.59364757487E+02 -0.57252529373E+02  0.12359864678E+03  0.14858886915E+03  0.00000000000E+00 0.  1.
</event>
<event>
 7    1  0.3056346E-009  0.8873441E+02  0.7561462E-02  0.1305946E+00
          2   -1    0    0  501    0  0.00000000000E+00  0.00000000000E+00  0.47440830231E+03  0.47440830231E+03  0.00000000000E+00 0. -1.
         -2   -1    0    0    0  501 -0.00000000000E+00 -0.00000000000E+00 -0.56250164057E+02  0.56250164057E+02  0.00000000000E+00 0.  1.
         25    2    1    2    0    0 -0.33914427631E+02 -0.66029947309E+02  0.68459422354E+02  0.16076237021E+03  0.12509078632E+03 0.  0.
          5    1    3    3  502    0  0.12226328675E+02 -0.11588541374E+02  0.85523988319E+02  0.87267418789E+02  0.41800000000E+01 0. -1.
         -5    1    3    3    0  502 -0.46140756307E+02 -0.54441405935E+02 -0.17064565966E+02  0.73494951421E+02  0.41800000000E+01 0. -1.
        -11    1    1    2    0    0 -0.11247010454E+02  0.25798041255E+02  0.19584423404E+02  0.34286787788E+02  0.00000000000E+00 0.  1.
         11    1    1    2    0    0  0.45161438085E+02  0.40231906054E+02  0.33011429249E+03  0.33560930837E+03  0.00000000000E+00 0. -1.
</event>
<event>
 7    1  0.3056346E-009  0.1088062E+03  0.7561462E-02  0.1262797E+00
          2   -1    0    0  501    0  0.00000000000E+00  0.00000000000E+00  0.45587993441E+03  0.45587993441E+03  0.00000000000E+00 0. -1.
         -2   -1    0    0    0  501 -0.00000000000E+00 -0.00000000000E+00 -0.27835782240E+02  0.27835782240E+02  0.00000000000E+00 0.  1.
         25    2    1    2    0    0 -0.22912395297E+02  0.32275004525E+02  0.24011027821E+03  0.27362157643E+03  0.12509663310E+03 0.  0.
          5    1    3    3  502    0 -0.63794671282E+01  0.80066511429E+02  0.14403429419E+03  0.16496876721E+03  0.41800000000E+01 0. -1.
         -5    1    3    3    0  502 -0.16532928169E+02 -0.47791506904E+02  0.96075984021E+02  0.10865280922E+03  0.41800000000E+01 0. -1.
        -11    1    1    2    0    0  0.10508239591E+02  0.25378387775E+02  0.26261835673E+02  0.38002232544E+02  0.00000000000E+00 0.  1.
         11    1    1    2    0    0  0.12404155706E+02 -0.57653392300E+02  0.16167203828E+03  0.17209190767E+03  0.00000000000E+00 0. -1.
</event>
<event>
 7    1  0.3056346E-009  0.1142719E+03  0.7561462E-02  0.1252857E+00
         -2   -1    0    0    0  501 -0.00000000000E+00  0.00000000000E+00  0.33725357235E+03  0.33725357235E+03  0.00000000000E+00 0.  1.
          2   -1    0    0  501    0  0.00000000000E+00 -0.00000000000E+00 -0.79595780102E+02  0.79595780102E+02  0.00000000000E+00 0. -1.
         25    2    1    2    0    0 -0.66594249499E+02  0.51700587049E+02  0.24960949558E+03  0.29165031495E+03  0.12508901293E+03 0.  0.
          5    1    3    3  502    0 -0.61143445933E+02  0.86000042965E+02  0.13253972184E+03  0.16946615779E+03  0.41800000000E+01 0.  1.
         -5    1    3    3    0  502 -0.54508035663E+01 -0.34299455916E+02  0.11706977375E+03  0.12218415716E+03  0.41800000000E+01 0.  1.
        -11    1    1    2    0    0  0.31191054191E+02 -0.39894371213E+02  0.48529802000E+02  0.70139749060E+02  0.00000000000E+00 0.  1.
         11    1    1    2    0    0  0.35403195309E+02 -0.11806215836E+02 -0.40481505333E+02  0.55059288448E+02  0.00000000000E+00 0. -1.
</event>
<event>
 7    1  0.3056346E-009  0.8363509E+02  0.7561462E-02  0.1319041E+00
          2   -1    0    0  501    0  0.00000000000E+00  0.00000000000E+00  0.28227274229E+03  0.28227274229E+03  0.00000000000E+00 0. -1.
         -2   -1    0    0    0  501 -0.00000000000E+00 -0.00000000000E+00 -0.54113884935E+02  0.54113884935E+02  0.00000000000E+00 0.  1.
         25    2    1    2    0    0 -0.58425103437E+02  0.62493148696E+01  0.15117383140E+03  0.20482306150E+03  0.12508562098E+03 0.  0.
          5    1    3    3  502    0 -0.33083393470E+02 -0.12768224961E+02  0.16585397315E+03  0.16965421098E+03  0.41800000000E+01 0.  1.
         -5    1    3    3    0  502 -0.25341709966E+02  0.19017539830E+02 -0.14680141754E+02  0.35168850523E+02  0.41800000000E+01 0.  1.
        -11    1    1    2    0    0  0.26978744798E+02 -0.43294294626E+02  0.62871101178E+02  0.80963102592E+02  0.00000000000E+00 0. -1.
         11    1    1    2    0    0  0.31446358638E+02  0.37044979756E+02  0.14113924782E+02  0.50600463135E+02  0.00000000000E+00 0.  1.
</event>
<event>
 7    1  0.3056346E-009  0.1174205E+03  0.7561462E-02  0.1247414E+00
          1   -1    0    0  501    0  0.00000000000E+00  0.00000000000E+00  0.94378589061E+03  0.94378589061E+03  0.00000000000E+00 0. -1.
         -1   -1    0    0    0  501 -0.00000000000E+00 -0.00000000000E+00 -0.22857411429E+02  0.22857411429E+02  0.00000000000E+00 0.  1.
         25    2    1    2    0    0  0.77699401474E+02 -0.59920239235E+02  0.44469997269E+03  0.47226284147E+03  0.12508594509E+03 0.  0.
          5    1    3    3  502    0  0.45006028262E+02 -0.17592908420E+02  0.39857014666E+03  0.40151050698E+03  0.41800000000E+01 0. -1.
         -5    1    3    3    0  502  0.32693373212E+02 -0.42327330815E+02  0.46129826034E+02  0.70752334490E+02  0.41800000000E+01 0. -1.
        -11    1    1    2    0    0 -0.96196592040E+02  0.36594245202E+02  0.37452955794E+03  0.38841384227E+03  0.00000000000E+00 0. -1.
         11    1    1    2    0    0  0.18497190565E+02  0.23325994033E+02  0.10169894855E+03  0.10596661830E+03  0.00000000000E+00 0.  1.
</event>
<event>
 7    1  0.4134790E-009  0.1602001E+03  0.7561462E-02  0.1188471E+00
          1   -1    0    0  501    0  0.00000000000E+00  0.00000000000E+00  0.72455679405E+03  0.72455679405E+03  0.00000000000E+00 0. -1.
         -1   -1    0    0    0  501 -0.00000000000E+00 -0.00000000000E+00 -0.41895342926E+02  0.41895342926E+02  0.00000000000E+00 0.  1.
         25    2    1    2    0    0  0.20084336109E+02  0.13412189251E+03  0.34291479745E+03  0.38939658920E+03  0.12508829987E+03 0.  0.
          5    1    3    3  502    0 -0.14798609824E+02  0.13404829871E+03  0.19343905742E+03  0.23584759184E+03  0.41800000000E+01 0.  1.
         -5    1    3    3    0  502  0.34882945933E+02  0.73593791909E-01  0.14947574003E+03  0.15354899736E+03  0.41800000000E+01 0.  1.
        -11    1    1    2    0    0 -0.37403514700E+02 -0.40498927000E+02  0.20351809853E+03  0.21085256088E+03  0.00000000000E+00 0. -1.
         11    1    1    2    0    0  0.17319178591E+02 -0.93622965505E+02  0.13622855514E+03  0.16620298690E+03  0.00000000000E+00 0.  1.
</event>
<event>
 7    1  0.3056346E-009  0.9137861E+02  0.7561462E-02  0.1299547E+00
          2   -1    0    0  501    0  0.00000000000E+00  0.00000000000E+00  0.11657837787E+03  0.11657837787E+03  0.00000000000E+00 0. -1.
         -2   -1    0    0    0  501 -0.00000000000E+00 -0.00000000000E+00 -0.15042344160E+03  0.15042344160E+03  0.00000000000E+00 0.  1.
         25    2    1    2    0    0  0.28062670917E+02 -0.30991822567E+01  0.49586141740E+02  0.13749315812E+03  0.12509382338E+03 0.  0.
          5    1    3    3  502    0 -0.38578210647E+02 -0.22775050126E+02 -0.97348239428E+01  0.46034991498E+02  0.41800000000E+01 0.  1.
         -5    1    3    3    0  502  0.66640881564E+02  0.19675867869E+02  0.59320965683E+02  0.91458166620E+02  0.41800000000E+01 0.  1.
        -11    1    1    2    0    0  0.16029877552E+02 -0.13582133079E+02 -0.79469492734E+02  0.82199948837E+02  0.00000000000E+00 0.  1.
         11    1    1    2    0    0 -0.44092548469E+02  0.16681315336E+02 -0.39617127437E+01  0.47308712514E+02  0.00000000000E+00 0. -1.
</event>
<event>
 7    1  0.3056346E-009  0.2298741E+03  0.7561462E-02  0.1126728E+00
         -1   -1    0    0    0  501 -0.00000000000E+00  0.00000000000E+00  0.50783132973E+02  0.50783132973E+02  0.00000000000E+00 0.  1.
          1   -1    0    0  501    0  0.00000000000E+00 -0.00000000000E+00 -0.17015086779E+04  0.17015086779E+04  0.00000000000E+00 0. -1.
         25    2    1    2    0    0 -0.13782723245E+03 -0.15430235010E+03 -0.13715743894E+04  0.13927211336E+04  0.12510111535E+03 0.  0.
          5    1    3    3  502    0 -0.81515869788E+02 -0.13434714922E+02 -0.65852179583E+03  0.66369703673E+03  0.41800000000E+01 0.  1.
         -5    1    3    3    0  502 -0.56311362666E+02 -0.14086763518E+03 -0.71305259359E+03  0.72902409688E+03  0.41800000000E+01 0.  1.
        -11    1    1    2    0    0  0.15007166077E+03  0.13219850096E+03 -0.23392573677E+03  0.30776484098E+03  0.00000000000E+00 0.  1.
         11    1    1    2    0    0 -0.12244428321E+02  0.22103849142E+02 -0.45225418736E+02  0.51805836271E+02  0.00000000000E+00 0. -1.
</event>
<event>
 7    1  0.3056346E-009  0.7782865E+02  0.7561462E-02  0.1335329E+00
          1   -1    0    0  501    0  0.00000000000E+00  0.00000000000E+00  0.27874358067E+03  0.27874358067E+03  0.00000000000E+00 0. -1.
         -1   -1    0    0    0  501 -0.00000000000E+00 -0.00000000000E+00 -0.50051351481E+02  0.50051351481E+02  0.00000000000E+00 0.  1.
         25    2    1    2    0    0 -0.33338157318E+02  0.32177577470E+02  0.13141419342E+03  0.18725319332E+03  0.12508892416E+03 0.  0.
          5    1    3    3  502    0 -0.17840433279E+02 -0.36422580268E+01 -0.22020276195E+02  0.28877535677E+02  0.41800000000E+01 0. -1.
         -5    1    3    3    0  502 -0.15497724039E+02  0.35819835497E+02  0.15343446962E+03  0.15837565764E+03  0.41800000000E+01 0. -1.
        -11    1    1    2    0    0  0.87594594517E+01 -0.59978822465E+02  0.37794869427E+02  0.71432761596E+02  0.00000000000E+00 0.  1.
         11    1    1    2    0    0  0.24578697866E+02  0.27801244995E+02  0.59483166341E+02  0.70108977242E+02  0.00000000000E+00 0. -1.
</event>
<event>
 7    1  0.3056346E-009  0.2198682E+03  0.7561462E-02  0.1133981E+00
          1   -1    0    0  501    0  0.00000000000E+00  0.00000000000E+00  0.26590719826E+03  0.26590719826E+03  0.00000000000E+00 0. -1.
         -1   -1    0    0    0  501 -0.00000000000E+00 -0.00000000000E+00 -0.23360367091E+03  0.23360367091E+03  0.00000000000E+00 0.  1.
         25    2    1    2    0    0  0.19961141647E+03  0.20735639949E+02  0.11587408333E+03  0.26335448434E+03  0.12511633341E+03 0.  0.
          5    1    3    3  502    0  0.21479716366E+03  0.86033338221E+01  0.96774211185E+02  0.23578498515E+03  0.41800000000E+01 0.  1.
         -5    1    3    3    0  502 -0.15185747192E+02  0.12132306127E+02  0.19099872148E+02  0.27569499194E+02  0.41800000000E+01 0.  1.
        -11    1    1    2    0    0 -0.10105971453E+03  0.10146562425E+02 -0.85646687462E+02  0.13285847246E+03  0.00000000000E+00 0.  1.
         11    1    1    2    0    0 -0.98551701936E+02 -0.30882202374E+02  0.20761314726E+01  0.10329791237E+03  0.00000000000E+00 0. -1.
</event>
<event>
 7    1  0.3056346E-009  0.1052699E+03  0.7561462E-02  0.1269589E+00
          2   -1    0    0  501    0  0.00000000000E+00  0.00000000000E+00  0.78487518737E+03  0.78487518737E+03  0.00000000000E+00 0. -1.
         -2   -1    0    0    0  501 -0.00000000000E+00 -0.00000000000E+00 -0.18201285964E+02  0.18201285964E+02  0.00000000000E+00 0.  1.
         25    2    1    2    0    0  0.52695191617E+02 -0.26383367204E+02  0.42853426483E+03  0.45027992050E+03  0.12505009152E+03 0.  0.
          5    1    3    3  502    0  0.59959851448E+01  0.33267249939E+02  0.29284478002E+03  0.29481892636E+03  0.41800000000E+01 0. -1.
         -5    1    3    3    0  502  0.46699206472E+02 -0.59650617142E+02  0.13568948481E+03  0.15546099414E+03  0.41800000000E+01 0. -1.
        -11    1    1    2    0    0 -0.74716172346E+02  0.16744987352E+02  0.25392009467E+03  0.26521371663E+03  0.00000000000E+00 0.  1.
         11    1    1    2    0    0  0.22020980730E+02  0.96383798518E+01  0.84219541905E+02  0.87582836202E+02  0.00000000000E+00 0. -1.
</event>
<event>
 7    1  0.3056346E-009  0.1807813E+03  0.7561462E-02  0.1167049E+00
          1   -1    0    0  501    0  0.00000000000E+00  0.00000000000E+00  0.45223650114E+03  0.45223650114E+03  0.00000000000E+00 0. -1.
         -1   -1    0    0    0  501 -0.00000000000E+00 -0.00000000000E+00 -0.11613640679E+03  0.11613640679E+03  0.00000000000E+00 0.  1.
         25    2    1    2    0    0 -0.15159948290E+03 -0.72149205177E+02  0.31315213375E+03  0.37669562379E+03  0.12508966020E+03 0.  0.
          5    1    3    3  502    0  0.88952381524E+01  0.84584936080E+01  0.86572833045E+02  0.87538558346E+02  0.41800000000E+01 0. -1.
         -5    1    3    3    0  502 -0.16049472105E+03 -0.80607698785E+02  0.22657930071E+03  0.28915706545E+03  0.41800000000E+01 0. -1.
        -11    1    1    2    0    0  0.13902291802E+03  0.59858405391E+02  0.50004887031E+02  0.15940793317E+03  0.00000000000E+00 0. -1.
         11    1    1    2    0    0  0.12576564878E+02  0.12290799786E+02 -0.27056926440E+02  0.32269350969E+02  0.00000000000E+00 0.  1.
</event>
<event>
 7    1  0.3056346E-009  0.7536017E+02  0.7561462E-02  0.1342759E+00
         -2   -1    0    0    0  501 -0.00000000000E+00  0.00000000000E+00  0.20581713324E+02  0.20581713324E+02  0.00000000000E+00 0.  1.
          2   -1    0    0  501    0  0.00000000000E+00 -0.00000000000E+00 -0.68882068573E+03  0.68882068573E+03  0.00000000000E+00 0. -1.
         25    2    1    2    0    0 -0.25670420620E+02 -0.24442043708E+02 -0.46536923481E+03  0.48318933265E+03  0.12508805892E+03 0.  0.
          5    1    3    3  502    0 -0.34282060173E+02 -0.22360699817E+02 -0.47038698512E+03  0.47218285517E+03  0.41800000000E+01 0. -1.
         -5    1    3    3    0  502  0.86116395528E+01 -0.20813438906E+01  0.50177503151E+01  0.11006477475E+02  0.41800000000E+01 0. -1.
        -11    1    1    2    0    0  0.62388617232E+01 -0.35874023493E+02 -0.82619414851E+02  0.90287522214E+02  0.00000000000E+00 0. -1.
         11    1    1    2    0    0  0.19431558897E+02  0.60316067201E+02 -0.12025032275E+03  0.13592554420E+03  0.00000000000E+00 0.  1.
</event>
<event>
 7    1  0.3056346E-009  0.2567685E+03  0.7561462E-02  0.1109100E+00
          2   -1    0    0  501    0  0.00000000000E+00  0.00000000000E+00  0.20512342472E+04  0.20512342472E+04  0.00000000000E+00 0. -1.
         -2   -1    0    0    0  501 -0.00000000000E+00 -0.00000000000E+00 -0.37214186888E+02  0.37214186888E+02  0.00000000000E+00 0.  1.
         25    2    1    2    0    0 -0.46071266072E+02 -0.24807896265E+03  0.11479030767E+04  0.11819453850E+04  0.12509071282E+03 0.  0.
          5    1    3    3  502    0  0.95381779262E+01 -0.37172995512E+02  0.53280466917E+02  0.65795812849E+02  0.41800000000E+01 0.  1.
         -5    1    3    3    0  502 -0.55609443998E+02 -0.21090596714E+03  0.10946226098E+04  0.11161495722E+04  0.41800000000E+01 0.  1.
        -11    1    1    2    0    0 -0.32526848082E+01  0.11181900689E+03  0.25532721509E+03  0.27875806181E+03  0.00000000000E+00 0.  1.
         11    1    1    2    0    0  0.49323950881E+02  0.13625995576E+03  0.61078976848E+03  0.62774498720E+03  0.00000000000E+00 0. -1.
</event>
<event>
 7    1  0.3056346E-009  0.9578970E+02  0.7561462E-02  0.1289407E+00
         -3   -1    0    0    0  501 -0.00000000000E+00  0.00000000000E+00  0.41084743784E+03  0.41084743784E+03  0.00000000000E+00 0.  1.
          3   -1    0    0  501    0  0.00000000000E+00 -0.00000000000E+00 -0.47431205225E+02  0.47431205225E+02  0.00000000000E+00 0. -1.
         25    2    1    2    0    0 -0.54533454454E+01 -0.65658028655E+02  0.28958843104E+03  0.32225690231E+03  0.12508931206E+03 0.  0.
          5    1    3    3  502    0 -0.32850814726E+02  0.17814816171E+02  0.16820964764E+03  0.17236154346E+03  0.41800000000E+01 0. -1.
         -5    1    3    3    0  502  0.27397469281E+02 -0.83472844826E+02  0.12137878340E+03  0.14989535886E+03  0.41800000000E+01 0. -1.
        -11    1    1    2    0    0  0.47716911675E+01  0.31649098213E+02  0.92033619465E+02  0.97440348758E+02  0.00000000000E+00 0.  1.
         11    1    1    2    0    0  0.68165427784E+00  0.34008930443E+02 -0.18205817899E+02  0.38581391989E+02  0.00000000000E+00 0. -1.
</event>
<event>
 7    1  0.3056346E-009  0.1241929E+03  0.7561462E-02  0.1236336E+00
          3   -1    0    0  501    0  0.00000000000E+00  0.00000000000E+00  0.64555899928E+02  0.64555899928E+02  0.00000000000E+00 0. -1.
         -3   -1    0    0    0  501 -0.00000000000E+00 -0.00000000000E+00 -0.31572914640E+03  0.31572914640E+03  0.00000000000E+00 0.  1.
         25    2    1    2    0    0  0.20075763015E+02 -0.74193705317E+02 -0.77080357824E+02  0.16580978755E+03  0.12507502515E+03 0.  0.
          5    1    3    3  502    0 -0.37997430121E+02  0.41566424478E+01  0.43392811922E+01  0.38696048035E+02  0.41800000000E+01 0. -1.
         -5    1    3    3    0  502  0.58073193136E+02 -0.78350347765E+02 -0.81419639016E+02  0.12711373951E+03  0.41800000000E+01 0. -1.
        -11    1    1    2    0    0 -0.51324879169E+02  0.56803466814E+02 -0.67573808252E+02  0.10211315599E+03  0.00000000000E+00 0. -1.
         11    1    1    2    0    0  0.31249116153E+02  0.17390238502E+02 -0.10651908039E+03  0.11236210279E+03  0.00000000000E+00 0.  1.
</event>
<event>
 7    1  0.3056346E-009  0.6107446E+02  0.7561462E-02  0.1393377E+00
          2   -1    0    0  501    0  0.00000000000E+00  0.00000000000E+00  0.51606293921E+03  0.51606293921E+03  0.00000000000E+00 0.  1.
         -2   -1    0    0    0  501 -0.00000000000E+00 -0.00000000000E+00 -0.34422051431E+02  0.34422051431E+02  0.00000000000E+00 0. -1.
         25    2    1    2    0    0  0.18423372056E+02 -0.41958213302E+02  0.39108488128E+03  0.41315169935E+03  0.12508808897E+03 0.  0.
          5    1    3    3  502    0  0.26164099671E+02 -0.19701392008E+02  0.38755675659E+03  0.38896068816E+03  0.41800000000E+01 0.  1.
         -5    1    3    3    0  502 -0.77407276146E+01 -0.22256821295E+02  0.35281246947E+01  0.24191011182E+02  0.41800000000E+01 0.  1.
        -11    1    1    2    0    0 -0.31597772210E+02  0.41309207380E+02  0.10536498617E+03  0.11750170268E+03  0.00000000000E+00 0.  1.
         11    1    1    2    0    0  0.13174400154E+02  0.64900592256E+00 -0.14808979671E+02  0.19831588615E+02  0.00000000000E+00 0. -1.
</event>
<event>
 7    1  0.3056346E-009  0.1033722E+03  0.7561462E-02  0.1273360E+00
         -4   -1    0    0    0  501 -0.00000000000E+00  0.00000000000E+00  0.26659127238E+03  0.26659127238E+03  0.00000000000E+00 0. -1.
          4   -1    0    0  501    0  0.00000000000E+00 -0.00000000000E+00 -0.14537485652E+03  0.14537485652E+03  0.00000000000E+00 0.  1.
         25    2    1    2    0    0 -0.83708980812E+01 -0.88980685496E+02 -0.80294489162E+02  0.17344310491E+03  0.12509065243E+03 0.  0.
          5    1    3    3  502    0 -0.38680155366E+02 -0.33146562315E+02 -0.95201191964E+02  0.10805363651E+03  0.41800000000E+01 0.  1.
         -5    1    3    3    0  502  0.30309257285E+02 -0.55834123181E+02  0.14906702802E+02  0.65389468395E+02  0.41800000000E+01 0.  1.
        -11    1    1    2    0    0  0.14139957067E+02  0.36085450782E+02  0.17468783202E+03  0.17893556606E+03  0.00000000000E+00 0. -1.
         11    1    1    2    0    0 -0.57690589856E+01  0.52895234715E+02  0.26823072997E+02  0.59587457926E+02  0.00000000000E+00 0.  1.
</event>
<event>
 7    1  0.3056346E-009  0.2156182E+03  0.7561462E-02  0.1137193E+00
          2   -1    0    0  501    0  0.00000000000E+00  0.00000000000E+00  0.72349568609E+03  0.72349568609E+03  0.00000000000E+00 0. -1.
         -2   -1    0    0    0  501 -0.00000000000E+00 -0.00000000000E+00 -0.79452478586E+02  0.79452478586E+02  0.00000000000E+00 0.  1.
         25    2    1    2    0    0  0.16778043082E+03 -0.13117885469E+03  0.31673270607E+03  0.40165209489E+03  0.12508650348E+03 0.  0.
          5    1    3    3  502    0  0.13546795791E+03 -0.80209678529E+02  0.12640669152E+03  0.20194376497E+03  0.41800000000E+01 0.  1.
         -5    1    3    3    0  502  0.32312472907E+02 -0.50969176157E+02  0.19032601455E+03  0.19970832992E+03  0.41800000000E+01 0.  1.
        -11    1    1    2    0    0 -0.39815586846E+02  0.25374484042E+02  0.18561285237E+02  0.50731318788E+02  0.00000000000E+00 0.  1.
         11    1    1    2    0    0 -0.12796484397E+03  0.10580437064E+03  0.30874921620E+03  0.35056475100E+03  0.00000000000E+00 0. -1.
</event>
<event>
 7    1  0.3056346E-009  0.1175248E+03  0.7561462E-02  0.1247237E+00
         -2   -1    0    0    0  501 -0.00000000000E+00  0.00000000000E+00  0.38729715941E+02  0.38729715941E+02  0.00000000000E+00 0.  1.
          2   -1    0    0  501    0  0.00000000000E+00 -0.00000000000E+00 -0.36838316777E+03  0.36838316777E+03  0.00000000000E+00 0. -1.
         25    2    1    2    0    0 -0.19818395324E+02  0.43981992943E+02 -0.18096312367E+03  0.22521603479E+03  0.12508967065E+03 0.  0.
          5    1    3    3  502    0  0.50776727094E+02  0.10429263069E+02 -0.47184188860E+02  0.70220122621E+02  0.41800000000E+01 0.  1.
         -5    1    3    3    0  502 -0.70595122418E+02  0.33552729874E+02 -0.13377893481E+03  0.15499591217E+03  0.41800000000E+01 0.  1.
        -11    1    1    2    0    0  0.57291655711E+02 -0.30799116695E+02 -0.93110556877E+02  0.11358034691E+03  0.00000000000E+00 0.  1.
         11    1    1    2    0    0 -0.37473260387E+02 -0.13182876248E+02 -0.55579771280E+02  0.68316502002E+02  0.00000000000E+00 0. -1.
</event>
<event>
 7    1  0.3056346E-009  0.1432076E+03  0.7561462E-02  0.1209077E+00
         -2   -1    0    0    0  501 -0.00000000000E+00  0.00000000000E+00  0.22674809495E+02  0.22674809495E+02  0.00000000000E+00 0. -1.
          2   -1    0    0  501    0  0.00000000000E+00 -0.00000000000E+00 -0.11917912442E+04  0.11917912442E+04  0.00000000000E+00 0.  1.
         25    2    1    2    0    0  0.13993976114E+02 -0.11905388967E+03 -0.74028590156E+03  0.76028932195E+03  0.12508787711E+03 0.  0.
          5    1    3    3  502    0  0.21955533859E+02 -0.54226769608E+01 -0.41451037383E+03  0.41514789329E+03  0.41800000000E+01 0.  1.
         -5    1    3    3    0  502 -0.79615577455E+01 -0.11363121271E+03 -0.32577552774E+03  0.34514142866E+03  0.41800000000E+01 0.  1.
        -11    1    1    2    0    0  0.27604330457E+02  0.99882645666E+02 -0.28715389014E+03  0.30528003306E+03  0.00000000000E+00 0. -1.
         11    1    1    2    0    0 -0.41598306571E+02  0.19171244009E+02 -0.14167664302E+03  0.14889669870E+03  0.00000000000E+00 0.  1.
</event>
<event>
 7    1  0.3056346E-009  0.1104712E+03  0.7561462E-02  0.1259700E+00
         -2   -1    0    0    0  501 -0.00000000000E+00  0.00000000000E+00  0.71711114715E+02  0.71711114715E+02  0.00000000000E+00 0.  1.
          2   -1    0    0  501    0  0.00000000000E+00 -0.00000000000E+00 -0.28791081701E+03  0.28791081701E+03  0.00000000000E+00 0. -1.
         25    2    1    2    0    0 -0.11026897542E+02  0.65875009697E+02 -0.35080901348E+02  0.14607924072E+03  0.12508943024E+03 0.  0.
          5    1    3    3  502    0  0.53790646991E+02  0.42273675402E+02 -0.35024518704E+02  0.76971986113E+02  0.41800000000E+01 0.  1.
         -5    1    3    3    0  502 -0.64817544533E+02  0.23601334295E+02 -0.56382644405E-01  0.69107254603E+02  0.41800000000E+01 0.  1.
        -11    1    1    2    0    0  0.24863557263E+02 -0.64810260916E+02 -0.18623567752E+03  0.19875184019E+03  0.00000000000E+00 0. -1.
         11    1    1    2    0    0 -0.13836659722E+02 -0.10647487814E+01  0.51168765662E+01  0.14790850821E+02  0.00000000000E+00 0.  1.
</event>
<event>
 7    1  0.3056346E-009  0.1056236E+03  0.7561462E-02  0.1268896E+00
          2   -1    0    0  501    0  0.00000000000E+00  0.00000000000E+00  0.19906849554E+03  0.19906849554E+03  0.00000000000E+00 0. -1.
         -2   -1    0    0    0  501 -0.00000000000E+00 -0.00000000000E+00 -0.19509148294E+03  0.19509148294E+03  0.00000000000E+00 0.  1.
         25    2    1    2    0    0 -0.64918156003E+02 -0.61200224849E+01 -0.14831056721E+03  0.20468252188E+03  0.12508832385E+03 0.  0.
          5    1    3    3  502    0 -0.80436581097E+02  0.23724123747E+02 -0.14871688648E+03  0.17078367120E+03  0.41800000000E+01 0.  1.
         -5    1    3    3    0  502  0.15518425094E+02 -0.29844146232E+02  0.40631927164E+00  0.33898850675E+02  0.41800000000E+01 0.  1.
        -11    1    1    2    0    0  0.77373864894E+02 -0.37911650834E+01  0.66107089373E+02  0.10183926142E+03  0.00000000000E+00 0.  1.
         11    1    1    2    0    0 -0.12455708891E+02  0.99111875683E+01  0.86180490433E+02  0.87638195179E+02  0.00000000000E+00 0. -1.
</event>
<event>
 7    1  0.3056346E-009  0.8678455E+02  0.7561462E-02  0.1310831E+00
          1   -1    0    0  501    0  0.00000000000E+00  0.00000000000E+00  0.11944364737E+03  0.11944364737E+03  0.00000000000E+00 0. -1.
         -1   -1    0    0    0  501 -0.00000000000E+00 -0.00000000000E+00 -0.12172268843E+03  0.12172268843E+03  0.00000000000E+00 0.  1.
         25    2    1    2    0    0 -0.50386470844E+02  0.19530864426E+02  0.13507709314E+02  0.13692698712E+03  0.12508513294E+03 0.  0.
          5    1    3    3  502    0 -0.66969869572E+02  0.48334787739E+02 -0.24514280336E+02  0.86253333134E+02  0.41800000000E+01 0. -1.
         -5    1    3    3    0  502  0.16583398728E+02 -0.28803923313E+02  0.38021989650E+02  0.50673653988E+02  0.41800000000E+01 0. -1.
        -11    1    1    2    0    0  0.99727967186E+01 -0.13081241499E+02 -0.48902055084E+02  0.51594442966E+02  0.00000000000E+00 0.  1.
         11    1    1    2    0    0  0.40413674125E+02 -0.64496229273E+01  0.33115304710E+02  0.52644905720E+02  0.00000000000E+00 0. -1.
</event>
<event>
 7    1  0.3056346E-009  0.1127346E+03  0.7561462E-02  0.1255588E+00
         -1   -1    0    0    0  501 -0.00000000000E+00  0.00000000000E+00  0.19978717871E+03  0.19978717871E+03  0.00000000000E+00 0.  1.
          1   -1    0    0  501    0  0.00000000000E+00 -0.00000000000E+00 -0.12112329766E+03  0.12112329766E+03  0.00000000000E+00 0. -1.
         25    2    1    2    0    0 -0.41004550982E+02  0.10202808176E+03  0.63103005468E+02  0.17810311927E+03  0.12509048375E+03 0.  0.
          5    1    3    3  502    0 -0.23658745870E+02  0.19318362648E+02  0.85239381762E+02  0.90643036107E+02  0.41800000000E+01 0. -1.
         -5    1    3    3    0  502 -0.17345805113E+02  0.82709719117E+02 -0.22136376294E+02  0.87460083163E+02  0.41800000000E+01 0. -1.
        -11    1    1    2    0    0  0.70996285785E+01 -0.21900656498E+02 -0.35212288544E+02  0.42070758794E+02  0.00000000000E+00 0. -1.
         11    1    1    2    0    0  0.33904922404E+02 -0.80127425267E+02  0.50773164127E+02  0.10073659831E+03  0.00000000000E+00 0.  1.
</event>
<event>
 7    1  0.3056346E-009  0.1175978E+03  0.7561462E-02  0.1247113E+00
          1   -1    0    0  501    0  0.00000000000E+00  0.00000000000E+00  0.30300738116E+03  0.30300738116E+03  0.00000000000E+00 0. -1.
         -1   -1    0    0    0  501 -0.00000000000E+00 -0.00000000000E+00 -0.70376134700E+02  0.70376134700E+02  0.00000000000E+00 0.  1.
         25    2    1    2    0    0  0.42587099018E+02  0.37461242214E+02  0.22916389148E+03  0.26717078375E+03  0.12508850012E+03 0.  0.
          5    1    3    3  502    0  0.42304719440E+02 -0.35862385599E+02  0.55296450616E+02  0.78428118928E+02  0.41800000000E+01 0.  1.
         -5    1    3    3    0  502  0.28237957724E+00  0.73323627813E+02  0.17386744086E+03  0.18874266483E+03  0.41800000000E+01 0.  1.
        -11    1    1    2    0    0  0.27977569045E+02 -0.48320333231E+01  0.18616168014E+01  0.28452742096E+02  0.00000000000E+00 0.  1.
         11    1    1    2    0    0 -0.70564668062E+02 -0.32629208891E+02  0.16057381829E+01  0.77759990012E+02  0.00000000000E+00 0. -1.
</event>
<event>
 7    1  0.3056346E-009  0.1031710E+03  0.7561462E-02  0.1273766E+00
          1   -1    0    0  501    0  0.00000000000E+00  0.00000000000E+00  0.18559186129E+03  0.18559186129E+03  0.00000000000E+00 0. -1.
         -1   -1    0    0    0  501 -0.00000000000E+00 -0.00000000000E+00 -0.13845211674E+03  0.13845211674E+03  0.00000000000E+00 0.  1.
         25    2    1    2    0    0 -0.66650606801E+02  0.54890239501E+02  0.10340792834E+03  0.18383609639E+03  0.12508904393E+03 0.  0.
          5    1    3    3  502    0 -0.87887938990E+01 -0.21615499846E+02 -0.17483702561E+02  0.29455474653E+02  0.41800000000E+01 0.  1.
         -5    1    3    3    0  502 -0.57861812902E+02  0.76505739347E+02  0.12089163090E+03  0.15438062173E+03  0.41800000000E+01 0.  1.
        -11    1    1    2    0    0  0.30255598185E+02 -0.29418567119E+02 -0.79552497986E+02  0.90052502735E+02  0.00000000000E+00 0.  1.
         11    1    1    2    0    0  0.36395008616E+02 -0.25471672381E+02  0.23284314196E+02  0.50155378910E+02  0.00000000000E+00 0. -1.
</event>
<event>
 7    1  0.3056346E-009  0.1014507E+03  0.7561462E-02  0.1277275E+00
         -4   -1    0    0    0  501 -0.00000000000E+00  0.00000000000E+00  0.21666130620E+03  0.21666130620E+03  0.00000000000E+00 0.  1.
          4   -1    0    0  501    0  0.00000000000E+00 -0.00000000000E+00 -0.58278327653E+02  0.58278327653E+02  0.00000000000E+00 0. -1.
         25    2    1    2    0    0 -0.12436288622E+02  0.28617025401E+02  0.74462506268E+02  0.14888305177E+03  0.12509157785E+03 0.  0.
          5    1    3    3  502    0 -0.65534633970E+02 -0.42510295679E+01  0.44906831764E+02  0.79667781700E+02  0.41800000000E+01 0. -1.
         -5    1    3    3    0  502  0.53098345348E+02  0.32868054969E+02  0.29555674504E+02  0.69215270075E+02  0.41800000000E+01 0. -1.
        -11    1    1    2    0    0  0.34763144864E+02 -0.36898787242E+02  0.88324738004E+02  0.10183936412E+03  0.00000000000E+00 0.  1.
         11    1    1    2    0    0 -0.22326856241E+02  0.82817618415E+01 -0.44042657289E+01  0.24217217954E+02  0.00000000000E+00 0. -1.
</event>
<event>
 7    1  0.3056346E-009  0.1459451E+03  0.7561462E-02  0.1205546E+00
          4   -1    0    0  501    0  0.00000000000E+00  0.00000000000E+00  0.10734500008E+03  0.10734500008E+03  0.00000000000E+00 0. -1.
         -4   -1    0    0    0  501 -0.00000000000E+00 -0.00000000000E+00 -0.31272156541E+03  0.31272156541E+03  0.00000000000E+00 0.  1.
         25    2    1    2    0    0 -0.12310175016E+03  0.53640345920E+02 -0.38188726294E+02  0.18744492909E+03  0.12508355217E+03 0.  0.
          5    1    3    3  502    0 -0.27053726740E+02  0.26529200438E+02 -0.72431169962E+02  0.81850164254E+02  0.41800000000E+01 0. -1.
         -5    1    3    3    0  502 -0.96048023423E+02  0.27111145482E+02  0.34242443668E+02  0.10559476484E+03  0.41800000000E+01 0. -1.
        -11    1    1    2    0    0  0.75994080801E+01 -0.36297074395E+02 -0.75568761915E+02  0.84177588408E+02  0.00000000000E+00 0.  1.
         11    1    1    2    0    0  0.11550234208E+03 -0.17343271525E+02 -0.91619077119E+02  0.14844404800E+03  0.00000000000E+00 0. -1.
</event>
<event>
 6    1  0.3056346E-009  0.1789022E+03  0.7561462E-02  0.1168870E+00
         -2   -1    0    0    0  501 -0.00000000000E+00  0.00000000000E+00  0.13142727369E+03  0.13142727369E+03  0.00000000000E+00 0.  1.
          2   -1    0    0  501    0  0.00000000000E+00 -0.00000000000E+00 -0.29079331803E+03  0.29079331803E+03  0.00000000000E+00 0. -1.
          5    1    1    2  502    0 -0.11852368062E+02  0.24176400221E+02 -0.56356823821E+02  0.62598250355E+02  0.41800000000E+01 0.  1.
         -5    1    1    2    0  502  0.12214921500E+03  0.96072850865E+02 -0.19864244168E+02  0.15672422912E+03  0.41800000000E+01 0.  1.
        -11    1    1    2    0    0 -0.86437769577E+02 -0.12378398065E+03 -0.92463796059E+02  0.17704099937E+03  0.00000000000E+00 0. -1.
         11    1    1    2    0    0 -0.23859077360E+02  0.35347295641E+01  0.93188197113E+01  0.25857112878E+02  0.00000000000E+00 0.  1.
</event>
<event>
 7    1  0.3056346E-009  0.9713995E+02  0.7561462E-02  0.1286428E+00
         -2   -1    0    0    0  501 -0.00000000000E+00  0.00000000000E+00  0.25930009894E+02  0.25930009894E+02  0.00000000000E+00 0.  1.
          2   -1    0    0  501    0  0.00000000000E+00 -0.00000000000E+00 -0.53185294403E+03  0.53185294403E+03  0.00000000000E+00 0. -1.
         25    2    1    2    0    0 -0.45549002562E+02 -0.41760011268E+01 -0.30755908677E+03  0.33516101549E+03  0.12509262101E+03 0.  0.
          5    1    3    3  502    0 -0.59667513586E+02 -0.54396881090E+02 -0.18849187673E+03  0.20509971439E+03  0.41800000000E+01 0. -1.
         -5    1    3    3    0  502  0.14118511024E+02  0.50220879963E+02 -0.11906721004E+03  0.13006130111E+03  0.41800000000E+01 0. -1.
        -11    1    1    2    0    0  0.67604065713E+01 -0.16002426406E+02  0.20515652905E+01  0.17492560362E+02  0.00000000000E+00 0.  1.
         11    1    1    2    0    0  0.38788595991E+02  0.20178427533E+02 -0.20041541265E+03  0.20512937807E+03  0.00000000000E+00 0. -1.
</event>
<event>
 7    1  0.3056346E-009  0.1737542E+03  0.7561462E-02  0.1173988E+00
          1   -1    0    0  501    0  0.00000000000E+00  0.00000000000E+00  0.32606013059E+03  0.32606013059E+03  0.00000000000E+00 0. -1.
         -1   -1    0    0    0  501 -0.00000000000E+00 -0.00000000000E+00 -0.11248500577E+03  0.11248500577E+03  0.00000000000E+00 0.  1.
         25    2    1    2    0    0 -0.11568991116E+03  0.83307380128E+02  0.18732770260E+03  0.26657672549E+03  0.12508879759E+03 0.  0.
          5    1    3    3  502    0 -0.12764264600E+03  0.98511486668E+02  0.18678078200E+03  0.24678267972E+03  0.41800000000E+01 0.  1.
         -5    1    3    3    0  502  0.11952734840E+02 -0.15204106540E+02  0.54692060198E+00  0.19794045771E+02  0.41800000000E+01 0.  1.
        -11    1    1    2    0    0  0.43672303337E+02  0.13557202922E+02 -0.81739853922E+01  0.46453007082E+02  0.00000000000E+00 0. -1.
         11    1    1    2    0    0  0.72017607824E+02 -0.96864583050E+02  0.34421407605E+02  0.12551540379E+03  0.00000000000E+00 0.  1.
</event>
<event>
 7    1  0.3056346E-009  0.1573390E+03  0.7561462E-02  0.1191734E+00
         -2   -1    0    0    0  501 -0.00000000000E+00  0.00000000000E+00  0.82322286616E+02  0.82322286616E+02  0.00000000000E+00 0. -1.
          2   -1    0    0  501    0  0.00000000000E+00 -0.00000000000E+00 -0.41062541746E+03  0.41062541746E+03  0.00000000000E+00 0.  1.
         25    2    1    2    0    0  0.63230398040E+02  0.11854094703E+03 -0.25187756306E+03  0.31167301624E+03  0.12509085866E+03 0.  0.
          5    1    3    3  502    0  0.46015206021E+01  0.10902400485E+03 -0.21632079718E+03  0.24232120691E+03  0.41800000000E+01 0.  1.
         -5    1    3    3    0  502  0.58628877438E+02  0.95169421844E+01 -0.35556765886E+02  0.69351809338E+02  0.41800000000E+01 0.  1.
        -11    1    1    2    0    0 -0.60832376663E+02 -0.53982518988E+02 -0.83162396231E+02  0.11632142775E+03  0.00000000000E+00 0.  1.
         11    1    1    2    0    0 -0.23980213772E+01 -0.64558428046E+02  0.67368284455E+01  0.64953260086E+02  0.00000000000E+00 0. -1.
</event>
<event>
 7    1  0.3056346E-009  0.8646727E+02  0.7561462E-02  0.1311639E+00
          1   -1    0    0  501    0  0.00000000000E+00  0.00000000000E+00  0.71647307625E+02  0.71647307625E+02  0.00000000000E+00 0. -1.
         -1   -1    0    0    0  501 -0.00000000000E+00 -0.00000000000E+00 -0.20060858159E+03  0.20060858159E+03  0.00000000000E+00 0.  1.
         25    2    1    2    0    0  0.32629828287E+02  0.16260136151E+02 -0.12330451599E+03  0.17939539596E+03  0.12509838811E+03 0.  0.
          5    1    3    3  502    0 -0.24238400650E+02 -0.15776247163E+02  0.10020794136E+02  0.30891402618E+02  0.41800000000E+01 0. -1.
         -5    1    3    3    0  502  0.56868228936E+02  0.32036383314E+02 -0.13332531013E+03  0.14850399334E+03  0.41800000000E+01 0. -1.
        -11    1    1    2    0    0  0.14109811985E+02 -0.26897677564E+02 -0.26765090872E+02  0.40483847914E+02  0.00000000000E+00 0.  1.
         11    1    1    2    0    0 -0.46739640272E+02  0.10637541413E+02  0.21108332893E+02  0.52376645344E+02  0.00000000000E+00 0. -1.
</event>
<event>
 7    1  0.3056346E-009  0.2558271E+03  0.7561462E-02  0.1109677E+00
         -2   -1    0    0    0  501 -0.00000000000E+00  0.00000000000E+00  0.68882919535E+02  0.68882919535E+02  0.00000000000E+00 0.  1.
          2   -1    0    0  501    0  0.00000000000E+00 -0.00000000000E+00 -0.10887483948E+04  0.10887483948E+04  0.00000000000E+00 0. -1.
         25    2    1    2    0    0  0.46770913959E+02 -0.24494956649E+03 -0.57898197452E+03  0.64269337478E+03  0.12508732410E+03 0.  0.
          5    1    3    3  502    0 -0.92125988104E+01 -0.15149938894E+03 -0.21841688269E+03  0.26600816505E+03  0.41800000000E+01 0.  1.
         -5    1    3    3    0  502  0.55983512770E+02 -0.93450177546E+02 -0.36056509182E+03  0.37668520973E+03  0.41800000000E+01 0.  1.
        -11    1    1    2    0    0 -0.50186035515E+02  0.22222415346E+03 -0.32561339829E+03  0.39739941833E+03  0.00000000000E+00 0.  1.
         11    1    1    2    0    0  0.34151215552E+01  0.22725413030E+02 -0.11527010247E+03  0.11753852125E+03  0.00000000000E+00 0. -1.
</event>
<event>
 7    1  0.3056346E-009  0.2165215E+03  0.7561462E-02  0.1136503E+00
         -1   -1    0    0    0  501 -0.00000000000E+00  0.00000000000E+00  0.21889374040E+03  0.21889374040E+03  0.00000000000E+00 0.  1.
          1   -1    0    0  501    0  0.00000000000E+00 -0.00000000000E+00 -0.29555887092E+03  0.29555887092E+03  0.00000000000E+00 0. -1.
         25    2    1    2    0    0  0.41011454254E+02 -0.18879498502E+03 -0.16514132376E+03  0.28328180578E+03  0.12510571100E+03 0.  0.
          5    1    3    3  502    0 -0.43965953091E+01  0.12446653218E+02  0.61071198768E+01  0.15133358512E+02  0.41800000000E+01 0.  1.
         -5    1    3    3    0  502  0.45408049563E+02 -0.20124163824E+03 -0.17124844363E+03  0.26814844727E+03  0.41800000000E+01 0.  1.
        -11    1    1    2    0    0 -0.34300240334E+02  0.12616524269E+02  0.82341967045E+01  0.37463117422E+02  0.00000000000E+00 0.  1.
         11    1    1    2    0    0 -0.67112139205E+01  0.17617846075E+03  0.80241996530E+02  0.19370768811E+03  0.00000000000E+00 0. -1.
</event>
<event>
 7    1  0.3056346E-009  0.8238840E+02  0.7561462E-02  0.1322407E+00
          2   -1    0    0  501    0  0.00000000000E+00  0.00000000000E+00  0.11117425251E+03  0.11117425251E+03  0.00000000000E+00 0. -1.
         -2   -1    0    0    0  501 -0.00000000000E+00 -0.00000000000E+00 -0.11467815728E+03  0.11467815728E+03  0.00000000000E+00 0.  1.
         25    2    1    2    0    0  0.27216449390E+02 -0.79991966489E+01 -0.39963377943E+01  0.12832606306E+03  0.12508751129E+03 0.  0.
          5    1    3    3  502    0 -0.13404673230E+02  0.18698317049E+02 -0.53766479468E+02  0.58631212159E+02  0.41800000000E+01 0. -1.
         -5    1    3    3    0  502  0.40621122620E+02 -0.26697513698E+02  0.49770141674E+02  0.69694850906E+02  0.41800000000E+01 0. -1.
        -11    1    1    2    0    0  0.16459645888E+02 -0.30321547100E+02 -0.14648551906E+02  0.37481945444E+02  0.00000000000E+00 0. -1.
         11    1    1    2    0    0 -0.43676095278E+02  0.38320743749E+02  0.15140984936E+02  0.60044401280E+02  0.00000000000E+00 0.  1.
</event>
<event>
 7    1  0.3056346E-009  0.9914687E+02  0.7561462E-02  0.1282100E+00
          2   -1    0    0  501    0  0.00000000000E+00  0.00000000000E+00  0.13305539007E+04  0.13305539007E+04  0.00000000000E+00 0. -1.
         -2   -1    0    0    0  501 -0.00000000000E+00 -0.00000000000E+00 -0.11670590216E+02  0.11670590216E+02  0.00000000000E+00 0.  1.
         25    2    1    2    0    0  0.29784306629E+02  0.12481120401E+02  0.10381799764E+04  0.10461864155E+04  0.12508185001E+03 0.  0.
          5    1    3    3  502    0  0.10221384231E+02 -0.49555201501E+02  0.23794790400E+03  0.24330407335E+03  0.41800000000E+01 0. -1.
         -5    1    3    3    0  502  0.19562922397E+02  0.62036321902E+02  0.80023207242E+03  0.80288234212E+03  0.41800000000E+01 0. -1.
        -11    1    1    2    0    0 -0.34160050120E+02  0.26426125384E+02  0.74182960468E+02  0.85839156280E+02  0.00000000000E+00 0.  1.
         11    1    1    2    0    0  0.43757434912E+01 -0.38907245785E+02  0.20652037357E+03  0.21019891914E+03  0.00000000000E+00 0. -1.
</event>
<event>
 7    1  0.3056346E-009  0.9971207E+02  0.7561462E-02  0.1280903E+00
          1   -1    0    0  501    0  0.00000000000E+00  0.00000000000E+00  0.43302431736E+02  0.43302431736E+02  0.00000000000E+00 0. -1.
         -1   -1    0    0    0  501 -0.00000000000E+00 -0.00000000000E+00 -0.33227167455E+03  0.33227167455E+03  0.00000000000E+00 0.  1.
         25    2    1    2    0    0 -0.11281559755E+01  0.52620015230E+02 -0.15628780141E+03  0.20695693051E+03  0.12504061531E+03 0.  0.
          5    1    3    3  502    0 -0.31500540788E+01 -0.26479310473E+02  0.48200317153E+01  0.27418640185E+02  0.41800000000E+01 0. -1.
         -5    1    3    3    0  502  0.20218981033E+01  0.79099325703E+02 -0.16110783313E+03  0.17953829033E+03  0.41800000000E+01 0. -1.
        -11    1    1    2    0    0  0.24422503343E+02 -0.63094297782E+02 -0.12467765702E+03  0.14185156764E+03  0.00000000000E+00 0.  1.
         11    1    1    2    0    0 -0.23294347367E+02  0.10474282552E+02 -0.80037843792E+01  0.26765608131E+02  0.00000000000E+00 0. -1.
</event>
<event>
 7    1  0.3056346E-009  0.2463559E+03  0.7561462E-02  0.1115630E+00
          2   -1    0    0  501    0  0.00000000000E+00  0.00000000000E+00  0.29927012008E+04  0.29927012008E+04  0.00000000000E+00 0. -1.
         -2   -1    0    0    0  501 -0.00000000000E+00 -0.00000000000E+00 -0.31816761725E+02  0.31816761725E+02  0.00000000000E+00 0.  1.
         25    2    1    2    0    0 -0.17700305089E+03 -0.13731410857E+03  0.24036358282E+04  0.24172916504E+04  0.12509390029E+03 0.  0.
          5    1    3    3  502    0 -0.16850718030E+03 -0.15955933285E+03  0.22089590444E+04  0.22211193986E+04  0.41800000000E+01 0.  1.
         -5    1    3    3    0  502 -0.84958705958E+01  0.22245224281E+02  0.19467678382E+03  0.19617225181E+03  0.41800000000E+01 0.  1.
        -11    1    1    2    0    0  0.14819121200E+03  0.71395223783E+02  0.32768423576E+03  0.36665361264E+03  0.00000000000E+00 0.  1.
         11    1    1    2    0    0  0.28811838889E+02  0.65918884784E+02  0.22956437505E+03  0.24057269946E+03  0.00000000000E+00 0. -1.
</event>
<event>
 7    1  0.3056346E-009  0.9686416E+02  0.7561462E-02  0.1287032E+00
          1   -1    0    0  501    0  0.00000000000E+00  0.00000000000E+00  0.12580855203E+04  0.12580855203E+04  0.00000000000E+00 0. -1.
         -1   -1    0    0    0  501 -0.00000000000E+00 -0.00000000000E+00 -0.11607430335E+02  0.11607430335E+02  0.00000000000E+00 0.  1.
         25    2    1    2    0    0  0.34196921529E+02 -0.54280603228E+01  0.90277513463E+03  0.91205836253E+03  0.12509444303E+03 0.  0.
          5    1    3    3  502    0  0.49842039524E+02 -0.35082175277E+02  0.21658026799E+03  0.22503215950E+03  0.41800000000E+01 0. -1.
         -5    1    3    3    0  502 -0.15645117995E+02  0.29654114954E+02  0.68619486664E+03  0.68702620303E+03  0.41800000000E+01 0. -1.
        -11    1    1    2    0    0 -0.65023005623E+02 -0.74307252576E+01  0.22809749047E+03  0.23730080509E+03  0.00000000000E+00 0. -1.
         11    1    1    2    0    0  0.30826084095E+02  0.12858785580E+02  0.11560546486E+03  0.12033378300E+03  0.00000000000E+00 0.  1.
</event>
<event>
 7    1  0.3056346E-009  0.6921984E+02  0.7561462E-02  0.1362766E+00
         -1   -1    0    0    0  501 -0.00000000000E+00  0.00000000000E+00  0.70833150378E+03  0.70833150378E+03  0.00000000000E+00 0.  1.
          1   -1    0    0  501    0  0.00000000000E+00 -0.00000000000E+00 -0.29625036469E+02  0.29625036469E+02  0.00000000000E+00 0. -1.
         25    2    1    2    0    0  0.96936509986E+01  0.17789192980E+02  0.61004837042E+03  0.62307035785E+03  0.12508890565E+03 0.  0.
          5    1    3    3  502    0 -0.10984998796E+02  0.35551186700E+02  0.50624946376E+02  0.62967568397E+02  0.41800000000E+01 0. -1.
         -5    1    3    3    0  502  0.20678649795E+02 -0.17761993720E+02  0.55942342405E+03  0.56010278945E+03  0.41800000000E+01 0. -1.
        -11    1    1    2    0    0 -0.10496430922E+02 -0.44993420076E+02  0.73915481601E+02  0.87166973864E+02  0.00000000000E+00 0.  1.
         11    1    1    2    0    0  0.80277992359E+00  0.27204227096E+02 -0.52573847194E+01  0.27719208531E+02  0.00000000000E+00 0. -1.
</event>
<event>
 7    1  0.3056346E-009  0.1052634E+03  0.7561462E-02  0.1269601E+00
          2   -1    0    0  501    0  0.00000000000E+00  0.00000000000E+00  0.67696699338E+02  0.67696699338E+02  0.00000000000E+00 0. -1.
         -2   -1    0    0    0  501 -0.00000000000E+00 -0.00000000000E+00 -0.18985327060E+03  0.18985327060E+03  0.00000000000E+00 0.  1.
         25    2    1    2    0    0 -0.37448388523E+02 -0.53314193545E+01 -0.69680476396E+02  0.14809650635E+03  0.12508557298E+03 0.  0.
          5    1    3    3  502    0  0.41535400962E+02  0.20111708310E+02 -0.15306077375E+02  0.48799782262E+02  0.41800000000E+01 0. -1.
         -5    1    3    3    0  502 -0.78983789484E+02 -0.25443127664E+02 -0.54374399021E+02  0.99296724093E+02  0.41800000000E+01 0. -1.
        -11    1    1    2    0    0 -0.11517182507E+02 -0.22141364214E+02  0.86881547680E+01  0.26426682263E+02  0.00000000000E+00 0. -1.
         11    1    1    2    0    0  0.48965571030E+02  0.27472783569E+02 -0.61164249635E+02  0.83026781322E+02  0.00000000000E+00 0.  1.
</event>
<event>
 7    1  0.3056346E-009  0.1222379E+03  0.7561462E-02  0.1239450E+00
          3   -1    0    0  501    0  0.00000000000E+00  0.00000000000E+00  0.22707530490E+03  0.22707530490E+03  0.00000000000E+00 0. -1.
         -3   -1    0    0    0  501 -0.00000000000E+00 -0.00000000000E+00 -0.27219308188E+03  0.27219308188E+03  0.00000000000E+00 0.  1.
         25    2    1    2    0    0  0.73934229754E+02 -0.51888929303E+02  0.18172828867E+03  0.23839132787E+03  0.12508606231E+03 0.  0.
          5    1    3    3  502    0  0.10407816336E+03 -0.61706225826E+02  0.13056987265E+03  0.17806146814E+03  0.41800000000E+01 0. -1.
         -5    1    3    3    0  502 -0.30143933605E+02  0.98172965229E+01  0.51158416024E+02  0.60329859724E+02  0.41800000000E+01 0. -1.
        -11    1    1    2    0    0 -0.21331633864E+02  0.75290869508E+01  0.12224013910E+01  0.22654359818E+02  0.00000000000E+00 0. -1.
         11    1    1    2    0    0 -0.52602595890E+02  0.44359842352E+02 -0.22806846704E+03  0.23822269910E+03  0.00000000000E+00 0.  1.
</event>
<event>
 7    1  0.3056346E-009  0.8235985E+02  0.7561462E-02  0.1322485E+00
         -1   -1    0    0    0  501 -0.00000000000E+00  0.00000000000E+00  0.51495697856E+02  0.51495697856E+02  0.00000000000E+00 0.  1.
          1   -1    0    0  501    0  0.00000000000E+00 -0.00000000000E+00 -0.31671663573E+03  0.31671663573E+03  0.00000000000E+00 0. -1.
         25    2    1    2    0    0  0.57903401631E+01 -0.95450694502E+01 -0.24234863648E+03  0.27295582332E+03  0.12508950191E+03 0.  0.
          5    1    3    3  502    0 -0.38658577340E+02  0.18890421766E+02 -0.26486060768E+02  0.50698298309E+02  0.41800000000E+01 0. -1.
         -5    1    3    3    0  502  0.44448917503E+02 -0.28435491216E+02 -0.21586257572E+03  0.22225752501E+03  0.41800000000E+01 0. -1.
        -11    1    1    2    0    0  0.28494920149E+02 -0.86042556430E+01 -0.42416600991E+02  0.51818546188E+02  0.00000000000E+00 0. -1.
         11    1    1    2    0    0 -0.34285260312E+02  0.18149325093E+02  0.19544299605E+02  0.43437964076E+02  0.00000000000E+00 0.  1.
</event>
<event>
 7    1  0.3056346E-009  0.9316694E+02  0.7561462E-02  0.1295359E+00
         -2   -1    0    0    0  501 -0.00000000000E+00  0.00000000000E+00  0.33821999345E+02  0.33821999345E+02  0.00000000000E+00 0. -1.
          2   -1    0    0  501    0  0.00000000000E+00 -0.00000000000E+00 -0.41256772881E+03  0.41256772881E+03  0.00000000000E+00 0.  1.
         25    2    1    2    0    0  0.42343269035E+02 -0.16254284689E+02 -0.21818862689E+03  0.25556326093E+03  0.12509655962E+03 0.  0.
          5    1    3    3  502    0  0.70918862767E+01 -0.48276037685E+02 -0.22095618084E+02  0.53726710341E+02  0.41800000000E+01 0. -1.
         -5    1    3    3    0  502  0.35251382758E+02  0.32021752997E+02 -0.19609300880E+03  0.20183655059E+03  0.41800000000E+01 0. -1.
        -11    1    1    2    0    0 -0.65103916082E+00  0.41043525026E+02 -0.28041001116E+02  0.49712096537E+02  0.00000000000E+00 0. -1.
         11    1    1    2    0    0 -0.41692229874E+02 -0.24789240338E+02 -0.13251610146E+03  0.14111437069E+03  0.00000000000E+00 0.  1.
</event>
<event>
 7    1  0.3056346E-009  0.1101320E+03  0.7561462E-02  0.1260326E+00
         -1   -1    0    0    0  501 -0.00000000000E+00  0.00000000000E+00  0.94460129251E+02  0.94460129251E+02  0.00000000000E+00 0.  1.
          1   -1    0    0  501    0  0.00000000000E+00 -0.00000000000E+00 -0.20469436227E+03  0.20469436227E+03  0.00000000000E+00 0. -1.
         25    2    1    2    0    0  0.75774524907E+02 -0.32149845812E+01 -0.10647647909E+03  0.18092872620E+03  0.12508336666E+03 0.  0.
          5    1    3    3  502    0 -0.38033784876E+01 -0.48160231160E+02 -0.13158690319E+02  0.50244373658E+02  0.41800000000E+01 0. -1.
         -5    1    3    3    0  502  0.79577903395E+02  0.44945246579E+02 -0.93317788768E+02  0.13068435254E+03  0.41800000000E+01 0. -1.
        -11    1    1    2    0    0 -0.61377241125E+02 -0.81847020226E+01 -0.42669275375E+02  0.75198551424E+02  0.00000000000E+00 0. -1.
         11    1    1    2    0    0 -0.14397283782E+02  0.11399686604E+02  0.38911521441E+02  0.43027213898E+02  0.00000000000E+00 0.  1.
</event>
<event>
 7    1  0.3056346E-009  0.1598836E+03  0.7561462E-02  0.1188828E+00
         -2   -1    0    0    0  501 -0.00000000000E+00  0.00000000000E+00  0.36000234145E+03  0.36000234145E+03  0.00000000000E+00 0.  1.
          2   -1    0    0  501    0  0.00000000000E+00 -0.00000000000E+00 -0.11336006484E+03  0.11336006484E+03  0.00000000000E+00 0. -1.
         25    2    1    2    0    0  0.11682458149E+03  0.23156455624E+02 -0.13548779942E+02  0.17324942075E+03  0.12509031967E+03 0.  0.
          5    1    3    3  502    0 -0.23081461942E+02  0.22854383356E+02 -0.24582223828E+01  0.32841924140E+02  0.41800000000E+01 0.  1.
         -5    1    3    3    0  502  0.13990604343E+03  0.30207226814E+00 -0.11090557560E+02  0.14040749661E+03  0.41800000000E+01 0.  1.
        -11    1    1    2    0    0 -0.78748277021E+02  0.27735045610E+02  0.17428376612E+03  0.19324946319E+03  0.00000000000E+00 0. -1.
         11    1    1    2    0    0 -0.38076304468E+02 -0.50891501233E+02  0.85907290430E+02  0.10686352235E+03  0.00000000000E+00 0.  1.
</event>
<event>
 7    1  0.3056346E-009  0.7074914E+02  0.7561462E-02  0.1357564E+00
          2   -1    0    0  501    0  0.00000000000E+00  0.00000000000E+00  0.14517634782E+03  0.14517634782E+03  0.00000000000E+00 0. -1.
         -2   -1    0    0    0  501 -0.00000000000E+00 -0.00000000000E+00 -0.88337182574E+02  0.88337182574E+02  0.00000000000E+00 0.  1.
         25    2    1    2    0    0  0.50080310403E+01 -0.33756075217E+02  0.36229939906E+02  0.13463435435E+03  0.12509695375E+03 0.  0.
          5    1    3    3  502    0 -0.18590328129E+00 -0.48639184430E+02  0.76747162657E+02  0.90958255249E+02  0.41800000000E+01 0. -1.
         -5    1    3    3    0  502  0.51939343216E+01  0.14883109212E+02 -0.40517222751E+02  0.43676099105E+02  0.41800000000E+01 0. -1.
        -11    1    1    2    0    0 -0.36485739003E+02  0.22886535349E+02 -0.19048275592E+02  0.47093942858E+02  0.00000000000E+00 0.  1.
         11    1    1    2    0    0  0.31477707963E+02  0.10869539869E+02  0.39657500931E+02  0.51785233181E+02  0.00000000000E+00 0. -1.
</event>
<event>
 7    1  0.3056346E-009  0.9798714E+02  0.7561462E-02  0.1284587E+00
          1   -1    0    0  501    0  0.00000000000E+00  0.00000000000E+00  0.66782751196E+03  0.66782751196E+03  0.00000000000E+00 0. -1.
         -1   -1    0    0    0  501 -0.00000000000E+00 -0.00000000000E+00 -0.20010740858E+02  0.20010740858E+02  0.00000000000E+00 0.  1.
         25    2    1    2    0    0 -0.54483635531E+01 -0.29391408921E+02  0.43983318010E+03  0.45825217142E+03  0.12509311215E+03 0.  0.
          5    1    3    3  502    0 -0.50289581281E+02 -0.11912358492E+02  0.36831706249E+03  0.37194875613E+03  0.41800000000E+01 0.  1.
         -5    1    3    3    0  502  0.44841217728E+02 -0.17479050429E+02  0.71516117615E+02  0.86303415286E+02  0.41800000000E+01 0.  1.
        -11    1    1    2    0    0  0.12608956231E+02 -0.31799050908E+02  0.93790477733E+02  0.99833957796E+02  0.00000000000E+00 0. -1.
         11    1    1    2    0    0 -0.71605926782E+01  0.61190459829E+02  0.11419311327E+03  0.12975212360E+03  0.00000000000E+00 0.  1.
</event>
<event>
 7    1  0.3056346E-009  0.1030904E+03  0.7561462E-02  0.1273928E+00
          1   -1    0    0  501    0  0.00000000000E+00  0.00000000000E+00  0.37721925497E+03  0.37721925497E+03  0.00000000000E+00 0. -1.
         -1   -1    0    0    0  501 -0.00000000000E+00 -0.00000000000E+00 -0.66273691936E+02  0.66273691936E+02  0.00000000000E+00 0.  1.
         25    2    1    2    0    0  0.96117787512E+01  0.65875924166E+02  0.30531426439E+03  0.33659622208E+03  0.12509273761E+03 0.  0.
          5    1    3    3  502    0  0.58543479284E+02  0.68740537824E+02  0.16860277766E+03  0.19130334431E+03  0.41800000000E+01 0. -1.
         -5    1    3    3    0  502 -0.48931700532E+02 -0.28646136582E+01  0.13671148673E+03  0.14529287778E+03  0.41800000000E+01 0. -1.
        -11    1    1    2    0    0 -0.17805100413E+01 -0.17870885256E+02 -0.37697485391E+02  0.41756905544E+02  0.00000000000E+00 0.  1.
         11    1    1    2    0    0 -0.78312687100E+01 -0.48005038910E+02  0.43328784035E+02  0.65139819283E+02  0.00000000000E+00 0. -1.
</event>
<event>
 7    1  0.3056346E-009  0.8070323E+02  0.7561462E-02  0.1327068E+00
          2   -1    0    0  501    0  0.00000000000E+00  0.00000000000E+00  0.26833200498E+03  0.26833200498E+03  0.00000000000E+00 0. -1.
         -2   -1    0    0    0  501 -0.00000000000E+00 -0.00000000000E+00 -0.59967878537E+02  0.59967878537E+02  0.00000000000E+00 0.  1.
         25    2    1    2    0    0  0.68234453319E+02  0.80637165167E+01  0.16889251871E+03  0.22111775065E+03  0.12508961840E+03 0.  0.
          5    1    3    3  502    0  0.25802845614E+02  0.24117830825E+02  0.17182205527E+03  0.17546437725E+03  0.41800000000E+01 0. -1.
         -5    1    3    3    0  502  0.42431607705E+02 -0.16054114308E+02 -0.29295365586E+01  0.45653373403E+02  0.41800000000E+01 0. -1.
        -11    1    1    2    0    0 -0.52106008748E+02 -0.24213485363E+02 -0.45068811565E+01  0.57633679380E+02  0.00000000000E+00 0.  1.
         11    1    1    2    0    0 -0.16128444571E+02  0.16149768846E+02  0.43978488889E+02  0.49548453488E+02  0.00000000000E+00 0. -1.
</event>
<event>
 7    1  0.3056346E-009  0.1052226E+03  0.7561462E-02  0.1269682E+00
          1   -1    0    0  501    0  0.00000000000E+00  0.00000000000E+00  0.73289457942E+02  0.73289457942E+02  0.00000000000E+00 0. -1.
         -1   -1    0    0    0  501 -0.00000000000E+00 -0.00000000000E+00 -0.21448698916E+03  0.21448698916E+03  0.00000000000E+00 0.  1.
         25    2    1    2    0    0  0.10418741747E+02  0.16291382255E+02 -0.15148563454E+03  0.19740375137E+03  0.12508550783E+03 0.  0.
          5    1    3    3  502    0  0.53250662342E+02 -0.30494390417E+02 -0.89655679067E+02  0.10872513084E+03  0.41800000000E+01 0. -1.
         -5    1    3    3    0  502 -0.42831920595E+02  0.46785772672E+02 -0.61829955469E+02  0.88678620533E+02  0.41800000000E+01 0. -1.
        -11    1    1    2    0    0 -0.84522362061E+01 -0.50451098111E+02  0.19810224311E+02  0.54856162687E+02  0.00000000000E+00 0. -1.
         11    1    1    2    0    0 -0.19665055407E+01  0.34159715856E+02 -0.95221209957E+01  0.35516533046E+02  0.00000000000E+00 0.  1.
</event>
<event>
 7    1  0.3056346E-009  0.9064799E+02  0.7561462E-02  0.1301290E+00
          2   -1    0    0  501    0  0.00000000000E+00  0.00000000000E+00  0.26874493644E+03  0.26874493644E+03  0.00000000000E+00 0. -1.
         -2   -1    0    0    0  501 -0.00000000000E+00 -0.00000000000E+00 -0.56195084776E+02  0.56195084776E+02  0.00000000000E+00 0.  1.
         25    2    1    2    0    0 -0.45209045637E+02  0.30213108442E+02  0.97120255341E+02  0.16744150108E+03  0.12509045749E+03 0.  0.
          5    1    3    3  502    0 -0.46127699030E+02 -0.52659081353E+01 -0.15628249904E+02  0.49165119763E+02  0.41800000000E+01 0. -1.
         -5    1    3    3    0  502  0.91865339227E+00  0.35479016577E+02  0.11274850524E+03  0.11827638131E+03  0.41800000000E+01 0. -1.
        -11    1    1    2    0    0  0.21537704802E+01  0.27142050049E+02  0.63086644051E+02  0.68711383815E+02  0.00000000000E+00 0. -1.
         11    1    1    2    0    0  0.43055275157E+02 -0.57355158491E+02  0.52342952271E+02  0.88787136325E+02  0.00000000000E+00 0.  1.
</event>
<event>
 7    1  0.3056346E-009  0.8565732E+02  0.7561462E-02  0.1313722E+00
         -2   -1    0    0    0  501 -0.00000000000E+00  0.00000000000E+00  0.11233497336E+03  0.11233497336E+03  0.00000000000E+00 0.  1.
          2   -1    0    0  501    0  0.00000000000E+00 -0.00000000000E+00 -0.22618919772E+03  0.22618919772E+03  0.00000000000E+00 0. -1.
         25    2    1    2    0    0  0.39595680524E+02 -0.12735995516E+02  0.54165650613E+02  0.14252255165E+03  0.12509491007E+03 0.  0.
          5    1    3    3  502    0  0.64390716240E+02  0.24809409636E+02 -0.35490773503E+01  0.69222391568E+02  0.41800000000E+01 0. -1.
         -5    1    3    3    0  502 -0.24795035716E+02 -0.37545405151E+02  0.57714727964E+02  0.73300160082E+02  0.41800000000E+01 0. -1.
        -11    1    1    2    0    0 -0.77018184721E+01  0.22386012431E+02  0.10326548039E+01  0.23696369686E+02  0.00000000000E+00 0.  1.
         11    1    1    2    0    0 -0.31893862052E+02 -0.96500169152E+01 -0.16905252978E+03  0.17230524974E+03  0.00000000000E+00 0. -1.
</event>
<event>
 7    1  0.3056346E-009  0.1984046E+03  0.7561462E-02  0.1151092E+00
         -1   -1    0    0    0  501 -0.00000000000E+00  0.00000000000E+00  0.48598998282E+02  0.48598998282E+02  0.00000000000E+00 0.  1.
          1   -1    0    0  501    0  0.00000000000E+00 -0.00000000000E+00 -0.10177554281E+04  0.10177554281E+04  0.00000000000E+00 0. -1.
         25    2    1    2    0    0  0.15782670031E+03 -0.89527829445E+02 -0.33813764307E+03  0.40362439315E+03  0.12510429853E+03 0.  0.
          5    1    3    3  502    0  0.81301371666E+02  0.38766911579E+01 -0.22013569935E+03  0.23473845083E+03  0.41800000000E+01 0. -1.
         -5    1    3    3    0  502  0.76525328645E+02 -0.93404520603E+02 -0.11800194372E+03  0.16888594233E+03  0.41800000000E+01 0. -1.
        -11    1    1    2    0    0 -0.11607424142E+02 -0.11828546467E+02 -0.18231835951E+02  0.24638316681E+02  0.00000000000E+00 0.  1.
         11    1    1    2    0    0 -0.14621927617E+03  0.10135637591E+03 -0.61278695083E+03  0.63809171658E+03  0.00000000000E+00 0. -1.
</event>
<event>
 7    1  0.3056346E-009  0.1122975E+03  0.7561462E-02  0.1256373E+00
         -1   -1    0    0    0  501 -0.00000000000E+00  0.00000000000E+00  0.77944947748E+02  0.77944947748E+02  0.00000000000E+00 0.  1.
          1   -1    0    0  501    0  0.00000000000E+00 -0.00000000000E+00 -0.21217851330E+03  0.21217851330E+03  0.00000000000E+00 0. -1.
         25    2    1    2    0    0  0.52097428135E+01 -0.50727313829E+02 -0.28175819260E+02  0.13798727736E+03  0.12508481176E+03 0.  0.
          5    1    3    3  502    0  0.43542381461E+02 -0.76874890127E+02 -0.20090366075E+02  0.90701614784E+02  0.41800000000E+01 0.  1.
         -5    1    3    3    0  502 -0.38332638648E+02  0.26147576298E+02 -0.80854531852E+01  0.47285662575E+02  0.41800000000E+01 0.  1.
        -11    1    1    2    0    0  0.39418991427E+01  0.69004422488E+02 -0.11131795401E+03  0.13102990414E+03  0.00000000000E+00 0. -1.
         11    1    1    2    0    0 -0.91516419562E+01 -0.18277108659E+02  0.52602077208E+01  0.21106279556E+02  0.00000000000E+00 0.  1.
</event>
<event>
 7    1  0.3056346E-009  0.1177099E+03  0.7561462E-02  0.1246923E+00
          1   -1    0    0  501    0  0.00000000000E+00  0.00000000000E+00  0.32976522280E+03  0.32976522280E+03  0.00000000000E+00 0.  1.
         -1   -1    0    0    0  501 -0.00000000000E+00 -0.00000000000E+00 -0.48030640545E+02  0.48030640545E+02  0.00000000000E+00 0. -1.
         25    2    1    2    0    0  0.46950602305E+02 -0.25986174869E+02  0.10738058043E+03  0.17337132923E+03  0.12508952156E+03 0.  0.
          5    1    3    3  502    0  0.69792318814E+02 -0.61685935991E+02  0.78851433007E+02  0.12211119257E+03  0.41800000000E+01 0. -1.
         -5    1    3    3    0  502 -0.22841716509E+02  0.35699761122E+02  0.28529147420E+02  0.51260136653E+02  0.41800000000E+01 0. -1.
        -11    1    1    2    0    0 -0.53071273004E+02  0.51142412005E+02  0.90779542092E+02  0.11693173900E+03  0.00000000000E+00 0. -1.
         11    1    1    2    0    0  0.61206706985E+01 -0.25156237136E+02  0.83574459735E+02  0.87492795112E+02  0.00000000000E+00 0.  1.
</event>
<event>
 7    1  0.3056346E-009  0.1444628E+03  0.7561462E-02  0.1207447E+00
          3   -1    0    0  501    0  0.00000000000E+00  0.00000000000E+00  0.40849552075E+02  0.40849552075E+02  0.00000000000E+00 0. -1.
         -3   -1    0    0    0  501 -0.00000000000E+00 -0.00000000000E+00 -0.70069507913E+03  0.70069507913E+03  0.00000000000E+00 0.  1.
         25    2    1    2    0    0 -0.10704136630E+03  0.27689020567E+01 -0.51333594031E+03  0.53909834335E+03  0.12509082807E+03 0.  0.
          5    1    3    3  502    0 -0.84713808748E+02  0.56568573638E+02 -0.38187644197E+03  0.39525121410E+03  0.41800000000E+01 0.  1.
         -5    1    3    3    0  502 -0.22327557548E+02 -0.53799671581E+02 -0.13145949834E+03  0.14384712925E+03  0.41800000000E+01 0.  1.
        -11    1    1    2    0    0  0.96473510184E+02  0.24326305033E+02 -0.14143433235E+03  0.17292361797E+03  0.00000000000E+00 0.  1.
         11    1    1    2    0    0  0.10567856112E+02 -0.27095207089E+02 -0.50752543870E+01  0.29522669885E+02  0.00000000000E+00 0. -1.
</event>
<event>
 7    1  0.3056346E-009  0.1931885E+03  0.7561462E-02  0.1155617E+00
          1   -1    0    0  501    0  0.00000000000E+00  0.00000000000E+00  0.55583980023E+03  0.55583980023E+03  0.00000000000E+00 0. -1.
         -1   -1    0    0    0  501 -0.00000000000E+00 -0.00000000000E+00 -0.81914099071E+02  0.81914099071E+02  0.00000000000E+00 0.  1.
         25    2    1    2    0    0 -0.18021970023E+03  0.56181717555E+02  0.23671235964E+03  0.32759146985E+03  0.12509158314E+03 0.  0.
          5    1    3    3  502    0 -0.15814812057E+03  0.26659430457E+02  0.10740268687E+03  0.19306569560E+03  0.41800000000E+01 0. -1.
         -5    1    3    3    0  502 -0.22071579663E+02  0.29522287098E+02  0.12930967277E+03  0.13452577425E+03  0.41800000000E+01 0. -1.
        -11    1    1    2    0    0  0.12481992462E+03 -0.41427763426E+02  0.20729571437E+03  0.24549498235E+03  0.00000000000E+00 0. -1.
         11    1    1    2    0    0  0.55399775614E+02 -0.14753954129E+02  0.29917627151E+02  0.64667447103E+02  0.00000000000E+00 0.  1.
</event>
<event>
 7    1  0.3056346E-009  0.1281596E+03  0.7561462E-02  0.1230212E+00
          1   -1    0    0  501    0  0.00000000000E+00  0.00000000000E+00  0.96164432142E+03  0.96164432142E+03  0.00000000000E+00 0. -1.
         -1   -1    0    0    0  501 -0.00000000000E+00 -0.00000000000E+00 -0.64406691721E+02  0.64406691721E+02  0.00000000000E+00 0.  1.
         25    2    1    2    0    0 -0.56703274164E+02  0.10097445683E+03  0.87565819082E+03  0.89209751774E+03  0.12509840834E+03 0.  0.
          5    1    3    3  502    0 -0.54132172427E+02  0.11401664172E+03  0.48437839497E+03  0.50056966408E+03  0.41800000000E+01 0.  1.
         -5    1    3    3    0  502 -0.25711017375E+01 -0.13042184889E+02  0.39127979586E+03  0.39152785366E+03  0.41800000000E+01 0.  1.
        -11    1    1    2    0    0  0.17302132505E+02 -0.38941784951E+02  0.39726179157E+02  0.58258009877E+02  0.00000000000E+00 0. -1.
         11    1    1    2    0    0  0.39401141659E+02 -0.62032671883E+02 -0.18146740285E+02  0.75695485519E+02  0.00000000000E+00 0.  1.
</event>
<event>
 7    1  0.3056346E-009  0.3676593E+03  0.7561462E-02  0.1055592E+00
          2   -1    0    0  501    0  0.00000000000E+00  0.00000000000E+00  0.11716960265E+04  0.11716960265E+04  0.00000000000E+00 0. -1.
         -2   -1    0    0    0  501 -0.00000000000E+00 -0.00000000000E+00 -0.12144401940E+03  0.12144401940E+03  0.00000000000E+00 0.  1.
         25    2    1    2    0    0  0.10606358579E+03 -0.34138837750E+03  0.44603243499E+03  0.58513926064E+03  0.12509001863E+03 0.  0.
          5    1    3    3  502    0  0.57944548998E+02 -0.31897917395E+03  0.39875035449E+03  0.51393054178E+03  0.41800000000E+01 0. -1.
         -5    1    3    3    0  502  0.48119036790E+02 -0.22409203557E+02  0.47282080499E+02  0.71208718862E+02  0.41800000000E+01 0. -1.
        -11    1    1    2    0    0 -0.98253317833E+02  0.29854847485E+03  0.57581695822E+03  0.65601072832E+03  0.00000000000E+00 0. -1.
         11    1    1    2    0    0 -0.78102679547E+01  0.42839902652E+02  0.28402613907E+02  0.51990056948E+02  0.00000000000E+00 0.  1.
</event>
<event>
 7    1  0.3056346E-009  0.9656002E+02  0.7561462E-02  0.1287701E+00
         -2   -1    0    0    0  501 -0.00000000000E+00  0.00000000000E+00  0.16160338902E+03  0.16160338902E+03  0.00000000000E+00 0.  1.
          2   -1    0    0  501    0  0.00000000000E+00 -0.00000000000E+00 -0.10706733707E+03  0.10706733707E+03  0.00000000000E+00 0. -1.
         25    2    1    2    0    0  0.86674123729E+01 -0.73915651024E+02  0.40597096888E+02  0.15111108505E+03  0.12509111978E+03 0.  0.
          5    1    3    3  502    0  0.14182119268E+02 -0.38495212237E+02 -0.43291711250E+02  0.59788448174E+02  0.41800000000E+01 0.  1.
         -5    1    3    3    0  502 -0.55147068955E+01 -0.35420438787E+02  0.83888808138E+02  0.91322636880E+02  0.41800000000E+01 0.  1.
        -11    1    1    2    0    0  0.40228720447E+02  0.32637519461E+02 -0.11456573630E+01  0.51815732709E+02  0.00000000000E+00 0. -1.
         11    1    1    2    0    0 -0.48896132820E+02  0.41278131563E+02  0.15084612419E+02  0.65743908325E+02  0.00000000000E+00 0.  1.
</event>
<event>
 7    1  0.3056346E-009  0.1637113E+03  0.7561462E-02  0.1184569E+00
          2   -1    0    0  501    0  0.00000000000E+00  0.00000000000E+00  0.10384997162E+03  0.10384997162E+03  0.00000000000E+00 0.  1.
         -2   -1    0    0    0  501 -0.00000000000E+00 -0.00000000000E+00 -0.41213441783E+03  0.41213441783E+03  0.00000000000E+00 0. -1.
         25    2    1    2    0    0 -0.32519545716E+02  0.14439103695E+03 -0.27883335959E+03  0.33956128142E+03  0.12509008357E+03 0.  0.
          5    1    3    3  502    0 -0.62307461700E+02  0.83364721566E+02 -0.23902501236E+03  0.26073420474E+03  0.41800000000E+01 0.  1.
         -5    1    3    3    0  502  0.29787915984E+02  0.61026315386E+02 -0.39808347232E+02  0.78827076678E+02  0.41800000000E+01 0.  1.
        -11    1    1    2    0    0 -0.38692467955E+01 -0.88176010743E+02 -0.55845112395E+02  0.10444451407E+03  0.00000000000E+00 0. -1.
         11    1    1    2    0    0  0.36388792511E+02 -0.56215026209E+02  0.26394025780E+02  0.71978593964E+02  0.00000000000E+00 0.  1.
</event>
<event>
 6    1  0.3056346E-009  0.1119180E+03  0.7561462E-02  0.1257059E+00
         -1   -1    0    0    0  501 -0.00000000000E+00  0.00000000000E+00  0.47904747751E+03  0.47904747751E+03  0.00000000000E+00 0.  1.
          1   -1    0    0  501    0  0.00000000000E+00 -0.00000000000E+00 -0.29299234943E+02  0.29299234943E+02  0.00000000000E+00 0. -1.
          5    1    1    2  502    0  0.38160453362E+02 -0.12453620548E+02  0.15574419471E+03  0.16088828252E+03  0.41800000000E+01 0.  1.
         -5    1    1    2    0  502 -0.76426371118E+02  0.33644533121E+02  0.13834113678E+03  0.16164370491E+03  0.41800000000E+01 0.  1.
        -11    1    1    2    0    0 -0.29604980091E+02 -0.41768681555E+01  0.62681171754E+02  0.69446600825E+02  0.00000000000E+00 0.  1.
         11    1    1    2    0    0  0.67870897847E+02 -0.17014044418E+02  0.92981739318E+02  0.11636812420E+03  0.00000000000E+00 0. -1.
</event>
<event>
 7    1  0.3056346E-009  0.1137774E+03  0.7561462E-02  0.1253730E+00
          2   -1    0    0  501    0  0.00000000000E+00  0.00000000000E+00  0.73086821993E+03  0.73086821993E+03  0.00000000000E+00 0. -1.
         -2   -1    0    0    0  501 -0.00000000000E+00 -0.00000000000E+00 -0.22483491733E+02  0.22483491733E+02  0.00000000000E+00 0.  1.
         25    2    1    2    0    0  0.11041654316E+02 -0.62652233210E+02  0.42849684524E+03  0.45089493093E+03  0.12509784929E+03 0.  0.
          5    1    3    3  502    0  0.59595938264E+02  0.10231098520E+01  0.16612240861E+03  0.17654135395E+03  0.41800000000E+01 0.  1.
         -5    1    3    3    0  502 -0.48554283948E+02 -0.63675343062E+02  0.26237443663E+03  0.27435357698E+03  0.41800000000E+01 0.  1.
        -11    1    1    2    0    0 -0.12452033366E+02 -0.93697310872E+01  0.23952313139E+01  0.15766487518E+02  0.00000000000E+00 0.  1.
         11    1    1    2    0    0  0.14103790504E+01  0.72021964297E+02  0.27749265164E+03  0.28669029322E+03  0.00000000000E+00 0. -1.
</event>
<event>
 7    1  0.3056346E-009  0.8718915E+02  0.7561462E-02  0.1309805E+00
         -2   -1    0    0    0  501 -0.00000000000E+00  0.00000000000E+00  0.28980423088E+03  0.28980423088E+03  0.00000000000E+00 0.  1.
          2   -1    0    0  501    0  0.00000000000E+00 -0.00000000000E+00 -0.72096135854E+02  0.72096135854E+02  0.00000000000E+00 0. -1.
         25    2    1    2    0    0 -0.50088760475E+02  0.35270674227E+02  0.27482864096E+02  0.14196919932E+03  0.12508813433E+03 0.  0.
          5    1    3    3  502    0  0.85537313613E+01  0.51132857172E+01  0.65063470632E+02  0.65954830162E+02  0.41800000000E+01 0. -1.
         -5    1    3    3    0  502 -0.58642491836E+02  0.30157388510E+02 -0.37580606536E+02  0.76014369155E+02  0.41800000000E+01 0. -1.
        -11    1    1    2    0    0  0.55933119684E+01  0.23288487795E+02  0.10342757626E+03  0.10616450600E+03  0.00000000000E+00 0.  1.
         11    1    1    2    0    0  0.44495448507E+02 -0.58559162022E+02  0.86797654672E+02  0.11376666142E+03  0.00000000000E+00 0. -1.
</event>
<event>
 7    1  0.3056346E-009  0.1582600E+03  0.7561462E-02  0.1190675E+00
         -2   -1    0    0    0  501 -0.00000000000E+00  0.00000000000E+00  0.27659854362E+02  0.27659854362E+02  0.00000000000E+00 0.  1.
          2   -1    0    0  501    0  0.00000000000E+00 -0.00000000000E+00 -0.12013664690E+04  0.12013664690E+04  0.00000000000E+00 0. -1.
         25    2    1    2    0    0 -0.11717497923E+03  0.84907142119E+02 -0.68880695843E+03  0.71487274815E+03  0.12509524981E+03 0.  0.
          5    1    3    3  502    0 -0.87274403500E+02  0.52837001146E+02 -0.64399168665E+03  0.65203629889E+03  0.41800000000E+01 0. -1.
         -5    1    3    3    0  502 -0.29900575731E+02  0.32070140973E+02 -0.44815271787E+02  0.62836449266E+02  0.41800000000E+01 0. -1.
        -11    1    1    2    0    0  0.13057994318E+03 -0.86845051506E+02 -0.45658836625E+03  0.48276922098E+03  0.00000000000E+00 0. -1.
         11    1    1    2    0    0 -0.13404963949E+02  0.19379093863E+01 -0.28311289929E+02  0.31384354203E+02  0.00000000000E+00 0.  1.
</event>
<event>
 7    1  0.3056346E-009  0.9879228E+02  0.7561462E-02  0.1282856E+00
         -2   -1    0    0    0  501 -0.00000000000E+00  0.00000000000E+00  0.69731442423E+02  0.69731442423E+02  0.00000000000E+00 0.  1.
          2   -1    0    0  501    0  0.00000000000E+00 -0.00000000000E+00 -0.36373753335E+03  0.36373753335E+03  0.00000000000E+00 0. -1.
         25    2    1    2    0    0 -0.10271119941E+02  0.60075014319E+02 -0.22732456497E+02  0.14099181762E+03  0.12508966707E+03 0.  0.
          5    1    3    3  502    0 -0.38383218078E+02  0.56455071201E+01  0.38114876139E+02  0.54546854756E+02  0.41800000000E+01 0.  1.
         -5    1    3    3    0  502  0.28112098136E+02  0.54429507199E+02 -0.60847332636E+02  0.86444962864E+02  0.41800000000E+01 0.  1.
        -11    1    1    2    0    0 -0.55287968293E+01 -0.75132130196E+02 -0.25310613624E+03  0.26407976216E+03  0.00000000000E+00 0. -1.
         11    1    1    2    0    0  0.15799916771E+02  0.15057115877E+02 -0.18167498193E+02  0.28397395991E+02  0.00000000000E+00 0.  1.
</event>
<event>
 7    1  0.3056346E-009  0.1585977E+03  0.7561462E-02  0.1190289E+00
          2   -1    0    0  501    0  0.00000000000E+00  0.00000000000E+00  0.93127865841E+03  0.93127865841E+03  0.00000000000E+00 0. -1.
         -2   -1    0    0    0  501 -0.00000000000E+00 -0.00000000000E+00 -0.39808395044E+02  0.39808395044E+02  0.00000000000E+00 0.  1.
         25    2    1    2    0    0  0.81619019094E+02 -0.82718865013E+02  0.74040016497E+03  0.75983268983E+03  0.12509691179E+03 0.  0.
          5    1    3    3  502    0 -0.32739013119E+02 -0.12613742023E+02  0.12055745734E+03  0.12562850946E+03  0.41800000000E+01 0. -1.
         -5    1    3    3    0  502  0.11435803221E+03 -0.70105122990E+02  0.61984270762E+03  0.63420418036E+03  0.41800000000E+01 0. -1.
        -11    1    1    2    0    0 -0.45656164256E+02  0.98363447497E+02  0.11192050313E+03  0.15583982854E+03  0.00000000000E+00 0. -1.
         11    1    1    2    0    0 -0.35962854838E+02 -0.15644582484E+02  0.39149595268E+02  0.55414535087E+02  0.00000000000E+00 0.  1.
</event>
<event>
 7    1  0.3056346E-009  0.1027511E+03  0.7561462E-02  0.1274615E+00
         -2   -1    0    0    0  501 -0.00000000000E+00  0.00000000000E+00  0.38524571398E+02  0.38524571398E+02  0.00000000000E+00 0.  1.
          2   -1    0    0  501    0  0.00000000000E+00 -0.00000000000E+00 -0.31783149353E+03  0.31783149353E+03  0.00000000000E+00 0. -1.
         25    2    1    2    0    0  0.95745536138E+01  0.90585827620E+01 -0.19056265728E+03  0.22833402832E+03  0.12509425304E+03 0.  0.
          5    1    3    3  502    0 -0.37221921285E+02 -0.40273140781E+02 -0.62308986262E+02  0.83110044288E+02  0.41800000000E+01 0. -1.
         -5    1    3    3    0  502  0.46796474899E+02  0.49331723543E+02 -0.12825367102E+03  0.14522398404E+03  0.41800000000E+01 0. -1.
        -11    1    1    2    0    0 -0.45048405945E+02  0.23656112828E+01 -0.76471206019E+02  0.88785135833E+02  0.00000000000E+00 0. -1.
         11    1    1    2    0    0  0.35473852331E+02 -0.11424194045E+02 -0.12273058834E+02  0.39236900769E+02  0.00000000000E+00 0.  1.
</event>
<event>
 7    1  0.3056346E-009  0.1871890E+03  0.7561462E-02  0.1161021E+00
         -1   -1    0    0    0  501 -0.00000000000E+00  0.00000000000E+00  0.38614866374E+03  0.38614866374E+03  0.00000000000E+00 0.  1.
          1   -1    0    0  501    0  0.00000000000E+00 -0.00000000000E+00 -0.11415420287E+03  0.11415420287E+03  0.00000000000E+00 0. -1.
         25    2    1    2    0    0 -0.74828867027E+02  0.14710740253E+03  0.58198009970E+02  0.21511432594E+03  0.12508883900E+03 0.  0.
          5    1    3    3  502    0 -0.97488864889E+02  0.69065231991E+02  0.59919731190E+02  0.13372333990E+03  0.41800000000E+01 0. -1.
         -5    1    3    3    0  502  0.22659997862E+02  0.78042170539E+02 -0.17217212200E+01  0.81390986046E+02  0.41800000000E+01 0. -1.
        -11    1    1    2    0    0  0.74363785383E+02 -0.91764722712E+02  0.19258225606E+03  0.22591737928E+03  0.00000000000E+00 0.  1.
         11    1    1    2    0    0  0.46508164395E+00 -0.55342679818E+02  0.21214194839E+02  0.59271161395E+02  0.00000000000E+00 0. -1.
</event>
<event>
 7    1  0.3056346E-009  0.1417836E+03  0.7561462E-02  0.1210949E+00
         -3   -1    0    0    0  501 -0.00000000000E+00  0.00000000000E+00  0.38774082225E+02  0.38774082225E+02  0.00000000000E+00 0.  1.
          3   -1    0    0  501    0  0.00000000000E+00 -0.00000000000E+00 -0.76262538245E+03  0.76262538245E+03  0.00000000000E+00 0. -1.
         25    2    1    2    0    0  0.83198148522E+02  0.51516894527E+02 -0.17508566499E+03  0.23638282878E+03  0.12508368927E+03 0.  0.
          5    1    3    3  502    0  0.10250955075E+03  0.70898523401E+02 -0.16521400615E+03  0.20699746096E+03  0.41800000000E+01 0. -1.
         -5    1    3    3    0  502 -0.19311402229E+02 -0.19381628874E+02 -0.98716588329E+01  0.29385367821E+02  0.41800000000E+01 0. -1.
        -11    1    1    2    0    0 -0.79007420223E+02  0.48648834104E+00 -0.26630784648E+03  0.27778098966E+03  0.00000000000E+00 0.  1.
         11    1    1    2    0    0 -0.41907282988E+01 -0.52003382868E+02 -0.28245778876E+03  0.28723564623E+03  0.00000000000E+00 0. -1.
</event>
<event>
 7    1  0.3056346E-009  0.8381245E+02  0.7561462E-02  0.1318568E+00
          2   -1    0    0  501    0  0.00000000000E+00  0.00000000000E+00  0.74888543808E+03  0.74888543808E+03  0.00000000000E+00 0.  1.
         -2   -1    0    0    0  501 -0.00000000000E+00 -0.00000000000E+00 -0.29990408850E+02  0.29990408850E+02  0.00000000000E+00 0. -1.
         25    2    1    2    0    0  0.32205005872E+01 -0.60961764351E+02  0.60478125769E+03  0.62059168584E+03  0.12508781930E+03 0.  0.
          5    1    3    3  502    0 -0.17782094062E+02 -0.52606431458E+02  0.59135462318E+03  0.59397087661E+03  0.41800000000E+01 0.  1.
         -5    1    3    3    0  502  0.21002594649E+02 -0.83553328931E+01  0.13426634511E+02  0.26620809230E+02  0.41800000000E+01 0.  1.
        -11    1    1    2    0    0 -0.24906046817E+02  0.71123461296E+00  0.83821329077E+02  0.87446167618E+02  0.00000000000E+00 0.  1.
         11    1    1    2    0    0  0.21685546230E+02  0.60250529739E+02  0.30292442456E+02  0.70837993471E+02  0.00000000000E+00 0. -1.
</event>
<event>
 7    1  0.3056346E-009  0.1560081E+03  0.7561462E-02  0.1193279E+00
          1   -1    0    0  501    0  0.00000000000E+00  0.00000000000E+00  0.46254959202E+03  0.46254959202E+03  0.00000000000E+00 0. -1.
         -1   -1    0    0    0  501 -0.00000000000E+00 -0.00000000000E+00 -0.56843754553E+02  0.56843754553E+02  0.00000000000E+00 0.  1.
         25    2    1    2    0    0  0.11239677497E+03  0.41210667642E+02  0.22956583463E+03  0.28753471015E+03  0.12507750781E+03 0.  0.
          5    1    3    3  502    0  0.12590539960E+03 -0.94897579086E+00  0.19024940295E+03  0.22817839058E+03  0.41800000000E+01 0. -1.
         -5    1    3    3    0  502 -0.13508624622E+02  0.42159643433E+02  0.39316431674E+02  0.59356319572E+02  0.41800000000E+01 0. -1.
        -11    1    1    2    0    0  0.75348035587E+00 -0.27592997725E+02  0.73398380328E+02  0.78417239756E+02  0.00000000000E+00 0. -1.
         11    1    1    2    0    0 -0.11315025533E+03 -0.13617669917E+02  0.10274162251E+03  0.15344139667E+03  0.00000000000E+00 0.  1.
</event>
<event>
 7    1  0.3056346E-009  0.1518206E+03  0.7561462E-02  0.1198254E+00
          2   -1    0    0  501    0  0.00000000000E+00  0.00000000000E+00  0.82218743989E+03  0.82218743989E+03  0.00000000000E+00 0. -1.
         -2   -1    0    0    0  501 -0.00000000000E+00 -0.00000000000E+00 -0.42751622281E+02  0.42751622281E+02  0.00000000000E+00 0.  1.
         25    2    1    2    0    0 -0.45454280136E+02  0.13370967940E+03  0.27691006590E+03  0.33506633042E+03  0.12508353702E+03 0.  0.
          5    1    3    3  502    0 -0.30420565028E+02  0.10709491136E+03  0.28253366597E+03  0.30370623244E+03  0.41800000000E+01 0. -1.
         -5    1    3    3    0  502 -0.15033715109E+02  0.26614768037E+02 -0.56236000655E+01  0.31360097980E+02  0.41800000000E+01 0. -1.
        -11    1    1    2    0    0  0.67252931179E+02 -0.88170125698E+02  0.26916575407E+03  0.29111360494E+03  0.00000000000E+00 0.  1.
         11    1    1    2    0    0 -0.21798651043E+02 -0.45539553701E+02  0.23335999765E+03  0.23875912682E+03  0.00000000000E+00 0. -1.
</event>
<event>
 7    1  0.3056346E-009  0.1043108E+03  0.7561462E-02  0.1271483E+00
         -1   -1    0    0    0  501 -0.00000000000E+00  0.00000000000E+00  0.48286655208E+02  0.48286655208E+02  0.00000000000E+00 0.  1.
          1   -1    0    0  501    0  0.00000000000E+00 -0.00000000000E+00 -0.26851264844E+03  0.26851264844E+03  0.00000000000E+00 0. -1.
         25    2    1    2    0    0 -0.87292363912E+01  0.28074044684E+02 -0.13147058849E+03  0.18383977194E+03  0.12509274382E+03 0.  0.
          5    1    3    3  502    0 -0.56978580172E+02  0.10237834743E+02 -0.20676107731E+02  0.61614492528E+02  0.41800000000E+01 0.  1.
         -5    1    3    3    0  502  0.48249343781E+02  0.17836209941E+02 -0.11079448076E+03  0.12222527941E+03  0.41800000000E+01 0.  1.
        -11    1    1    2    0    0 -0.29564585600E+02  0.21334726468E+02 -0.34247858749E+02  0.50021506415E+02  0.00000000000E+00 0.  1.
         11    1    1    2    0    0  0.38293821991E+02 -0.49408771151E+02 -0.54507545993E+02  0.82938025293E+02  0.00000000000E+00 0. -1.
</event>
<event>
 7    1  0.3056346E-009  0.7363753E+02  0.7561462E-02  0.1348143E+00
         -1   -1    0    0    0  501 -0.00000000000E+00  0.00000000000E+00  0.10906055340E+04  0.10906055340E+04  0.00000000000E+00 0.  1.
          1   -1    0    0  501    0  0.00000000000E+00 -0.00000000000E+00 -0.12562112087E+02  0.12562112087E+02  0.00000000000E+00 0. -1.
         25    2    1    2    0    0  0.31234541020E+02  0.33068627559E+02  0.72014414864E+03  0.73234161934E+03  0.12509005524E+03 0.  0.
          5    1    3    3  502    0  0.18900216802E+02  0.33527813505E+02  0.71810945624E+03  0.71915227596E+03  0.41800000000E+01 0.  1.
         -5    1    3    3    0  502  0.12334324218E+02 -0.45918594589E+00  0.20346923944E+01  0.13189343380E+02  0.41800000000E+01 0.  1.
        -11    1    1    2    0    0 -0.60369533670E+02 -0.24590991124E+02  0.27276353254E+03  0.28044454376E+03  0.00000000000E+00 0.  1.
         11    1    1    2    0    0  0.29134992651E+02 -0.84776364352E+01  0.85135740716E+02  0.90381482969E+02  0.00000000000E+00 0. -1.
</event>
<event>
 7    1  0.3056346E-009  0.1113667E+03  0.7561462E-02  0.1258060E+00
          2   -1    0    0  501    0  0.00000000000E+00  0.00000000000E+00  0.15529821135E+04  0.15529821135E+04  0.00000000000E+00 0.  1.
         -2   -1    0    0    0  501 -0.00000000000E+00 -0.00000000000E+00 -0.13959694676E+02  0.13959694676E+02  0.00000000000E+00 0. -1.
         25    2    1    2    0    0 -0.43010372050E+02 -0.75617295456E+01  0.13249633735E+04  0.13315718032E+04  0.12509378165E+03 0.  0.
          5    1    3    3  502    0 -0.77747205024E+02  0.25542655900E+02  0.70662609141E+03  0.71136134321E+03  0.41800000000E+01 0.  1.
         -5    1    3    3    0  502  0.34736832974E+02 -0.33104385446E+02  0.61833728206E+03  0.62021046000E+03  0.41800000000E+01 0.  1.
        -11    1    1    2    0    0  0.99939984331E+01  0.43025460316E+02  0.14055751001E+03  0.14733459832E+03  0.00000000000E+00 0.  1.
         11    1    1    2    0    0  0.33016373617E+02 -0.35463730771E+02  0.73501535354E+02  0.88035406664E+02  0.00000000000E+00 0. -1.
</event>
<event>
 7    1  0.3056346E-009  0.1408855E+03  0.7561462E-02  0.1212142E+00
          2   -1    0    0  501    0  0.00000000000E+00  0.00000000000E+00  0.99669513230E+03  0.99669513230E+03  0.00000000000E+00 0.  1.
         -2   -1    0    0    0  501 -0.00000000000E+00 -0.00000000000E+00 -0.47046957366E+02  0.47046957366E+02  0.00000000000E+00 0. -1.
         25    2    1    2    0    0 -0.12123126751E+03  0.60449634829E+02  0.80715299902E+03  0.82793856415E+03  0.12504048788E+03 0.  0.
          5    1    3    3  502    0 -0.57909294047E+02  0.20407457883E+02  0.65899441361E+03  0.66186181356E+03  0.41800000000E+01 0. -1.
         -5    1    3    3    0  502 -0.63321973463E+02  0.40042176946E+02  0.14815858541E+03  0.16607675059E+03  0.41800000000E+01 0. -1.
        -11    1    1    2    0    0  0.72524083280E+02 -0.69728310225E+01  0.23511532324E+02  0.76558181667E+02  0.00000000000E+00 0. -1.
         11    1    1    2    0    0  0.48707184231E+02 -0.53476803807E+02  0.11898364359E+03  0.13924534384E+03  0.00000000000E+00 0.  1.
</event>
<event>
 7    1  0.3056346E-009  0.1199092E+03  0.7561462E-02  0.1243247E+00
          2   -1    0    0  501    0  0.00000000000E+00  0.00000000000E+00  0.31486397997E+03  0.31486397997E+03  0.00000000000E+00 0. -1.
         -2   -1    0    0    0  501 -0.00000000000E+00 -0.00000000000E+00 -0.70788441839E+02  0.70788441839E+02  0.00000000000E+00 0.  1.
         25    2    1    2    0    0  0.83750421973E+02  0.13801135705E+02  0.20586459223E+03  0.25540677526E+03  0.12509111076E+03 0.  0.
          5    1    3    3  502    0  0.29054566252E+02  0.54261656083E+02  0.33827048203E+02  0.70357918752E+02  0.41800000000E+01 0.  1.
         -5    1    3    3    0  502  0.54695855721E+02 -0.40460520378E+02  0.17203754402E+03  0.18504885651E+03  0.41800000000E+01 0.  1.
        -11    1    1    2    0    0 -0.31832060257E+02 -0.40556051693E+02 -0.12326749006E+02  0.53009641860E+02  0.00000000000E+00 0.  1.
         11    1    1    2    0    0 -0.51918361716E+02  0.26754915988E+02  0.50537694909E+02  0.77236004684E+02  0.00000000000E+00 0. -1.
</event>
<event>
 7    1  0.3056346E-009  0.1014109E+03  0.7561462E-02  0.1277357E+00
         -2   -1    0    0    0  501 -0.00000000000E+00  0.00000000000E+00  0.26455930616E+02  0.26455930616E+02  0.00000000000E+00 0. -1.
          2   -1    0    0  501    0  0.00000000000E+00 -0.00000000000E+00 -0.51958089101E+03  0.51958089101E+03  0.00000000000E+00 0.  1.
         25    2    1    2    0    0  0.13737609746E+01  0.15675519958E+02 -0.18463589793E+03  0.22357131174E+03  0.12508440144E+03 0.  0.
          5    1    3    3  502    0  0.26053774294E+02  0.64157706900E+02 -0.82632952452E+02  0.10789201889E+03  0.41800000000E+01 0. -1.
         -5    1    3    3    0  502 -0.24680013319E+02 -0.48482186942E+02 -0.10200294548E+03  0.11567929285E+03  0.41800000000E+01 0. -1.
        -11    1    1    2    0    0 -0.37700148897E+02 -0.19348444590E+02 -0.24963379059E+03  0.25320484383E+03  0.00000000000E+00 0.  1.
         11    1    1    2    0    0  0.36326387922E+02  0.36729246322E+01 -0.58855271876E+02  0.69260666055E+02  0.00000000000E+00 0. -1.
</event>
<event>
 7    1  0.3056346E-009  0.2259803E+03  0.7561462E-02  0.1129501E+00
         -1   -1    0    0    0  501 -0.00000000000E+00  0.00000000000E+00  0.80777504490E+03  0.80777504490E+03  0.00000000000E+00 0.  1.
          1   -1    0    0  501    0  0.00000000000E+00 -0.00000000000E+00 -0.22620798858E+03  0.22620798858E+03  0.00000000000E+00 0. -1.
         25    2    1    2    0    0  0.15119215871E+03 -0.12951889998E+03  0.73166297631E+03  0.76851323709E+03  0.12509064864E+03 0.  0.
          5    1    3    3  502    0  0.95106410575E+02 -0.26969289457E+01  0.33581090082E+03  0.34905434572E+03  0.41800000000E+01 0.  1.
         -5    1    3    3    0  502  0.56085748139E+02 -0.12682197103E+03  0.39585207549E+03  0.41945889137E+03  0.41800000000E+01 0.  1.
        -11    1    1    2    0    0 -0.44445937790E+02 -0.66799862079E+01 -0.21198635373E+02  0.49693518123E+02  0.00000000000E+00 0.  1.
         11    1    1    2    0    0 -0.10674622092E+03  0.13619888619E+03 -0.12889728462E+03  0.21577627827E+03  0.00000000000E+00 0. -1.
</event>
<event>
 7    1  0.3056346E-009  0.2373519E+03  0.7561462E-02  0.1121570E+00
          2   -1    0    0  501    0  0.00000000000E+00  0.00000000000E+00  0.25985615526E+04  0.25985615526E+04  0.00000000000E+00 0.  1.
         -2   -1    0    0    0  501 -0.00000000000E+00 -0.00000000000E+00 -0.23739478496E+02  0.23739478496E+02  0.00000000000E+00 0. -1.
         25    2    1    2    0    0 -0.16127617910E+03 -0.14708931766E+03  0.15716061900E+04  0.15916152354E+04  0.12509103827E+03 0.  0.
          5    1    3    3  502    0 -0.54223069973E+02  0.26747932102E+01  0.61795348826E+03  0.62034771047E+03  0.41800000000E+01 0.  1.
         -5    1    3    3    0  502 -0.10705310913E+03 -0.14976411087E+03  0.95365270170E+03  0.97126752490E+03  0.41800000000E+01 0.  1.
        -11    1    1    2    0    0  0.83828598049E+02  0.13327279739E+03  0.69118218226E+03  0.70888763668E+03  0.00000000000E+00 0. -1.
         11    1    1    2    0    0  0.77447581051E+02  0.13816520271E+02  0.31203370186E+03  0.32179815901E+03  0.00000000000E+00 0.  1.
</event>
<event>
 7    1  0.3056346E-009  0.9875754E+02  0.7561462E-02  0.1282931E+00
          4   -1    0    0  501    0  0.00000000000E+00  0.00000000000E+00  0.13896541107E+03  0.13896541107E+03  0.00000000000E+00 0. -1.
         -4   -1    0    0    0  501 -0.00000000000E+00 -0.00000000000E+00 -0.12411012282E+03  0.12411012282E+03  0.00000000000E+00 0.  1.
         25    2    1    2    0    0  0.69272259696E+02  0.17870928551E+02  0.29126823053E+02  0.14701317649E+03  0.12508591523E+03 0.  0.
          5    1    3    3  502    0  0.71086124154E+02 -0.30109565045E+01  0.70622849770E+02  0.10033624577E+03  0.41800000000E+01 0. -1.
         -5    1    3    3    0  502 -0.18138644580E+01  0.20881885056E+02 -0.41496026717E+02  0.46676930716E+02  0.41800000000E+01 0. -1.
        -11    1    1    2    0    0  0.16462659963E+02 -0.87692948562E+01 -0.22762300602E+02  0.29428592117E+02  0.00000000000E+00 0.  1.
         11    1    1    2    0    0 -0.85734919659E+02 -0.91016336950E+01  0.84907657982E+01  0.86633765292E+02  0.00000000000E+00 0. -1.
</event>
<event>
 7    1  0.3056346E-009  0.9774851E+02  0.7561462E-02  0.1285103E+00
          1   -1    0    0  501    0  0.00000000000E+00  0.00000000000E+00  0.20032187895E+03  0.20032187895E+03  0.00000000000E+00 0. -1.
         -1   -1    0    0    0  501 -0.00000000000E+00 -0.00000000000E+00 -0.61237863545E+02  0.61237863545E+02  0.00000000000E+00 0.  1.
         25    2    1    2    0    0  0.83432399399E+00  0.38272622878E+00  0.10191281379E+03  0.16135367860E+03  0.12509174795E+03 0.  0.
          5    1    3    3  502    0 -0.33713239904E+02 -0.48314316069E+02  0.75693381401E+02  0.96009458232E+02  0.41800000000E+01 0.  1.
         -5    1    3    3    0  502  0.34547563898E+02  0.48697042298E+02  0.26219432392E+02  0.65344220363E+02  0.41800000000E+01 0.  1.
        -11    1    1    2    0    0 -0.32200622428E+02 -0.21545427138E+02  0.47196860642E+02  0.61062502158E+02  0.00000000000E+00 0. -1.
         11    1    1    2    0    0  0.31366298434E+02  0.21162700909E+02 -0.10025659027E+02  0.39143561746E+02  0.00000000000E+00 0.  1.
</event>
<event>
 7    1  0.3056346E-009  0.1733350E+03  0.7561462E-02  0.1174414E+00
          4   -1    0    0  501    0  0.00000000000E+00  0.00000000000E+00  0.31932085178E+03  0.31932085178E+03  0.00000000000E+00 0.  1.
         -4   -1    0    0    0  501 -0.00000000000E+00 -0.00000000000E+00 -0.11543146688E+03  0.11543146688E+03  0.00000000000E+00 0. -1.
         25    2    1    2    0    0 -0.12758870540E+02  0.15323313904E+03  0.66861341782E+02  0.20919072108E+03  0.12508850899E+03 0.  0.
          5    1    3    3  502    0  0.50825195244E+02  0.48974070284E+02  0.48232007763E+02  0.85588895335E+02  0.41800000000E+01 0. -1.
         -5    1    3    3    0  502 -0.63584065784E+02  0.10425906876E+03  0.18629334019E+02  0.12360182574E+03  0.41800000000E+01 0. -1.
        -11    1    1    2    0    0  0.77549148290E+01 -0.81521173391E+02  0.12958503075E+03  0.15329096715E+03  0.00000000000E+00 0. -1.
         11    1    1    2    0    0  0.50039557109E+01 -0.71711965654E+02  0.74430123585E+01  0.72270630436E+02  0.00000000000E+00 0.  1.
</event>
<event>
 7    1  0.3056346E-009  0.1065047E+03  0.7561462E-02  0.1267183E+00
          2   -1    0    0  501    0  0.00000000000E+00  0.00000000000E+00  0.21603028104E+03  0.21603028104E+03  0.00000000000E+00 0. -1.
         -2   -1    0    0    0  501 -0.00000000000E+00 -0.00000000000E+00 -0.88155773826E+02  0.88155773826E+02  0.00000000000E+00 0.  1.
         25    2    1    2    0    0 -0.20226189042E+02  0.36180366348E+02 -0.56029149421E+01  0.13189910727E+03  0.12509142341E+03 0.  0.
          5    1    3    3  502    0 -0.77460936678E+01 -0.43841365770E+02 -0.20920895016E+02  0.49368244530E+02  0.41800000000E+01 0.  1.
         -5    1    3    3    0  502 -0.12480095374E+02  0.80021732118E+02  0.15317980074E+02  0.82530862743E+02  0.41800000000E+01 0.  1.
        -11    1    1    2    0    0  0.44303851082E+02 -0.43440775913E+02  0.13341576559E+03  0.14713836597E+03  0.00000000000E+00 0. -1.
         11    1    1    2    0    0 -0.24077662039E+02  0.72604095654E+01  0.61656572749E-01  0.25148581627E+02  0.00000000000E+00 0.  1.
</event>
<event>
 7    1  0.3056346E-009  0.1662717E+03  0.7561462E-02  0.1181793E+00
         -2   -1    0    0    0  501 -0.00000000000E+00  0.00000000000E+00  0.69101097133E+03  0.69101097133E+03  0.00000000000E+00 0.  1.
          2   -1    0    0  501    0  0.00000000000E+00 -0.00000000000E+00 -0.46361239263E+02  0.46361239263E+02  0.00000000000E+00 0. -1.
         25    2    1    2    0    0  0.13651352629E+03 -0.16329802177E+02  0.26381890159E+03  0.32272707422E+03  0.12509894602E+03 0.  0.
          5    1    3    3  502    0  0.12494202739E+03 -0.61319059740E+02  0.19727958694E+03  0.24146893199E+03  0.41800000000E+01 0. -1.
         -5    1    3    3    0  502  0.11571498897E+02  0.44989257562E+02  0.66539314656E+02  0.81258142223E+02  0.41800000000E+01 0. -1.
        -11    1    1    2    0    0 -0.17663066496E+02  0.21344523174E+02  0.18569122182E+02  0.33352434487E+02  0.00000000000E+00 0. -1.
         11    1    1    2    0    0 -0.11885045979E+03 -0.50147209969E+01  0.36226170829E+03  0.38129270189E+03  0.00000000000E+00 0.  1.
</event>
<event>
 7    1  0.3056346E-009  0.1583170E+03  0.7561462E-02  0.1190610E+00
          2   -1    0    0  501    0  0.00000000000E+00  0.00000000000E+00  0.11398693487E+03  0.11398693487E+03  0.00000000000E+00 0. -1.
         -2   -1    0    0    0  501 -0.00000000000E+00 -0.00000000000E+00 -0.25072350732E+03  0.25072350732E+03  0.00000000000E+00 0.  1.
         25    2    1    2    0    0 -0.12743891930E+03  0.53039575892E+00 -0.95902605088E+02  0.20269733651E+03  0.12509173072E+03 0.  0.
          5    1    3    3  502    0  0.13498999992E+02 -0.30993808944E+02 -0.19774924118E+02  0.39387297667E+02  0.41800000000E+01 0. -1.
         -5    1    3    3    0  502 -0.14093791930E+03  0.31524204703E+02 -0.76127680970E+02  0.16331003885E+03  0.41800000000E+01 0. -1.
        -11    1    1    2    0    0  0.20363071173E+02 -0.20804275552E+02  0.21753332419E+02  0.36341161514E+02  0.00000000000E+00 0. -1.
         11    1    1    2    0    0  0.10707584813E+03  0.20273879794E+02 -0.62587299781E+02  0.12567194416E+03  0.00000000000E+00 0.  1.
</event>
<event>
 7    1  0.3056346E-009  0.1095318E+03  0.7561462E-02  0.1261439E+00
          1   -1    0    0  501    0  0.00000000000E+00  0.00000000000E+00  0.56462370422E+03  0.56462370422E+03  0.00000000000E+00 0. -1.
         -1   -1    0    0    0  501 -0.00000000000E+00 -0.00000000000E+00 -0.30066215084E+02  0.30066215084E+02  0.00000000000E+00 0.  1.
         25    2    1    2    0    0  0.47550120327E+02 -0.49322248142E+02  0.24578607548E+03  0.28417003048E+03  0.12509241870E+03 0.  0.
          5    1    3    3  502    0  0.78404579614E+02 -0.43602647304E+02  0.23356275687E+03  0.25023489515E+03  0.41800000000E+01 0.  1.
         -5    1    3    3    0  502 -0.30854459288E+02 -0.57196008381E+01  0.12223318615E+02  0.33935135327E+02  0.41800000000E+01 0.  1.
        -11    1    1    2    0    0 -0.93435351016E+01 -0.17947028123E+02  0.12875359781E+02  0.23982751221E+02  0.00000000000E+00 0.  1.
         11    1    1    2    0    0 -0.38206585225E+02  0.67269276265E+02  0.27589605387E+03  0.28653713760E+03  0.00000000000E+00 0. -1.
</event>
<event>
 7    1  0.3056346E-009  0.7235054E+02  0.7561462E-02  0.1352278E+00
         -2   -1    0    0    0  501 -0.00000000000E+00  0.00000000000E+00  0.51014184778E+02  0.51014184778E+02  0.00000000000E+00 0.  1.
          2   -1    0    0  501    0  0.00000000000E+00 -0.00000000000E+00 -0.28597277442E+03  0.28597277442E+03  0.00000000000E+00 0. -1.
         25    2    1    2    0    0 -0.31754287677E+02 -0.45440237032E+02 -0.13658900544E+03  0.19333422440E+03  0.12509362890E+03 0.  0.
          5    1    3    3  502    0 -0.29120818728E+01 -0.60847101580E+01 -0.14363888174E+03  0.14385793223E+03  0.41800000000E+01 0.  1.
         -5    1    3    3    0  502 -0.28842205804E+02 -0.39355526874E+02  0.70498763000E+01  0.49476292171E+02  0.41800000000E+01 0.  1.
        -11    1    1    2    0    0  0.29106265899E+02 -0.11129993699E+02 -0.12005049710E+01  0.31184814999E+02  0.00000000000E+00 0.  1.
         11    1    1    2    0    0  0.26480217774E+01  0.56570230732E+02 -0.97169079228E+02  0.11246791979E+03  0.00000000000E+00 0. -1.
</event>
<event>
 7    1  0.3056346E-009  0.9026652E+02  0.7561462E-02  0.1302208E+00
         -1   -1    0    0    0  501 -0.00000000000E+00  0.00000000000E+00  0.28612591095E+03  0.28612591095E+03  0.00000000000E+00 0.  1.
          1   -1    0    0  501    0  0.00000000000E+00 -0.00000000000E+00 -0.85440456483E+02  0.85440456483E+02  0.00000000000E+00 0. -1.
         25    2    1    2    0    0 -0.76289000425E+02 -0.28417547615E+02  0.17376828934E+02  0.15025525152E+03  0.12508844002E+03 0.  0.
          5    1    3    3  502    0 -0.37531934613E+02 -0.42208155938E+02 -0.47097954633E+02  0.73660466155E+02  0.41800000000E+01 0. -1.
         -5    1    3    3    0  502 -0.38757065812E+02  0.13790608323E+02  0.64474783568E+02  0.76594785360E+02  0.41800000000E+01 0. -1.
        -11    1    1    2    0    0  0.40281330573E+02  0.22242664503E+02  0.13987231832E+02  0.48093288215E+02  0.00000000000E+00 0. -1.
         11    1    1    2    0    0  0.36007669852E+02  0.61748831123E+01  0.16932139370E+03  0.17321782770E+03  0.00000000000E+00 0.  1.
</event>
<event>
 7    1  0.3056346E-009  0.9478110E+02  0.7561462E-02  0.1291670E+00
         -1   -1    0    0    0  501 -0.00000000000E+00  0.00000000000E+00  0.37131680440E+02  0.37131680440E+02  0.00000000000E+00 0.  1.
          1   -1    0    0  501    0  0.00000000000E+00 -0.00000000000E+00 -0.30068481739E+03  0.30068481739E+03  0.00000000000E+00 0. -1.
         25    2    1    2    0    0 -0.68062015593E+01 -0.27008531049E+02 -0.12182978910E+03  0.17681259503E+03  0.12507762038E+03 0.  0.
          5    1    3    3  502    0 -0.21966638056E+02 -0.69289589365E+02 -0.39248495862E+02  0.82713343599E+02  0.41800000000E+01 0.  1.
         -5    1    3    3    0  502  0.15160436496E+02  0.42281058316E+02 -0.82581293238E+02  0.94099251432E+02  0.41800000000E+01 0.  1.
        -11    1    1    2    0    0  0.33999336406E+02  0.28563600146E+02 -0.11303789833E+03  0.12144711025E+03  0.00000000000E+00 0. -1.
         11    1    1    2    0    0 -0.27193134847E+02 -0.15550690971E+01 -0.28685449526E+02  0.39556792554E+02  0.00000000000E+00 0.  1.
</event>
<event>
 7    1  0.3056346E-009  0.1497342E+03  0.7561462E-02  0.1200800E+00
         -2   -1    0    0    0  501 -0.00000000000E+00  0.00000000000E+00  0.42753645063E+02  0.42753645063E+02  0.00000000000E+00 0.  1.
          2   -1    0    0  501    0  0.00000000000E+00 -0.00000000000E+00 -0.85000405637E+03  0.85000405637E+03  0.00000000000E+00 0. -1.
         25    2    1    2    0    0 -0.12427761119E+03  0.49981265625E+01 -0.20236008303E+03  0.26845237248E+03  0.12508863728E+03 0.  0.
          5    1    3    3  502    0 -0.45453905177E+02 -0.43397414400E+02 -0.14857811667E+03  0.16137633725E+03  0.41800000000E+01 0. -1.
         -5    1    3    3    0  502 -0.78823706015E+02  0.48395540962E+02 -0.53781966361E+02  0.10707603523E+03  0.41800000000E+01 0. -1.
        -11    1    1    2    0    0  0.24191951519E+02  0.29391247309E+02 -0.76814794639E+02  0.85729858347E+02  0.00000000000E+00 0.  1.
         11    1    1    2    0    0  0.10008565967E+03 -0.34389373871E+02 -0.52807553364E+03  0.53857547060E+03  0.00000000000E+00 0. -1.
</event>
<event>
 7    1  0.3056346E-009  0.8800743E+02  0.7561462E-02  0.1307750E+00
          1   -1    0    0  501    0  0.00000000000E+00  0.00000000000E+00  0.58507096756E+02  0.58507096756E+02  0.00000000000E+00 0. -1.
         -1   -1    0    0    0  501 -0.00000000000E+00 -0.00000000000E+00 -0.31768801431E+03  0.31768801431E+03  0.00000000000E+00 0.  1.
         25    2    1    2    0    0 -0.11389496118E+02 -0.14594200103E+02 -0.25329375489E+03  0.28311097780E+03  0.12510550820E+03 0.  0.
          5    1    3    3  502    0 -0.60865037549E+02 -0.11029818343E+02 -0.20336974973E+03  0.21260982384E+03  0.41800000000E+01 0.  1.
         -5    1    3    3    0  502  0.49475541432E+02 -0.35643817606E+01 -0.49924005166E+02  0.70501153956E+02  0.41800000000E+01 0.  1.
        -11    1    1    2    0    0  0.27222314681E+02  0.31123660419E+02 -0.36298917957E+02  0.55021342217E+02  0.00000000000E+00 0.  1.
         11    1    1    2    0    0 -0.15832818564E+02 -0.16529460316E+02  0.30411755302E+02  0.38062791050E+02  0.00000000000E+00 0. -1.
</event>
<event>
 7    1  0.3056346E-009  0.1791096E+03  0.7561462E-02  0.1168668E+00
          2   -1    0    0  501    0  0.00000000000E+00  0.00000000000E+00  0.12865243948E+03  0.12865243948E+03  0.00000000000E+00 0. -1.
         -2   -1    0    0    0  501 -0.00000000000E+00 -0.00000000000E+00 -0.26661105395E+03  0.26661105395E+03  0.00000000000E+00 0.  1.
         25    2    1    2    0    0 -0.14483484504E+03 -0.33434989518E+02 -0.96612632620E+02  0.21697064505E+03  0.12508888508E+03 0.  0.
          5    1    3    3  502    0  0.22629763209E+02 -0.85071941427E+01 -0.78586283705E+01  0.25762549854E+02  0.41800000000E+01 0.  1.
         -5    1    3    3    0  502 -0.16746460825E+03 -0.24927795375E+02 -0.88754004250E+02  0.19120809520E+03  0.41800000000E+01 0.  1.
        -11    1    1    2    0    0  0.10852838537E+03  0.55439834546E+02 -0.54988833429E+02  0.13370025238E+03  0.00000000000E+00 0. -1.
         11    1    1    2    0    0  0.36306459674E+02 -0.22004845029E+02  0.13642851579E+02  0.44592596000E+02  0.00000000000E+00 0.  1.
</event>
<event>
 7    1  0.3056346E-009  0.1135640E+03  0.7561462E-02  0.1254109E+00
          2   -1    0    0  501    0  0.00000000000E+00  0.00000000000E+00  0.59544921178E+02  0.59544921178E+02  0.00000000000E+00 0. -1.
         -2   -1    0    0    0  501 -0.00000000000E+00 -0.00000000000E+00 -0.25434694579E+03  0.25434694579E+03  0.00000000000E+00 0.  1.
         25    2    1    2    0    0 -0.34500531144E+02 -0.32838820728E+02 -0.56262265023E+02  0.14519626103E+03  0.12509131447E+03 0.  0.
          5    1    3    3  502    0 -0.81704538025E+02 -0.16630408717E+02 -0.39713323918E+02  0.92449026628E+02  0.41800000000E+01 0. -1.
         -5    1    3    3    0  502  0.47204006881E+02 -0.16208412011E+02 -0.16548941105E+02  0.52747234404E+02  0.41800000000E+01 0. -1.
        -11    1    1    2    0    0  0.40776712870E+02  0.56163430557E+02 -0.11841649745E+03  0.13725719695E+03  0.00000000000E+00 0.  1.
         11    1    1    2    0    0 -0.62761817267E+01 -0.23324609829E+02 -0.20123262132E+02  0.31438408986E+02  0.00000000000E+00 0. -1.
</event>
<event>
 7    1  0.3056346E-009  0.1080014E+03  0.7561462E-02  0.1264316E+00
         -1   -1    0    0    0  501 -0.00000000000E+00  0.00000000000E+00  0.45983003908E+02  0.45983003908E+02  0.00000000000E+00 0.  1.
          1   -1    0    0  501    0  0.00000000000E+00 -0.00000000000E+00 -0.39467569500E+03  0.39467569500E+03  0.00000000000E+00 0. -1.
         25    2    1    2    0    0 -0.74821132043E+02  0.19262922526E+02 -0.21386018863E+03  0.25952384455E+03  0.12508870302E+03 0.  0.
          5    1    3    3  502    0 -0.35167239885E+02  0.60320376979E+02 -0.17978993503E+03  0.19291753622E+03  0.41800000000E+01 0.  1.
         -5    1    3    3    0  502 -0.39653892158E+02 -0.41057454453E+02 -0.34070253595E+02  0.66606308331E+02  0.41800000000E+01 0.  1.
        -11    1    1    2    0    0  0.73692866758E+02 -0.43022907023E+01 -0.14520758744E+03  0.16289380518E+03  0.00000000000E+00 0. -1.
         11    1    1    2    0    0  0.11282652849E+01 -0.14960631823E+02  0.10375084974E+02  0.18241049184E+02  0.00000000000E+00 0.  1.
</event>
<event>
 7    1  0.3056346E-009  0.1389501E+03  0.7561462E-02  0.1214749E+00
          1   -1    0    0  501    0  0.00000000000E+00  0.00000000000E+00  0.11603233145E+03  0.11603233145E+03  0.00000000000E+00 0. -1.
         -1   -1    0    0    0  501 -0.00000000000E+00 -0.00000000000E+00 -0.19146308741E+03  0.19146308741E+03  0.00000000000E+00 0.  1.
         25    2    1    2    0    0  0.10093205559E+03 -0.12745193182E+02 -0.32622309227E+02  0.16450440322E+03  0.12509102215E+03 0.  0.
          5    1    3    3  502    0 -0.26706282660E+02  0.64875793477E+01  0.83296490912E+01  0.29020159774E+02  0.41800000000E+01 0.  1.
         -5    1    3    3    0  502  0.12763833825E+03 -0.19232772530E+02 -0.40951958318E+02  0.13548424344E+03  0.41800000000E+01 0.  1.
        -11    1    1    2    0    0  0.84012757939E+01 -0.55942703846E+01 -0.29687558682E+02  0.31356473600E+02  0.00000000000E+00 0.  1.
         11    1    1    2    0    0 -0.10933333139E+03  0.18339463567E+02 -0.13120888050E+02  0.11163454205E+03  0.00000000000E+00 0. -1.
</event>
<event>
 7    1  0.3056346E-009  0.1362790E+03  0.7561462E-02  0.1218425E+00
          4   -1    0    0  501    0  0.00000000000E+00  0.00000000000E+00  0.10985756968E+03  0.10985756968E+03  0.00000000000E+00 0. -1.
         -4   -1    0    0    0  501 -0.00000000000E+00 -0.00000000000E+00 -0.31685362214E+03  0.31685362214E+03  0.00000000000E+00 0.  1.
         25    2    1    2    0    0 -0.85636932355E+02  0.69942067965E+02  0.48892983486E+01  0.16702670862E+03  0.12509372127E+03 0.  0.
          5    1    3    3  502    0 -0.27236928012E+02 -0.19173056145E+02  0.42321754374E+02  0.54019067215E+02  0.41800000000E+01 0.  1.
         -5    1    3    3    0  502 -0.58400004343E+02  0.89115124110E+02 -0.37432456025E+02  0.11300764141E+03  0.41800000000E+01 0.  1.
        -11    1    1    2    0    0  0.65178615719E+02 -0.62668446025E+01 -0.43789542422E+02  0.78772135390E+02  0.00000000000E+00 0. -1.
         11    1    1    2    0    0  0.20458316636E+02 -0.63675223362E+02 -0.16809580839E+03  0.18091234781E+03  0.00000000000E+00 0.  1.
</event>
<event>
 7    1  0.3056346E-009  0.1008749E+03  0.7561462E-02  0.1278467E+00
         -2   -1    0    0    0  501 -0.00000000000E+00  0.00000000000E+00  0.12963388165E+02  0.12963388165E+02  0.00000000000E+00 0.  1.
          2   -1    0    0  501    0  0.00000000000E+00 -0.00000000000E+00 -0.14059481519E+04  0.14059481519E+04  0.00000000000E+00 0. -1.
         25    2    1    2    0    0 -0.33765072937E+02 -0.27143026365E+02 -0.11292821270E+04  0.11370145665E+04  0.12508868040E+03 0.  0.
          5    1    3    3  502    0  0.37062463758E+02 -0.10900105129E+02 -0.73786384882E+03  0.73888630405E+03  0.41800000000E+01 0.  1.
         -5    1    3    3    0  502 -0.70827536695E+02 -0.16242921236E+02 -0.39141827821E+03  0.39812826245E+03  0.41800000000E+01 0.  1.
        -11    1    1    2    0    0  0.55506859883E+02  0.22924063025E+00 -0.21568453542E+03  0.22271255660E+03  0.00000000000E+00 0. -1.
         11    1    1    2    0    0 -0.21741786946E+02  0.26913785735E+02 -0.48018101311E+02  0.59184417000E+02  0.00000000000E+00 0.  1.
</event>
<event>
 7    1  0.6231704E-009  0.1650236E+03  0.7561462E-02  0.1183139E+00
          1   -1    0    0  501    0  0.00000000000E+00  0.00000000000E+00  0.17500560611E+04  0.17500560611E+04  0.00000000000E+00 0. -1.
         -1   -1    0    0    0  501 -0.00000000000E+00 -0.00000000000E+00 -0.16498728042E+02  0.16498728042E+02  0.00000000000E+00 0.  1.
         25    2    1    2    0    0 -0.27682109285E+02  0.12203860987E+03  0.11065645399E+04  0.11206209068E+04  0.12508562749E+03 0.  0.
          5    1    3    3  502    0  0.15743318481E+02  0.12951410695E+03  0.89563353395E+03  0.90509593719E+03  0.41800000000E+01 0.  1.
         -5    1    3    3    0  502 -0.43425427766E+02 -0.74754970879E+01  0.21093100598E+03  0.21552496959E+03  0.41800000000E+01 0.  1.
        -11    1    1    2    0    0 -0.31920415499E+02 -0.66585289496E+02  0.30402389519E+03  0.31286265765E+03  0.00000000000E+00 0.  1.
         11    1    1    2    0    0  0.59602524784E+02 -0.55453320370E+02  0.32296889796E+03  0.33307122474E+03  0.00000000000E+00 0. -1.
</event>
<event>
 7    1  0.3056346E-009  0.2506129E+03  0.7561462E-02  0.1112918E+00
          1   -1    0    0  501    0  0.00000000000E+00  0.00000000000E+00  0.23976103613E+04  0.23976103613E+04  0.00000000000E+00 0. -1.
         -1   -1    0    0    0  501 -0.00000000000E+00 -0.00000000000E+00 -0.29304209226E+02  0.29304209226E+02  0.00000000000E+00 0.  1.
         25    2    1    2    0    0  0.52518773629E+02 -0.22467038698E+03  0.15444261948E+04  0.15665676522E+04  0.12508770259E+03 0.  0.
          5    1    3    3  502    0 -0.26702035071E+02 -0.15354078721E+03  0.92086832604E+03  0.93397201153E+03  0.41800000000E+01 0. -1.
         -5    1    3    3    0  502  0.79220808700E+02 -0.71129599773E+02  0.62355786877E+03  0.63259564067E+03  0.41800000000E+01 0. -1.
        -11    1    1    2    0    0 -0.59488453117E+02  0.12062561103E+03  0.34598832084E+03  0.37121063057E+03  0.00000000000E+00 0. -1.
         11    1    1    2    0    0  0.69696794875E+01  0.10404477595E+03  0.47789163645E+03  0.48913628778E+03  0.00000000000E+00 0.  1.
</event>
<event>
 7    1  0.3056346E-009  0.7073956E+02  0.7561462E-02  0.1357596E+00
         -1   -1    0    0    0  501 -0.00000000000E+00  0.00000000000E+00  0.32572611428E+02  0.32572611428E+02  0.00000000000E+00 0.  1.
          1   -1    0    0  501    0  0.00000000000E+00 -0.00000000000E+00 -0.38852091316E+03  0.38852091316E+03  0.00000000000E+00 0. -1.
         25    2    1    2    0    0  0.25189963440E+02  0.10277412324E+02 -0.19104971502E+03  0.22997416888E+03  0.12509182741E+03 0.  0.
          5    1    3    3  502    0 -0.20516036697E+02  0.56031298689E+01  0.98773033546E+01  0.23818823389E+02  0.41800000000E+01 0.  1.
         -5    1    3    3    0  502  0.45706000137E+02  0.46742824549E+01 -0.20092701837E+03  0.20615534549E+03  0.41800000000E+01 0.  1.
        -11    1    1    2    0    0  0.23478531536E+02 -0.84997184632E+01 -0.70751804391E+01  0.25952742346E+02  0.00000000000E+00 0.  1.
         11    1    1    2    0    0 -0.48668494976E+02 -0.17776938605E+01 -0.15782340628E+03  0.16516661336E+03  0.00000000000E+00 0. -1.
</event>
<event>
 7    1  0.3056346E-009  0.6101502E+02  0.7561462E-02  0.1393621E+00
          1   -1    0    0  501    0  0.00000000000E+00  0.00000000000E+00  0.10118942257E+03  0.10118942257E+03  0.00000000000E+00 0. -1.
         -1   -1    0    0    0  501 -0.00000000000E+00 -0.00000000000E+00 -0.12100243635E+03  0.12100243635E+03  0.00000000000E+00 0.  1.
         25    2    1    2    0    0 -0.96222252672E+01 -0.25957563497E+01  0.73354778684E+01  0.12570137301E+03  0.12509077013E+03 0.  0.
          5    1    3    3  502    0 -0.19684250033E+02 -0.10262392718E+02  0.63802895059E+02  0.67683589012E+02  0.41800000000E+01 0. -1.
         -5    1    3    3    0  502  0.10062024766E+02  0.76666363686E+01 -0.56467417191E+02  0.58017783996E+02  0.41800000000E+01 0. -1.
        -11    1    1    2    0    0  0.25476556059E+02 -0.36166720658E+02 -0.31613454547E+02  0.54373680215E+02  0.00000000000E+00 0.  1.
         11    1    1    2    0    0 -0.15854330792E+02  0.38762477007E+02  0.44649628969E+01  0.42116805699E+02  0.00000000000E+00 0. -1.
</event>
<event>
 7    1  0.3056346E-009  0.1151470E+03  0.7561462E-02  0.1251325E+00
         -3   -1    0    0    0  501 -0.00000000000E+00  0.00000000000E+00  0.18258812881E+03  0.18258812881E+03  0.00000000000E+00 0.  1.
          3   -1    0    0  501    0  0.00000000000E+00 -0.00000000000E+00 -0.11450758307E+03  0.11450758307E+03  0.00000000000E+00 0. -1.
         25    2    1    2    0    0 -0.37473799980E+02 -0.80030762048E+02  0.71363448696E+02  0.16896553714E+03  0.12508957739E+03 0.  0.
          5    1    3    3  502    0 -0.18961936191E+02 -0.10232973690E+03  0.14705907223E+02  0.10518871701E+03  0.41800000000E+01 0. -1.
         -5    1    3    3    0  502 -0.18511863790E+02  0.22298974855E+02  0.56657541472E+02  0.63776820133E+02  0.41800000000E+01 0. -1.
        -11    1    1    2    0    0  0.44860483350E+02  0.56208995660E+02 -0.41098017543E+02  0.82830919381E+02  0.00000000000E+00 0. -1.
         11    1    1    2    0    0 -0.73866833698E+01  0.23821766388E+02  0.37815114582E+02  0.45299255357E+02  0.00000000000E+00 0.  1.
</event>
<event>
 7    1  0.3056346E-009  0.1326609E+03  0.7561462E-02  0.1223560E+00
         -2   -1    0    0    0  501 -0.00000000000E+00  0.00000000000E+00  0.19008112774E+03  0.19008112774E+03  0.00000000000E+00 0.  1.
          2   -1    0    0  501    0  0.00000000000E+00 -0.00000000000E+00 -0.99356101283E+02  0.99356101283E+02  0.00000000000E+00 0. -1.
         25    2    1    2    0    0 -0.46955727038E+02  0.69862906343E+02  0.82352338729E+02  0.17179978615E+03  0.12509033872E+03 0.  0.
          5    1    3    3  502    0 -0.79589165293E+02  0.82969734853E+02  0.67579494833E+02  0.13342740594E+03  0.41800000000E+01 0. -1.
         -5    1    3    3    0  502  0.32633438255E+02 -0.13106828510E+02  0.14772843896E+02  0.38372380207E+02  0.41800000000E+01 0. -1.
        -11    1    1    2    0    0  0.34251233932E+02  0.86491565301E+01 -0.84987814387E+01  0.36334339412E+02  0.00000000000E+00 0.  1.
         11    1    1    2    0    0  0.12704493106E+02 -0.78512062873E+02  0.16871469168E+02  0.81303103468E+02  0.00000000000E+00 0. -1.
</event>
<event>
 7    1  0.3056346E-009  0.3165668E+03  0.7561462E-02  0.1077240E+00
          1   -1    0    0  501    0  0.00000000000E+00  0.00000000000E+00  0.13445480784E+04  0.13445480784E+04  0.00000000000E+00 0. -1.
         -1   -1    0    0    0  501 -0.00000000000E+00 -0.00000000000E+00 -0.77853304101E+02  0.77853304101E+02  0.00000000000E+00 0.  1.
         25    2    1    2    0    0 -0.21646983813E+03  0.20822926402E+03  0.53753967737E+03  0.62834343329E+03  0.12509175913E+03 0.  0.
          5    1    3    3  502    0 -0.11050148936E+03  0.17670716770E+03  0.40659902052E+03  0.45692038492E+03  0.41800000000E+01 0.  1.
         -5    1    3    3    0  502 -0.10596834877E+03  0.31522096320E+02  0.13094065685E+03  0.17142304837E+03  0.41800000000E+01 0.  1.
        -11    1    1    2    0    0  0.96857885775E+02 -0.15577976762E+03  0.44497887232E+03  0.48130549846E+03  0.00000000000E+00 0. -1.
         11    1    1    2    0    0  0.11961195235E+03 -0.52449496407E+02  0.28417622463E+03  0.31275245077E+03  0.00000000000E+00 0.  1.
</event>
<event>
 7    1  0.3056346E-009  0.1310892E+03  0.7561462E-02  0.1225848E+00
          1   -1    0    0  501    0  0.00000000000E+00  0.00000000000E+00  0.10818667966E+04  0.10818667966E+04  0.00000000000E+00 0. -1.
         -1   -1    0    0    0  501 -0.00000000000E+00 -0.00000000000E+00 -0.16499403433E+02  0.16499403433E+02  0.00000000000E+00 0.  1.
         25    2    1    2    0    0 -0.18589730055E+02 -0.74739740282E+02  0.53480039346E+03  0.55460896364E+03  0.12509210551E+03 0.  0.
          5    1    3    3  502    0  0.51269289110E+02 -0.39459342400E+02  0.30491207995E+03  0.31172813253E+03  0.41800000000E+01 0.  1.
         -5    1    3    3    0  502 -0.69859019165E+02 -0.35280397882E+02  0.22988831351E+03  0.24288083111E+03  0.41800000000E+01 0.  1.
        -11    1    1    2    0    0  0.34264510735E+02 -0.76483041311E+01  0.16498491157E+03  0.16867890887E+03  0.00000000000E+00 0. -1.
         11    1    1    2    0    0 -0.15674780680E+02  0.82388044413E+02  0.36558208817E+03  0.37507832756E+03  0.00000000000E+00 0.  1.
</event>
<event>
 7    1  0.3056346E-009  0.1768493E+03  0.7561462E-02  0.1170888E+00
         -1   -1    0    0    0  501 -0.00000000000E+00  0.00000000000E+00  0.55299660702E+02  0.55299660702E+02  0.00000000000E+00 0.  1.
          1   -1    0    0  501    0  0.00000000000E+00 -0.00000000000E+00 -0.66210063460E+03  0.66210063460E+03  0.00000000000E+00 0. -1.
         25    2    1    2    0    0  0.44754141349E+02  0.15219649569E+03 -0.36685124740E+03  0.41880051879E+03  0.12508928952E+03 0.  0.
          5    1    3    3  502    0  0.65337633484E+02  0.45366124058E+02 -0.84204209900E+02  0.11590907180E+03  0.41800000000E+01 0. -1.
         -5    1    3    3    0  502 -0.20583492134E+02  0.10683037163E+03 -0.28264703750E+03  0.30289144699E+03  0.41800000000E+01 0. -1.
        -11    1    1    2    0    0  0.47016453249E+01 -0.63044626297E+02 -0.14946816305E+03  0.16228820703E+03  0.00000000000E+00 0. -1.
         11    1    1    2    0    0 -0.49455786674E+02 -0.89151869390E+02 -0.90481563439E+02  0.13631156948E+03  0.00000000000E+00 0.  1.
</event>
<event>
 7    1  0.3056346E-009  0.1528000E+03  0.7561462E-02  0.1197074E+00
          2   -1    0    0  501    0  0.00000000000E+00  0.00000000000E+00  0.37137175138E+02  0.37137175138E+02  0.00000000000E+00 0.  1.
         -2   -1    0    0    0  501 -0.00000000000E+00 -0.00000000000E+00 -0.68247931845E+03  0.68247931845E+03  0.00000000000E+00 0. -1.
         25    2    1    2    0    0 -0.11047374068E+03  0.36305549607E+02 -0.31758674323E+03  0.36059803707E+03  0.12508822706E+03 0.  0.
          5    1    3    3  502    0  0.15694783771E+02 -0.18288044713E+02 -0.10187446796E+03  0.10476954920E+03  0.41800000000E+01 0.  1.
         -5    1    3    3    0  502 -0.12616852445E+03  0.54593594319E+02 -0.21571227527E+03  0.25582848787E+03  0.41800000000E+01 0.  1.
        -11    1    1    2    0    0  0.12364165236E+03 -0.24771360449E+02 -0.25894469366E+03  0.28801602884E+03  0.00000000000E+00 0. -1.
         11    1    1    2    0    0 -0.13167911674E+02 -0.11534189158E+02 -0.68810706419E+02  0.71002427672E+02  0.00000000000E+00 0.  1.
</event>
<event>
 7    1  0.3056346E-009  0.9132887E+02  0.7561462E-02  0.1299665E+00
          1   -1    0    0  501    0  0.00000000000E+00  0.00000000000E+00  0.23103620717E+03  0.23103620717E+03  0.00000000000E+00 0. -1.
         -1   -1    0    0    0  501 -0.00000000000E+00 -0.00000000000E+00 -0.70477915276E+02  0.70477915276E+02  0.00000000000E+00 0.  1.
         25    2    1    2    0    0 -0.18253481820E+01 -0.63114792808E+02  0.11886823755E+03  0.18374955130E+03  0.12508969078E+03 0.  0.
          5    1    3    3  502    0  0.20133573695E+02 -0.84666014703E+02  0.34255566985E+02  0.93619501734E+02  0.41800000000E+01 0.  1.
         -5    1    3    3    0  502 -0.21958921877E+02  0.21551221895E+02  0.84612670567E+02  0.90130049571E+02  0.41800000000E+01 0.  1.
        -11    1    1    2    0    0  0.73988331414E+01  0.29957060483E+02 -0.27182859287E+02  0.41122694995E+02  0.00000000000E+00 0.  1.
         11    1    1    2    0    0 -0.55734849595E+01  0.33157732325E+02  0.68872913630E+02  0.76641876147E+02  0.00000000000E+00 0. -1.
</event>
<event>
 7    1  0.3056346E-009  0.1118431E+03  0.7561462E-02  0.1257194E+00
          2   -1    0    0  501    0  0.00000000000E+00  0.00000000000E+00  0.31782004986E+02  0.31782004986E+02  0.00000000000E+00 0. -1.
         -2   -1    0    0    0  501 -0.00000000000E+00 -0.00000000000E+00 -0.55507850917E+03  0.55507850917E+03  0.00000000000E+00 0.  1.
         25    2    1    2    0    0  0.41779143336E+02  0.64587333228E+02 -0.26030292199E+03  0.29886607723E+03  0.12508517295E+03 0.  0.
          5    1    3    3  502    0  0.70476675983E+02  0.49675845889E+02 -0.25028272025E+03  0.26475189136E+03  0.41800000000E+01 0. -1.
         -5    1    3    3    0  502 -0.28697532648E+02  0.14911487339E+02 -0.10020201734E+02  0.34114185869E+02  0.41800000000E+01 0. -1.
        -11    1    1    2    0    0 -0.53853789291E+02 -0.72501128865E+02 -0.25692052156E+03  0.27233214776E+03  0.00000000000E+00 0.  1.
         11    1    1    2    0    0  0.12074645956E+02  0.79137956374E+01 -0.60730606440E+01  0.15662289166E+02  0.00000000000E+00 0. -1.
</event>
<event>
 7    1  0.3056346E-009  0.1912410E+03  0.7561462E-02  0.1157347E+00
         -1   -1    0    0    0  501 -0.00000000000E+00  0.00000000000E+00  0.45932850228E+03  0.45932850228E+03  0.00000000000E+00 0.  1.
          1   -1    0    0  501    0  0.00000000000E+00 -0.00000000000E+00 -0.12513096510E+03  0.12513096510E+03  0.00000000000E+00 0. -1.
         25    2    1    2    0    0 -0.17692479138E+03 -0.14687283858E+02  0.28317317183E+02  0.21901625521E+03  0.12509257164E+03 0.  0.
          5    1    3    3  502    0 -0.13359221561E+03 -0.55626849955E+02 -0.14507397446E+02  0.14549626624E+03  0.41800000000E+01 0. -1.
         -5    1    3    3    0  502 -0.43332575770E+02  0.40939566097E+02  0.42824714629E+02  0.73519988970E+02  0.41800000000E+01 0. -1.
        -11    1    1    2    0    0  0.13315332839E+03  0.16316610141E+02  0.14008021127E+03  0.19395490769E+03  0.00000000000E+00 0. -1.
         11    1    1    2    0    0  0.43771462990E+02 -0.16293262835E+01  0.16580000873E+03  0.17148830447E+03  0.00000000000E+00 0.  1.
</event>
<event>
 7    1  0.3056346E-009  0.2648975E+03  0.7561462E-02  0.1104236E+00
          2   -1    0    0  501    0  0.00000000000E+00  0.00000000000E+00  0.24618540434E+03  0.24618540434E+03  0.00000000000E+00 0. -1.
         -2   -1    0    0    0  501 -0.00000000000E+00 -0.00000000000E+00 -0.30791766758E+03  0.30791766758E+03  0.00000000000E+00 0.  1.
         25    2    1    2    0    0  0.49909512002E+02  0.24760266261E+03 -0.18062929375E+02  0.28243455229E+03  0.12507985046E+03 0.  0.
          5    1    3    3  502    0 -0.64039136124E+01  0.13942503222E+03  0.42831003853E+02  0.14605586948E+03  0.41800000000E+01 0.  1.
         -5    1    3    3    0  502  0.56313425615E+02  0.10817763039E+03 -0.60893933228E+02  0.13637868281E+03  0.41800000000E+01 0.  1.
        -11    1    1    2    0    0  0.24057908538E+02 -0.10223366197E+03 -0.16356972451E+02  0.10629230993E+03  0.00000000000E+00 0. -1.
         11    1    1    2    0    0 -0.73967420540E+02 -0.14536900064E+03 -0.27312361406E+02  0.16537620970E+03  0.00000000000E+00 0.  1.
</event>
<event>
 7    1  0.3056346E-009  0.8516959E+02  0.7561462E-02  0.1314990E+00
         -4   -1    0    0    0  501 -0.00000000000E+00  0.00000000000E+00  0.99910124517E+02  0.99910124517E+02  0.00000000000E+00 0.  1.
          4   -1    0    0  501    0  0.00000000000E+00 -0.00000000000E+00 -0.12531861926E+03  0.12531861926E+03  0.00000000000E+00 0. -1.
         25    2    1    2    0    0 -0.71189778963E+01 -0.13200933757E+02 -0.37875383857E+02  0.13155782625E+03  0.12509185604E+03 0.  0.
          5    1    3    3  502    0  0.27409654900E+02 -0.59294880794E+02 -0.63388100792E+01  0.65763401549E+02  0.41800000000E+01 0. -1.
         -5    1    3    3    0  502 -0.34528632796E+02  0.46093947037E+02 -0.31536573778E+02  0.65794424702E+02  0.41800000000E+01 0. -1.
        -11    1    1    2    0    0 -0.17601505570E+02 -0.26098410701E+01  0.45875173207E+02  0.49205241444E+02  0.00000000000E+00 0.  1.
         11    1    1    2    0    0  0.24720483466E+02  0.15810774827E+02 -0.33408284091E+02  0.44465676081E+02  0.00000000000E+00 0. -1.
</event>
<event>
 7    1  0.3056346E-009  0.1474402E+03  0.7561462E-02  0.1203654E+00
         -2   -1    0    0    0  501 -0.00000000000E+00  0.00000000000E+00  0.18747412602E+03  0.18747412602E+03  0.00000000000E+00 0.  1.
          2   -1    0    0  501    0  0.00000000000E+00 -0.00000000000E+00 -0.12308004668E+03  0.12308004668E+03  0.00000000000E+00 0. -1.
         25    2    1    2    0    0  0.10555581375E+03  0.58802195035E+01  0.52622351603E+02  0.17202776219E+03  0.12509129578E+03 0.  0.
          5    1    3    3  502    0  0.92335504938E+02  0.57679071277E+02  0.25316164790E+02  0.11185303454E+03  0.41800000000E+01 0.  1.
         -5    1    3    3    0  502  0.13220308815E+02 -0.51798851774E+02  0.27306186812E+02  0.60174727656E+02  0.41800000000E+01 0.  1.
        -11    1    1    2    0    0  0.49380394600E+01 -0.20286109297E+02 -0.12705672969E+02  0.24440633988E+02  0.00000000000E+00 0.  1.
         11    1    1    2    0    0 -0.11049385321E+03  0.14405889794E+02  0.24477400711E+02  0.11408577652E+03  0.00000000000E+00 0. -1.
</event>
<event>
 7    1  0.3056346E-009  0.1246162E+03  0.7561462E-02  0.1235670E+00
          1   -1    0    0  501    0  0.00000000000E+00  0.00000000000E+00  0.21767757345E+03  0.21767757345E+03  0.00000000000E+00 0. -1.
         -1   -1    0    0    0  501 -0.00000000000E+00 -0.00000000000E+00 -0.97633617848E+02  0.97633617848E+02  0.00000000000E+00 0.  1.
         25    2    1    2    0    0  0.29518612261E+02  0.68668537130E+02  0.13400674562E+03  0.19797313215E+03  0.12509531056E+03 0.  0.
          5    1    3    3  502    0 -0.16319949980E+02  0.83504865372E+02  0.12084632917E+03  0.14785368099E+03  0.41800000000E+01 0. -1.
         -5    1    3    3    0  502  0.45838562241E+02 -0.14836328242E+02  0.13160416445E+02  0.50119451165E+02  0.41800000000E+01 0. -1.
        -11    1    1    2    0    0 -0.25660621785E+02  0.16448559090E+02  0.24090475447E+01  0.30574926273E+02  0.00000000000E+00 0.  1.
         11    1    1    2    0    0 -0.38579904761E+01 -0.85117096221E+02 -0.16371837563E+02  0.86763132866E+02  0.00000000000E+00 0. -1.
</event>
<event>
 7    1  0.3056346E-009  0.2364515E+03  0.7561462E-02  0.1122180E+00
          1   -1    0    0  501    0  0.00000000000E+00  0.00000000000E+00  0.68250717936E+03  0.68250717936E+03  0.00000000000E+00 0. -1.
         -1   -1    0    0    0  501 -0.00000000000E+00 -0.00000000000E+00 -0.98841332987E+02  0.98841332987E+02  0.00000000000E+00 0.  1.
         25    2    1    2    0    0  0.19408753803E+03  0.11325452088E+03  0.19506253967E+03  0.32278771765E+03  0.12508380136E+03 0.  0.
          5    1    3    3  502    0  0.19715551020E+03  0.12413524573E+03  0.15233839164E+03  0.27839596333E+03  0.41800000000E+01 0. -1.
         -5    1    3    3    0  502 -0.30679721655E+01 -0.10880724843E+02  0.42724148029E+02  0.44391754314E+02  0.41800000000E+01 0. -1.
        -11    1    1    2    0    0 -0.10969822382E+03 -0.85211675383E+02  0.15256627164E+03  0.20632788753E+03  0.00000000000E+00 0.  1.
         11    1    1    2    0    0 -0.84389314211E+02 -0.28042845501E+02  0.23603703507E+03  0.25223290717E+03  0.00000000000E+00 0. -1.
</event>
<event>
 7    1  0.3056346E-009  0.1021684E+03  0.7561462E-02  0.1275801E+00
         -1   -1    0    0    0  501 -0.00000000000E+00  0.00000000000E+00  0.12470355134E+03  0.12470355134E+03  0.00000000000E+00 0.  1.
          1   -1    0    0  501    0  0.00000000000E+00 -0.00000000000E+00 -0.10740795285E+03  0.10740795285E+03  0.00000000000E+00 0. -1.
         25    2    1    2    0    0 -0.37732020781E+02 -0.19961481735E+02 -0.23793643110E+01  0.13219693305E+03  0.12509277192E+03 0.  0.
          5    1    3    3  502    0 -0.27461247490E+00 -0.61206325384E+02 -0.31746991302E+02  0.69077011630E+02  0.41800000000E+01 0.  1.
         -5    1    3    3    0  502 -0.37457408307E+02  0.41244843649E+02  0.29367626991E+02  0.63119921418E+02  0.41800000000E+01 0.  1.
        -11    1    1    2    0    0  0.51610821497E+02  0.38190581335E+02  0.34241851323E+02  0.72764701472E+02  0.00000000000E+00 0.  1.
         11    1    1    2    0    0 -0.13878800716E+02 -0.18229099600E+02 -0.14566888523E+02  0.27149869664E+02  0.00000000000E+00 0. -1.
</event>
<event>
 7    1  0.3056346E-009  0.7526939E+02  0.7561462E-02  0.1343039E+00
          3   -1    0    0  501    0  0.00000000000E+00  0.00000000000E+00  0.72700749292E+02  0.72700749292E+02  0.00000000000E+00 0. -1.
         -3   -1    0    0    0  501 -0.00000000000E+00 -0.00000000000E+00 -0.15668641880E+03  0.15668641880E+03  0.00000000000E+00 0.  1.
         25    2    1    2    0    0  0.10400925215E+02  0.20031946319E+01 -0.53159714872E+02  0.13633320382E+03  0.12509434497E+03 0.  0.
          5    1    3    3  502    0  0.60742880706E+02 -0.24503274403E+02 -0.42796104530E+02  0.78352325912E+02  0.41800000000E+01 0. -1.
         -5    1    3    3    0  502 -0.50341955491E+02  0.26506469034E+02 -0.10363610342E+02  0.57980877905E+02  0.41800000000E+01 0. -1.
        -11    1    1    2    0    0 -0.57202138586E+01  0.11892465862E+02  0.28785142144E+02  0.31666006997E+02  0.00000000000E+00 0. -1.
         11    1    1    2    0    0 -0.46807113560E+01 -0.13895660494E+02 -0.59611096777E+02  0.61387957274E+02  0.00000000000E+00 0.  1.
</event>
<event>
 7    1  0.3056346E-009  0.1741583E+03  0.7561462E-02  0.1173579E+00
          4   -1    0    0  501    0  0.00000000000E+00  0.00000000000E+00  0.76065589247E+03  0.76065589247E+03  0.00000000000E+00 0.  1.
         -4   -1    0    0    0  501 -0.00000000000E+00 -0.00000000000E+00 -0.10203603844E+03  0.10203603844E+03  0.00000000000E+00 0. -1.
         25    2    1    2    0    0 -0.43245119075E+02 -0.14233829668E+03  0.66063335200E+03  0.68863132355E+03  0.12508534280E+03 0.  0.
          5    1    3    3  502    0 -0.86350945126E+02 -0.10997150205E+03  0.45577250709E+03  0.47675598329E+03  0.41800000000E+01 0.  1.
         -5    1    3    3    0  502  0.43105826051E+02 -0.32366794628E+02  0.20486084491E+03  0.21187534026E+03  0.41800000000E+01 0.  1.
        -11    1    1    2    0    0  0.33292718398E+02  0.42285315271E+02  0.37960229190E+02  0.65859183005E+02  0.00000000000E+00 0.  1.
         11    1    1    2    0    0  0.99524006765E+01  0.10005298141E+03 -0.39973727159E+02  0.10820142435E+03  0.00000000000E+00 0. -1.
</event>
<event>
 7    1  0.3056346E-009  0.6097503E+02  0.7561462E-02  0.1393785E+00
          1   -1    0    0  501    0  0.00000000000E+00  0.00000000000E+00  0.44329640744E+03  0.44329640744E+03  0.00000000000E+00 0. -1.
         -1   -1    0    0    0  501 -0.00000000000E+00 -0.00000000000E+00 -0.28199522589E+02  0.28199522589E+02  0.00000000000E+00 0.  1.
         25    2    1    2    0    0 -0.24835793379E+02 -0.36786115652E+01  0.25628083633E+03  0.28628176821E+03  0.12508810865E+03 0.  0.
          5    1    3    3  502    0 -0.41110300630E+02 -0.49892030472E+01  0.14742458286E+02  0.44156103103E+02  0.41800000000E+01 0.  1.
         -5    1    3    3    0  502  0.16274507251E+02  0.13105914820E+01  0.24153837804E+03  0.24212566511E+03  0.41800000000E+01 0.  1.
        -11    1    1    2    0    0  0.35465040719E+02  0.22399137516E+02  0.15821193005E+03  0.16367805377E+03  0.00000000000E+00 0. -1.
         11    1    1    2    0    0 -0.10629247340E+02 -0.18720525950E+02  0.60411847275E+00  0.21536108052E+02  0.00000000000E+00 0.  1.
</event>
<event>
 7    1  0.3056346E-009  0.1197553E+03  0.7561462E-02  0.1243501E+00
         -1   -1    0    0    0  501 -0.00000000000E+00  0.00000000000E+00  0.11907803351E+03  0.11907803351E+03  0.00000000000E+00 0.  1.
          1   -1    0    0  501    0  0.00000000000E+00 -0.00000000000E+00 -0.21135568605E+03  0.21135568605E+03  0.00000000000E+00 0. -1.
         25    2    1    2    0    0 -0.18376306199E+02 -0.89010717143E+02  0.22333905642E+02  0.15621993297E+03  0.12508104461E+03 0.  0.
          5    1    3    3  502    0 -0.29223649051E+02 -0.92956218903E+02 -0.30334483993E+02  0.10213977490E+03  0.41800000000E+01 0.  1.
         -5    1    3    3    0  502  0.10847342853E+02  0.39455017602E+01  0.52668389635E+02  0.54080158079E+02  0.41800000000E+01 0.  1.
        -11    1    1    2    0    0 -0.36108823710E+02  0.53926839585E+02 -0.44207232879E+02  0.78525350150E+02  0.00000000000E+00 0.  1.
         11    1    1    2    0    0  0.54485129909E+02  0.35083877557E+02 -0.70404325307E+02  0.95688436436E+02  0.00000000000E+00 0. -1.
</event>
<event>
 7    1  0.3056346E-009  0.1503865E+03  0.7561462E-02  0.1199999E+00
          1   -1    0    0  501    0  0.00000000000E+00  0.00000000000E+00  0.12611142007E+04  0.12611142007E+04  0.00000000000E+00 0. -1.
         -1   -1    0    0    0  501 -0.00000000000E+00 -0.00000000000E+00 -0.33326715831E+02  0.33326715831E+02  0.00000000000E+00 0.  1.
         25    2    1    2    0    0 -0.10399806555E+03 -0.75701109954E+02  0.10062331845E+04  0.10221056823E+04  0.12509415851E+03 0.  0.
          5    1    3    3  502    0 -0.58426306343E+02  0.19140396115E+02  0.20739332801E+03  0.21635492354E+03  0.41800000000E+01 0.  1.
         -5    1    3    3    0  502 -0.45571759210E+02 -0.94841506069E+02  0.79883985654E+03  0.80575075880E+03  0.41800000000E+01 0.  1.
        -11    1    1    2    0    0  0.47462883530E+02  0.57268350095E+02  0.47133339703E+02  0.88056464540E+02  0.00000000000E+00 0.  1.
         11    1    1    2    0    0  0.56535182022E+02  0.18432759859E+02  0.17442096062E+03  0.18427876966E+03  0.00000000000E+00 0. -1.
</event>
<event>
 7    1  0.3056346E-009  0.1099174E+03  0.7561462E-02  0.1260723E+00
         -2   -1    0    0    0  501 -0.00000000000E+00  0.00000000000E+00  0.39948431640E+02  0.39948431640E+02  0.00000000000E+00 0.  1.
          2   -1    0    0  501    0  0.00000000000E+00 -0.00000000000E+00 -0.48936783767E+03  0.48936783767E+03  0.00000000000E+00 0. -1.
         25    2    1    2    0    0  0.85718286531E+02  0.15378366993E+02 -0.21710957782E+03  0.26526794575E+03  0.12508555250E+03 0.  0.
          5    1    3    3  502    0  0.35444250237E+01  0.12446040219E+02 -0.16973447740E+03  0.17027839582E+03  0.41800000000E+01 0. -1.
         -5    1    3    3    0  502  0.82173861508E+02  0.29323267742E+01 -0.47375100414E+02  0.94989549924E+02  0.41800000000E+01 0. -1.
        -11    1    1    2    0    0 -0.36751540347E+02 -0.51348047696E+02 -0.97258690607E+02  0.11595926275E+03  0.00000000000E+00 0.  1.
         11    1    1    2    0    0 -0.48966746184E+02  0.35969680703E+02 -0.13505113761E+03  0.14808906081E+03  0.00000000000E+00 0. -1.
</event>
<event>
 7    1  0.3056346E-009  0.1166922E+03  0.7561462E-02  0.1248656E+00
          4   -1    0    0  501    0  0.00000000000E+00  0.00000000000E+00  0.95818309565E+02  0.95818309565E+02  0.00000000000E+00 0. -1.
         -4   -1    0    0    0  501 -0.00000000000E+00 -0.00000000000E+00 -0.19085094353E+03  0.19085094353E+03  0.00000000000E+00 0.  1.
         25    2    1    2    0    0  0.74223250248E+02 -0.12167143263E+02 -0.12133811141E+03  0.18980858445E+03  0.12508889318E+03 0.  0.
          5    1    3    3  502    0  0.73752873009E+02 -0.60363093984E+02 -0.64437274128E+02  0.11512091074E+03  0.41800000000E+01 0.  1.
         -5    1    3    3    0  502  0.47037723943E+00  0.48195950721E+02 -0.56900837279E+02  0.74687673707E+02  0.41800000000E+01 0.  1.
        -11    1    1    2    0    0 -0.36180616248E+02 -0.18599175199E+02  0.25333515779E+02  0.47924454425E+02  0.00000000000E+00 0. -1.
         11    1    1    2    0    0 -0.38042634000E+02  0.30766318462E+02  0.97196166139E+00  0.48936214226E+02  0.00000000000E+00 0.  1.
</event>
<event>
 7    1  0.3056346E-009  0.9542789E+02  0.7561462E-02  0.1290215E+00
          1   -1    0    0  501    0  0.00000000000E+00  0.00000000000E+00  0.39741901333E+02  0.39741901333E+02  0.00000000000E+00 0. -1.
         -1   -1    0    0    0  501 -0.00000000000E+00 -0.00000000000E+00 -0.39369565663E+03  0.39369565663E+03  0.00000000000E+00 0.  1.
         25    2    1    2    0    0  0.71194105398E+02 -0.90419574247E+01 -0.20607928118E+03  0.25152314930E+03  0.12507944220E+03 0.  0.
          5    1    3    3  502    0 -0.97400869518E+01 -0.24001537121E+02 -0.14895841098E+03  0.15125152455E+03  0.41800000000E+01 0.  1.
         -5    1    3    3    0  502  0.80934192350E+02  0.14959579696E+02 -0.57120870207E+02  0.10027162475E+03  0.41800000000E+01 0.  1.
        -11    1    1    2    0    0 -0.54557100857E+02 -0.11517117407E+02 -0.34664637505E+02  0.65656365576E+02  0.00000000000E+00 0. -1.
         11    1    1    2    0    0 -0.16637004541E+02  0.20559074832E+02 -0.11320983661E+03  0.11625804309E+03  0.00000000000E+00 0.  1.
</event>
<event>
 7    1  0.3056346E-009  0.1309904E+03  0.7561462E-02  0.1225994E+00
          1   -1    0    0  501    0  0.00000000000E+00  0.00000000000E+00  0.89793870032E+02  0.89793870032E+02  0.00000000000E+00 0. -1.
         -1   -1    0    0    0  501 -0.00000000000E+00 -0.00000000000E+00 -0.23587172852E+03  0.23587172852E+03  0.00000000000E+00 0.  1.
         25    2    1    2    0    0  0.46136085966E+02 -0.84554944753E+02 -0.43919657627E+02  0.16387171757E+03  0.12508767478E+03 0.  0.
          5    1    3    3  502    0 -0.10097811032E+02  0.22736953089E+02  0.14737907655E+02  0.29216658698E+02  0.41800000000E+01 0. -1.
         -5    1    3    3    0  502  0.56233896998E+02 -0.10729189784E+03 -0.58657565282E+02  0.13465505887E+03  0.41800000000E+01 0. -1.
        -11    1    1    2    0    0 -0.19072958031E+02  0.86342534503E+02 -0.46560458208E+02  0.99933414136E+02  0.00000000000E+00 0.  1.
         11    1    1    2    0    0 -0.27063127934E+02 -0.17875897498E+01 -0.55597742649E+02  0.61860466846E+02  0.00000000000E+00 0. -1.
</event>
<event>
 7    1  0.3056346E-009  0.1439368E+03  0.7561462E-02  0.1208128E+00
          1   -1    0    0  501    0  0.00000000000E+00  0.00000000000E+00  0.30515179064E+03  0.30515179064E+03  0.00000000000E+00 0. -1.
         -1   -1    0    0    0  501 -0.00000000000E+00 -0.00000000000E+00 -0.13117423133E+03  0.13117423133E+03  0.00000000000E+00 0.  1.
         25    2    1    2    0    0  0.36951802713E+02 -0.12618261996E+03 -0.21573822553E+02  0.18275525697E+03  0.12508622957E+03 0.  0.
          5    1    3    3  502    0  0.53810357285E+02 -0.37701336057E+02  0.36718894267E+02  0.75383651330E+02  0.41800000000E+01 0.  1.
         -5    1    3    3    0  502 -0.16858554572E+02 -0.88481283907E+02 -0.58292716820E+02  0.10737160564E+03  0.41800000000E+01 0.  1.
        -11    1    1    2    0    0 -0.26775418536E+02  0.73840304831E+02  0.38026735072E+02  0.87265951181E+02  0.00000000000E+00 0.  1.
         11    1    1    2    0    0 -0.10176384177E+02  0.52342315133E+02  0.15752464680E+03  0.16630481381E+03  0.00000000000E+00 0. -1.
</event>
<event>
 7    1  0.3056346E-009  0.9877050E+02  0.7561462E-02  0.1282903E+00
         -2   -1    0    0    0  501 -0.00000000000E+00  0.00000000000E+00  0.61848231551E+02  0.61848231551E+02  0.00000000000E+00 0. -1.
          2   -1    0    0  501    0  0.00000000000E+00 -0.00000000000E+00 -0.27471389101E+03  0.27471389101E+03  0.00000000000E+00 0.  1.
         25    2    1    2    0    0  0.58417520333E+02 -0.13654564202E+02 -0.64546169359E+02  0.15301650839E+03  0.12509512403E+03 0.  0.
          5    1    3    3  502    0 -0.61713549518E+01  0.25143568883E+02  0.24781077195E+02  0.36081281367E+02  0.41800000000E+01 0.  1.
         -5    1    3    3    0  502  0.64588875285E+02 -0.38798133086E+02 -0.89327246554E+02  0.11693522702E+03  0.41800000000E+01 0.  1.
        -11    1    1    2    0    0 -0.52407235121E+02  0.41824051800E+02 -0.57702467799E+02  0.88460976663E+02  0.00000000000E+00 0. -1.
         11    1    1    2    0    0 -0.60102852124E+01 -0.28169487598E+02 -0.90617022305E+02  0.95084637514E+02  0.00000000000E+00 0.  1.
</event>
<event>
 7    1  0.3056346E-009  0.1283784E+03  0.7561462E-02  0.1229882E+00
         -1   -1    0    0    0  501 -0.00000000000E+00  0.00000000000E+00  0.22077076372E+03  0.22077076372E+03  0.00000000000E+00 0.  1.
          1   -1    0    0  501    0  0.00000000000E+00 -0.00000000000E+00 -0.10241871099E+03  0.10241871099E+03  0.00000000000E+00 0. -1.
         25    2    1    2    0    0 -0.10387485966E+03 -0.56135987220E+01  0.63840534851E+02  0.17477102372E+03  0.12509115830E+03 0.  0.
          5    1    3    3  502    0 -0.11891366607E+03 -0.16880979570E+02  0.84208989109E+02  0.14674485919E+03  0.41800000000E+01 0. -1.
         -5    1    3    3    0  502  0.15038806419E+02  0.11267380848E+02 -0.20368454259E+02  0.28026164536E+02  0.41800000000E+01 0. -1.
        -11    1    1    2    0    0  0.84172760098E+01 -0.17228717771E+02  0.46072901951E+02  0.49903822957E+02  0.00000000000E+00 0.  1.
         11    1    1    2    0    0  0.95457583645E+02  0.22842316493E+02  0.84386159229E+01  0.98514628035E+02  0.00000000000E+00 0. -1.
</event>
<event>
 7    1  0.3056346E-009  0.8333843E+02  0.7561462E-02  0.1319836E+00
         -1   -1    0    0    0  501 -0.00000000000E+00  0.00000000000E+00  0.38969185772E+03  0.38969185772E+03  0.00000000000E+00 0.  1.
          1   -1    0    0  501    0  0.00000000000E+00 -0.00000000000E+00 -0.33687180493E+02  0.33687180493E+02  0.00000000000E+00 0. -1.
         25    2    1    2    0    0 -0.25979591881E+02  0.69871867713E+01  0.25125147682E+03  0.28195647263E+03  0.12509351656E+03 0.  0.
          5    1    3    3  502    0 -0.52084099974E+02 -0.13135819616E+02  0.24134658073E+03  0.24728717649E+03  0.41800000000E+01 0. -1.
         -5    1    3    3    0  502  0.26104508093E+02  0.20123006387E+02  0.99048960899E+01  0.34669296148E+02  0.41800000000E+01 0. -1.
        -11    1    1    2    0    0 -0.24332071482E+02 -0.15066343495E+02  0.45108204176E+01  0.28972261040E+02  0.00000000000E+00 0. -1.
         11    1    1    2    0    0  0.50311663364E+02  0.80791567232E+01  0.10024238000E+03  0.11245030454E+03  0.00000000000E+00 0.  1.
</event>
<event>
 7    1  0.3056346E-009  0.9142150E+02  0.7561462E-02  0.1299445E+00
         -1   -1    0    0    0  501 -0.00000000000E+00  0.00000000000E+00  0.37769851314E+02  0.37769851314E+02  0.00000000000E+00 0.  1.
          1   -1    0    0  501    0  0.00000000000E+00 -0.00000000000E+00 -0.42764598513E+03  0.42764598513E+03  0.00000000000E+00 0. -1.
         25    2    1    2    0    0 -0.12319781351E+02  0.53107229722E+02 -0.27725797398E+03  0.30901865953E+03  0.12509353676E+03 0.  0.
          5    1    3    3  502    0 -0.13435714954E+02 -0.21886580972E+02 -0.19843676895E+03  0.20013536553E+03  0.41800000000E+01 0. -1.
         -5    1    3    3    0  502  0.11159336035E+01  0.74993810694E+02 -0.78821205028E+02  0.10888329400E+03  0.41800000000E+01 0. -1.
        -11    1    1    2    0    0  0.14832975106E+02 -0.66471565253E+02 -0.33098508740E+02  0.75723163025E+02  0.00000000000E+00 0.  1.
         11    1    1    2    0    0 -0.25131937557E+01  0.13364335531E+02 -0.79519651094E+02  0.80674013890E+02  0.00000000000E+00 0. -1.
</event>
<event>
 7    1  0.3056346E-009  0.1068345E+03  0.7561462E-02  0.1266547E+00
         -1   -1    0    0    0  501 -0.00000000000E+00  0.00000000000E+00  0.32698268433E+02  0.32698268433E+02  0.00000000000E+00 0.  1.
          1   -1    0    0  501    0  0.00000000000E+00 -0.00000000000E+00 -0.37887011273E+03  0.37887011273E+03  0.00000000000E+00 0. -1.
         25    2    1    2    0    0 -0.69473168932E+01  0.17407288252E+02 -0.21056426798E+03  0.24563413720E+03  0.12509012556E+03 0.  0.
          5    1    3    3  502    0 -0.63637197356E+02  0.86456121243E+01 -0.14359021963E+03  0.15735330651E+03  0.41800000000E+01 0. -1.
         -5    1    3    3    0  502  0.56689880463E+02  0.87616761275E+01 -0.66974048357E+02  0.88280830699E+02  0.41800000000E+01 0. -1.
        -11    1    1    2    0    0 -0.41501802786E+02 -0.51446612106E+01 -0.85417780089E+02  0.95105543102E+02  0.00000000000E+00 0.  1.
         11    1    1    2    0    0  0.48449119679E+02 -0.12262627041E+02 -0.50189796221E+02  0.70828700852E+02  0.00000000000E+00 0. -1.
</event>
<event>
 7    1  0.3056346E-009  0.8192789E+02  0.7561462E-02  0.1323668E+00
          1   -1    0    0  501    0  0.00000000000E+00  0.00000000000E+00  0.23965165890E+02  0.23965165890E+02  0.00000000000E+00 0. -1.
         -1   -1    0    0    0  501 -0.00000000000E+00 -0.00000000000E+00 -0.80852915622E+03  0.80852915622E+03  0.00000000000E+00 0.  1.
         25    2    1    2    0    0 -0.17027466499E+02  0.49770880981E+02 -0.63675615863E+03  0.65105466355E+03  0.12508674654E+03 0.  0.
          5    1    3    3  502    0 -0.37211486168E+02  0.10916011699E+02 -0.53851477311E+02  0.66492917088E+02  0.41800000000E+01 0. -1.
         -5    1    3    3    0  502  0.20184019669E+02  0.38854869282E+02 -0.58290468132E+03  0.58456174646E+03  0.41800000000E+01 0. -1.
        -11    1    1    2    0    0  0.40166279520E+02 -0.26957392451E+02 -0.25091504057E+02  0.54494170277E+02  0.00000000000E+00 0. -1.
         11    1    1    2    0    0 -0.23138813021E+02 -0.22813488530E+02 -0.12271632764E+03  0.12694548828E+03  0.00000000000E+00 0.  1.
</event>
<event>
 7    1  0.3056346E-009  0.9374514E+02  0.7561462E-02  0.1294028E+00
          2   -1    0    0  501    0  0.00000000000E+00  0.00000000000E+00  0.67793815870E+03  0.67793815870E+03  0.00000000000E+00 0. -1.
         -2   -1    0    0    0  501 -0.00000000000E+00 -0.00000000000E+00 -0.19987961602E+02  0.19987961602E+02  0.00000000000E+00 0.  1.
         25    2    1    2    0    0 -0.30209334932E+02  0.20711808035E+02  0.31025635718E+03  0.33652261329E+03  0.12508748609E+03 0.  0.
          5    1    3    3  502    0 -0.34102478707E+02  0.51308380428E+02  0.29584929391E+03  0.30222476084E+03  0.41800000000E+01 0.  1.
         -5    1    3    3    0  502  0.38931437747E+01 -0.30596572393E+02  0.14407063264E+02  0.34297852448E+02  0.41800000000E+01 0.  1.
        -11    1    1    2    0    0 -0.20934303092E+02  0.20223270377E+02  0.15950072519E+03  0.16213484217E+03  0.00000000000E+00 0.  1.
         11    1    1    2    0    0  0.51143638024E+02 -0.40935078412E+02  0.18819311473E+03  0.19926866484E+03  0.00000000000E+00 0. -1.
</event>
<event>
 7    1  0.3056346E-009  0.9202478E+02  0.7561462E-02  0.1298021E+00
          2   -1    0    0  501    0  0.00000000000E+00  0.00000000000E+00  0.20521882832E+03  0.20521882832E+03  0.00000000000E+00 0. -1.
         -2   -1    0    0    0  501 -0.00000000000E+00 -0.00000000000E+00 -0.58835269466E+02  0.58835269466E+02  0.00000000000E+00 0.  1.
         25    2    1    2    0    0  0.12108151838E+02 -0.13908014959E+02  0.73924954491E+02  0.14646821661E+03  0.12509196360E+03 0.  0.
          5    1    3    3  502    0 -0.31422445936E+02 -0.56865704637E+02  0.39896387243E+02  0.76356221669E+02  0.41800000000E+01 0. -1.
         -5    1    3    3    0  502  0.43530597774E+02  0.42957689678E+02  0.34028567248E+02  0.70111994937E+02  0.41800000000E+01 0. -1.
        -11    1    1    2    0    0 -0.50983504039E+01  0.35025397709E+02 -0.61182925509E+01  0.35919426016E+02  0.00000000000E+00 0.  1.
         11    1    1    2    0    0 -0.70098014342E+01 -0.21117382751E+02  0.78576896910E+02  0.81666455160E+02  0.00000000000E+00 0. -1.
</event>
<event>
 7    1  0.3056346E-009  0.9206294E+02  0.7561462E-02  0.1297932E+00
         -1   -1    0    0    0  501 -0.00000000000E+00  0.00000000000E+00  0.62913193649E+02  0.62913193649E+02  0.00000000000E+00 0.  1.
          1   -1    0    0  501    0  0.00000000000E+00 -0.00000000000E+00 -0.22468933699E+03  0.22468933699E+03  0.00000000000E+00 0. -1.
         25    2    1    2    0    0  0.59024583171E+01  0.49458101131E+02 -0.10451371931E+03  0.17044479456E+03  0.12508943875E+03 0.  0.
          5    1    3    3  502    0 -0.32287955285E+02  0.57373749534E+02 -0.82318988809E+01  0.66479288137E+02  0.41800000000E+01 0. -1.
         -5    1    3    3    0  502  0.38190413602E+02 -0.79156484033E+01 -0.96281820430E+02  0.10396550642E+03  0.41800000000E+01 0. -1.
        -11    1    1    2    0    0 -0.79519681490E+01 -0.63876421978E+02 -0.71903757288E+02  0.96506898170E+02  0.00000000000E+00 0. -1.
         11    1    1    2    0    0  0.20495098319E+01  0.14418320848E+02  0.14641333259E+02  0.20650837906E+02  0.00000000000E+00 0.  1.
</event>
<event>
 7    1  0.3056346E-009  0.1516641E+03  0.7561462E-02  0.1198443E+00
         -2   -1    0    0    0  501 -0.00000000000E+00  0.00000000000E+00  0.24901213315E+02  0.24901213315E+02  0.00000000000E+00 0.  1.
          2   -1    0    0  501    0  0.00000000000E+00 -0.00000000000E+00 -0.96178197377E+03  0.96178197377E+03  0.00000000000E+00 0. -1.
         25    2    1    2    0    0  0.22130199689E+02 -0.10628232304E+03 -0.46111407794E+03  0.48995783857E+03  0.12508722069E+03 0.  0.
          5    1    3    3  502    0 -0.40188462270E+02 -0.24189164757E+01 -0.16733289436E+03  0.17215903575E+03  0.41800000000E+01 0. -1.
         -5    1    3    3    0  502  0.62318661958E+02 -0.10386340657E+03 -0.29378118358E+03  0.31779880283E+03  0.41800000000E+01 0. -1.
        -11    1    1    2    0    0 -0.49476061204E+02  0.10280074871E+03 -0.40553723828E+03  0.42127939209E+03  0.00000000000E+00 0. -1.
         11    1    1    2    0    0  0.27345861516E+02  0.34815743349E+01 -0.70229444243E+02  0.75445956423E+02  0.00000000000E+00 0.  1.
</event>
<event>
 7    1  0.3056346E-009  0.9433455E+02  0.7561462E-02  0.1292682E+00
         -2   -1    0    0    0  501 -0.00000000000E+00  0.00000000000E+00  0.43752160345E+02  0.43752160345E+02  0.00000000000E+00 0.  1.
          2   -1    0    0  501    0  0.00000000000E+00 -0.00000000000E+00 -0.39619438632E+03  0.39619438632E+03  0.00000000000E+00 0. -1.
         25    2    1    2    0    0 -0.50401135961E+02  0.27049460790E+02 -0.27816594032E+03  0.31031539093E+03  0.12508958254E+03 0.  0.
          5    1    3    3  502    0 -0.48405734446E+02  0.47543452316E+02 -0.58608181603E+02  0.89754589499E+02  0.41800000000E+01 0. -1.
         -5    1    3    3    0  502 -0.19954015158E+01 -0.20493991526E+02 -0.21955775871E+03  0.22056080143E+03  0.41800000000E+01 0. -1.
        -11    1    1    2    0    0 -0.11897188325E+02 -0.34916207019E+02 -0.50389414643E+02  0.62448200220E+02  0.00000000000E+00 0.  1.
         11    1    1    2    0    0  0.62298324286E+02  0.78667462297E+01 -0.23886871018E+02  0.67182955518E+02  0.00000000000E+00 0. -1.
</event>
<event>
 7    1  0.3056346E-009  0.7759936E+02  0.7561462E-02  0.1336005E+00
          1   -1    0    0  501    0  0.00000000000E+00  0.00000000000E+00  0.49862526456E+03  0.49862526456E+03  0.00000000000E+00 0. -1.
         -1   -1    0    0    0  501 -0.00000000000E+00 -0.00000000000E+00 -0.31743895110E+02  0.31743895110E+02  0.00000000000E+00 0.  1.
         25    2    1    2    0    0 -0.93397257180E+01 -0.43202485722E+02  0.36000117935E+03  0.38366904887E+03  0.12508958660E+03 0.  0.
          5    1    3    3  502    0  0.17300805145E+02 -0.50324859137E+02  0.34998742461E+03  0.35403471453E+03  0.41800000000E+01 0. -1.
         -5    1    3    3    0  502 -0.26640530863E+02  0.71223734146E+01  0.10013754741E+02  0.29634334339E+02  0.41800000000E+01 0. -1.
        -11    1    1    2    0    0  0.22570605060E+02  0.52906545269E+02  0.11485767378E+03  0.12845551748E+03  0.00000000000E+00 0. -1.
         11    1    1    2    0    0 -0.13230879342E+02 -0.97040595475E+01 -0.79774836751E+01  0.18244593327E+02  0.00000000000E+00 0.  1.
</event>
<event>
 7    1  0.3056346E-009  0.1034607E+03  0.7561462E-02  0.1273182E+00
          2   -1    0    0  501    0  0.00000000000E+00  0.00000000000E+00  0.13279788387E+04  0.13279788387E+04  0.00000000000E+00 0. -1.
         -2   -1    0    0    0  501 -0.00000000000E+00 -0.00000000000E+00 -0.14401306953E+02  0.14401306953E+02  0.00000000000E+00 0.  1.
         25    2    1    2    0    0 -0.35729178366E+01 -0.26660015698E+02  0.11107548474E+04  0.11181042609E+04  0.12512907302E+03 0.  0.
          5    1    3    3  502    0  0.25824262839E+01 -0.73850996607E+02  0.49549565797E+03  0.50099307190E+03  0.41800000000E+01 0. -1.
         -5    1    3    3    0  502 -0.61553441205E+01  0.47190980909E+02  0.61525918946E+03  0.61711118898E+03  0.41800000000E+01 0. -1.
        -11    1    1    2    0    0  0.21015017990E+02 -0.23796216365E+02  0.31084214568E+02  0.44431062217E+02  0.00000000000E+00 0.  1.
         11    1    1    2    0    0 -0.17442100153E+02  0.50456232062E+02  0.17173846979E+03  0.17984482261E+03  0.00000000000E+00 0. -1.
</event>
<event>
 7    1  0.3056346E-009  0.1424677E+03  0.7561462E-02  0.1210047E+00
          2   -1    0    0  501    0  0.00000000000E+00  0.00000000000E+00  0.62232740508E+03  0.62232740508E+03  0.00000000000E+00 0. -1.
         -2   -1    0    0    0  501 -0.00000000000E+00 -0.00000000000E+00 -0.39825902625E+02  0.39825902625E+02  0.00000000000E+00 0.  1.
         25    2    1    2    0    0 -0.10418071161E+03  0.41708528127E+02  0.26781328549E+03  0.31617152309E+03  0.12508898490E+03 0.  0.
          5    1    3    3  502    0 -0.70252201133E+02  0.69601110136E+02  0.24947229067E+03  0.26839072731E+03  0.41800000000E+01 0. -1.
         -5    1    3    3    0  502 -0.33928510482E+02 -0.27892582010E+02  0.18340994817E+02  0.47780795782E+02  0.41800000000E+01 0. -1.
        -11    1    1    2    0    0  0.74807878520E+02  0.16525946997E+02  0.19796116582E+03  0.21226857701E+03  0.00000000000E+00 0.  1.
         11    1    1    2    0    0  0.29372833095E+02 -0.58234475123E+02  0.11672705115E+03  0.13371320760E+03  0.00000000000E+00 0. -1.
</event>
<event>
 7    1  0.3056346E-009  0.1348201E+03  0.7561462E-02  0.1220474E+00
         -1   -1    0    0    0  501 -0.00000000000E+00  0.00000000000E+00  0.32613382297E+02  0.32613382297E+02  0.00000000000E+00 0.  1.
          1   -1    0    0  501    0  0.00000000000E+00 -0.00000000000E+00 -0.84356936208E+03  0.84356936208E+03  0.00000000000E+00 0. -1.
         25    2    1    2    0    0 -0.40812799209E+02 -0.85109314561E+02 -0.22021878777E+03  0.27028324047E+03  0.12508971017E+03 0.  0.
          5    1    3    3  502    0  0.31623948765E+02 -0.37857399483E+02 -0.22384891356E+02  0.54330586157E+02  0.41800000000E+01 0. -1.
         -5    1    3    3    0  502 -0.72436747974E+02 -0.47251915077E+02 -0.19783389642E+03  0.21595265432E+03  0.41800000000E+01 0. -1.
        -11    1    1    2    0    0 -0.18532416956E+02 -0.10289542814E+02 -0.68105284818E+02  0.71327799557E+02  0.00000000000E+00 0.  1.
         11    1    1    2    0    0  0.59345216165E+02  0.95398857375E+02 -0.52263190719E+03  0.53457170435E+03  0.00000000000E+00 0. -1.
</event>
<event>
 7    1  0.3056346E-009  0.1088184E+03  0.7561462E-02  0.1262774E+00
          1   -1    0    0  501    0  0.00000000000E+00  0.00000000000E+00  0.28058854461E+03  0.28058854461E+03  0.00000000000E+00 0. -1.
         -1   -1    0    0    0  501 -0.00000000000E+00 -0.00000000000E+00 -0.99600577711E+02  0.99600577711E+02  0.00000000000E+00 0.  1.
         25    2    1    2    0    0  0.54164652382E+02 -0.22234961556E+02 -0.31472862763E+02  0.14165536512E+03  0.12508996080E+03 0.  0.
          5    1    3    3  502    0 -0.20656124944E+01 -0.64598486264E+02 -0.86195810496E+00  0.64772266861E+02  0.41800000000E+01 0. -1.
         -5    1    3    3    0  502  0.56230264876E+02  0.42363524708E+02 -0.30610904658E+02  0.76883098257E+02  0.41800000000E+01 0. -1.
        -11    1    1    2    0    0 -0.10347744027E+02  0.35167418209E+02  0.22181385201E+02  0.42846668008E+02  0.00000000000E+00 0.  1.
         11    1    1    2    0    0 -0.43816908355E+02 -0.12932456653E+02  0.19027944446E+03  0.19568708919E+03  0.00000000000E+00 0. -1.
</event>
<event>
 7    1  0.3056346E-009  0.1624167E+03  0.7561462E-02  0.1185995E+00
         -2   -1    0    0    0  501 -0.00000000000E+00  0.00000000000E+00  0.31070016482E+02  0.31070016482E+02  0.00000000000E+00 0.  1.
          2   -1    0    0  501    0  0.00000000000E+00 -0.00000000000E+00 -0.96993443850E+03  0.96993443850E+03  0.00000000000E+00 0. -1.
         25    2    1    2    0    0 -0.86396919921E+02 -0.10223363002E+03 -0.42410103950E+03  0.46198082919E+03  0.12509377267E+03 0.  0.
          5    1    3    3  502    0 -0.74696701966E+02 -0.12004723612E+02 -0.29098015040E+03  0.30068360614E+03  0.41800000000E+01 0. -1.
         -5    1    3    3    0  502 -0.11700217955E+02 -0.90228906405E+02 -0.13312088910E+03  0.16129722306E+03  0.41800000000E+01 0. -1.
        -11    1    1    2    0    0  0.33026461378E+02  0.99169382810E+02 -0.29926108663E+03  0.31698976578E+03  0.00000000000E+00 0. -1.
         11    1    1    2    0    0  0.53370458544E+02  0.30642472064E+01 -0.21550229589E+03  0.22203386001E+03  0.00000000000E+00 0.  1.
</event>
<event>
 7    1  0.3056346E-009  0.1061152E+03  0.7561462E-02  0.1267938E+00
          2   -1    0    0  501    0  0.00000000000E+00  0.00000000000E+00  0.55644407466E+03  0.55644407466E+03  0.00000000000E+00 0. -1.
         -2   -1    0    0    0  501 -0.00000000000E+00 -0.00000000000E+00 -0.48111054751E+02  0.48111054751E+02  0.00000000000E+00 0.  1.
         25    2    1    2    0    0  0.14690254388E+02 -0.86539608576E+02  0.43341169281E+03  0.45956241785E+03  0.12508802104E+03 0.  0.
          5    1    3    3  502    0  0.15767648797E+01 -0.41960155456E+02  0.39989609887E+03  0.40211628060E+03  0.41800000000E+01 0. -1.
         -5    1    3    3    0  502  0.13113489508E+02 -0.44579453120E+02  0.33515593942E+02  0.57446137249E+02  0.41800000000E+01 0. -1.
        -11    1    1    2    0    0 -0.50402048537E+02  0.38029325819E+02  0.30330986784E+02  0.70046876292E+02  0.00000000000E+00 0.  1.
         11    1    1    2    0    0  0.35711794149E+02  0.48510282758E+02  0.44590340309E+02  0.74945835265E+02  0.00000000000E+00 0. -1.
</event>
<event>
 7    1  0.3056346E-009  0.7262006E+02  0.7561462E-02  0.1351403E+00
          2   -1    0    0  501    0  0.00000000000E+00  0.00000000000E+00  0.55816422623E+03  0.55816422623E+03  0.00000000000E+00 0. -1.
         -2   -1    0    0    0  501 -0.00000000000E+00 -0.00000000000E+00 -0.28039744819E+02  0.28039744819E+02  0.00000000000E+00 0.  1.
         25    2    1    2    0    0  0.19207215366E+02 -0.72711112452E+01  0.42918261049E+03  0.44750743186E+03  0.12507358732E+03 0.  0.
          5    1    3    3  502    0  0.15359421937E+02  0.32455324460E+02  0.31924981860E+02  0.48227966937E+02  0.41800000000E+01 0.  1.
         -5    1    3    3    0  502  0.38477934289E+01 -0.39726435705E+02  0.39725762863E+03  0.39927946492E+03  0.41800000000E+01 0.  1.
        -11    1    1    2    0    0 -0.35782916579E+02  0.25789105625E+02  0.10465279296E+03  0.11356805079E+03  0.00000000000E+00 0. -1.
         11    1    1    2    0    0  0.16575701214E+02 -0.18517994380E+02 -0.37109220325E+01  0.25128488393E+02  0.00000000000E+00 0.  1.
</event>
<event>
 7    1  0.3056346E-009  0.1361857E+03  0.7561462E-02  0.1218556E+00
          1   -1    0    0  501    0  0.00000000000E+00  0.00000000000E+00  0.42118785369E+03  0.42118785369E+03  0.00000000000E+00 0. -1.
         -1   -1    0    0    0  501 -0.00000000000E+00 -0.00000000000E+00 -0.54968654934E+02  0.54968654934E+02  0.00000000000E+00 0.  1.
         25    2    1    2    0    0  0.84692201359E+02  0.15347843551E+02  0.10083533215E+03  0.18228175793E+03  0.12510215742E+03 0.  0.
          5    1    3    3  502    0  0.61344609877E+02  0.67419566237E+02  0.80113933767E+02  0.12142600157E+03  0.41800000000E+01 0.  1.
         -5    1    3    3    0  502  0.23347591481E+02 -0.52071722685E+02  0.20721398380E+02  0.60855756361E+02  0.41800000000E+01 0.  1.
        -11    1    1    2    0    0  0.14085684432E+02  0.14993530236E+02  0.68487991093E+02  0.71510959851E+02  0.00000000000E+00 0.  1.
         11    1    1    2    0    0 -0.98777885790E+02 -0.30341373788E+02  0.19689587551E+03  0.22236379085E+03  0.00000000000E+00 0. -1.
</event>
<event>
 7    1  0.3056346E-009  0.1201046E+03  0.7561462E-02  0.1242925E+00
         -2   -1    0    0    0  501 -0.00000000000E+00  0.00000000000E+00  0.35876001619E+02  0.35876001619E+02  0.00000000000E+00 0.  1.
          2   -1    0    0  501    0  0.00000000000E+00 -0.00000000000E+00 -0.55347114077E+03  0.55347114077E+03  0.00000000000E+00 0. -1.
         25    2    1    2    0    0 -0.67479758456E+02 -0.17708869698E+02 -0.39882164814E+03  0.42376184402E+03  0.12509305161E+03 0.  0.
          5    1    3    3  502    0 -0.93131539912E+02  0.66095829987E+01 -0.35607930312E+03  0.36814007229E+03  0.41800000000E+01 0.  1.
         -5    1    3    3    0  502  0.25651781455E+02 -0.24318452697E+02 -0.42742345016E+02  0.55621771735E+02  0.41800000000E+01 0.  1.
        -11    1    1    2    0    0  0.40245306683E+01 -0.30938872624E+02 -0.15103481575E+02  0.34663032788E+02  0.00000000000E+00 0.  1.
         11    1    1    2    0    0  0.63455227788E+02  0.48647742323E+02 -0.10367000943E+03  0.13092226557E+03  0.00000000000E+00 0. -1.
</event>
<event>
 7    1  0.3431872E-009  0.1499993E+03  0.7561462E-02  0.1200474E+00
          2   -1    0    0  501    0  0.00000000000E+00  0.00000000000E+00  0.71702017430E+03  0.71702017430E+03  0.00000000000E+00 0. -1.
         -2   -1    0    0    0  501 -0.00000000000E+00 -0.00000000000E+00 -0.38686326458E+02  0.38686326458E+02  0.00000000000E+00 0.  1.
         25    2    1    2    0    0 -0.60786140064E+02 -0.10661072141E+03  0.42775495546E+03  0.46225850960E+03  0.12509127480E+03 0.  0.
          5    1    3    3  502    0 -0.90443185544E+02 -0.11244379256E+03  0.34126422234E+03  0.37054327432E+03  0.41800000000E+01 0.  1.
         -5    1    3    3    0  502  0.29657045480E+02  0.58330711498E+01  0.86490733120E+02  0.91715235274E+02  0.41800000000E+01 0.  1.
        -11    1    1    2    0    0  0.32658962880E+02  0.33493094821E+02  0.18638301351E+03  0.19216405226E+03  0.00000000000E+00 0. -1.
         11    1    1    2    0    0  0.28127177184E+02  0.73117626590E+02  0.64195878874E+02  0.10128393890E+03  0.00000000000E+00 0.  1.
</event>
<event>
 7    1  0.3056346E-009  0.1086955E+03  0.7561462E-02  0.1263005E+00
          4   -1    0    0  501    0  0.00000000000E+00  0.00000000000E+00  0.58726615920E+02  0.58726615920E+02  0.00000000000E+00 0. -1.
         -4   -1    0    0    0  501 -0.00000000000E+00 -0.00000000000E+00 -0.31060009176E+03  0.31060009176E+03  0.00000000000E+00 0.  1.
         25    2    1    2    0    0  0.48561468246E+02 -0.46043516369E+01 -0.22645385791E+03  0.26327430158E+03  0.12511031874E+03 0.  0.
          5    1    3    3  502    0 -0.28687457893E+02 -0.39797014921E+02 -0.79423182691E+02  0.93446706661E+02  0.41800000000E+01 0.  1.
         -5    1    3    3    0  502  0.77248926139E+02  0.35192663284E+02 -0.14703067522E+03  0.16982759492E+03  0.41800000000E+01 0.  1.
        -11    1    1    2    0    0  0.31139456313E+01  0.26758967870E+02  0.20181190375E+02  0.33660354482E+02  0.00000000000E+00 0. -1.
         11    1    1    2    0    0 -0.51675413878E+02 -0.22154616233E+02 -0.45600808296E+02  0.72392051616E+02  0.00000000000E+00 0.  1.
</event>
<event>
 7    1  0.3056346E-009  0.1185204E+03  0.7561462E-02  0.1245558E+00
          1   -1    0    0  501    0  0.00000000000E+00  0.00000000000E+00  0.67451611132E+02  0.67451611132E+02  0.00000000000E+00 0. -1.
         -1   -1    0    0    0  501 -0.00000000000E+00 -0.00000000000E+00 -0.24746704489E+03  0.24746704489E+03  0.00000000000E+00 0.  1.
         25    2    1    2    0    0  0.66525011173E+02 -0.20334467241E+02 -0.11020386804E+03  0.18064020635E+03  0.12508766506E+03 0.  0.
          5    1    3    3  502    0  0.24434466701E+02 -0.60281384513E+02 -0.10317371063E+03  0.12203759850E+03  0.41800000000E+01 0. -1.
         -5    1    3    3    0  502  0.42090544472E+02  0.39946917272E+02 -0.70301574063E+01  0.58602607848E+02  0.41800000000E+01 0. -1.
        -11    1    1    2    0    0 -0.14168881194E+02  0.51050747193E+02 -0.41500665343E+02  0.67299637496E+02  0.00000000000E+00 0.  1.
         11    1    1    2    0    0 -0.52356129979E+02 -0.30716279952E+02 -0.28310900372E+02  0.66978812175E+02  0.00000000000E+00 0. -1.
</event>
<event>
 7    1  0.3056346E-009  0.1203378E+03  0.7561462E-02  0.1242541E+00
          2   -1    0    0  501    0  0.00000000000E+00  0.00000000000E+00  0.50998206186E+03  0.50998206186E+03  0.00000000000E+00 0. -1.
         -2   -1    0    0    0  501 -0.00000000000E+00 -0.00000000000E+00 -0.46070358877E+02  0.46070358877E+02  0.00000000000E+00 0.  1.
         25    2    1    2    0    0 -0.83487785844E+02 -0.59427274137E+02  0.34783148599E+03  0.38358252060E+03  0.12508795372E+03 0.  0.
          5    1    3    3  502    0 -0.53232264666E+02  0.16168927752E+01  0.28769257319E+03  0.29261028248E+03  0.41800000000E+01 0. -1.
         -5    1    3    3    0  502 -0.30255521178E+02 -0.61044166912E+02  0.60138912807E+02  0.90972238125E+02  0.41800000000E+01 0. -1.
        -11    1    1    2    0    0  0.93173937398E+02  0.56074642456E+02  0.80110537936E+02  0.13506830282E+03  0.00000000000E+00 0.  1.
         11    1    1    2    0    0 -0.96861515540E+01  0.33526316807E+01  0.35969679056E+02  0.37401597325E+02  0.00000000000E+00 0. -1.
</event>
<event>
 7    1  0.3056346E-009  0.1258394E+03  0.7561462E-02  0.1233763E+00
          2   -1    0    0  501    0  0.00000000000E+00  0.00000000000E+00  0.33195803338E+03  0.33195803338E+03  0.00000000000E+00 0. -1.
         -2   -1    0    0    0  501 -0.00000000000E+00 -0.00000000000E+00 -0.54447317580E+02  0.54447317580E+02  0.00000000000E+00 0.  1.
         25    2    1    2    0    0 -0.64047173215E+02  0.44815454915E+02  0.13334927268E+03  0.19885271021E+03  0.12509958608E+03 0.  0.
          5    1    3    3  502    0 -0.46392872257E+02  0.83539835038E+02  0.12120159815E+03  0.15439722287E+03  0.41800000000E+01 0.  1.
         -5    1    3    3    0  502 -0.17654300958E+02 -0.38724380124E+02  0.12147674528E+02  0.44455487341E+02  0.41800000000E+01 0.  1.
        -11    1    1    2    0    0 -0.19574290804E+02 -0.31030290363E+01  0.54724010948E+02  0.58202225249E+02  0.00000000000E+00 0. -1.
         11    1    1    2    0    0  0.83621464018E+02 -0.41712425878E+02  0.89437432171E+02  0.12935041550E+03  0.00000000000E+00 0.  1.
</event>
<event>
 7    1  0.3056346E-009  0.1528129E+03  0.7561462E-02  0.1197059E+00
          1   -1    0    0  501    0  0.00000000000E+00  0.00000000000E+00  0.78085600611E+02  0.78085600611E+02  0.00000000000E+00 0. -1.
         -1   -1    0    0    0  501 -0.00000000000E+00 -0.00000000000E+00 -0.54148162120E+03  0.54148162120E+03  0.00000000000E+00 0.  1.
         25    2    1    2    0    0 -0.12553828357E+03 -0.29272515241E+02 -0.65338551533E+02  0.19113768511E+03  0.12509095715E+03 0.  0.
          5    1    3    3  502    0 -0.10015311334E+03 -0.57310635195E+02  0.68134236610E-01  0.11546701720E+03  0.41800000000E+01 0. -1.
         -5    1    3    3    0  502 -0.25385170234E+02  0.28038119955E+02 -0.65406685770E+02  0.75670667909E+02  0.41800000000E+01 0. -1.
        -11    1    1    2    0    0  0.99442266892E+01  0.34985033112E+02 -0.15519886848E+03  0.15940366672E+03  0.00000000000E+00 0. -1.
         11    1    1    2    0    0  0.11559405689E+03 -0.57125178711E+01 -0.24285860058E+03  0.26902586999E+03  0.00000000000E+00 0.  1.
</event>
<event>
 7    1  0.3056346E-009  0.8515648E+02  0.7561462E-02  0.1315024E+00
         -1   -1    0    0    0  501 -0.00000000000E+00  0.00000000000E+00  0.11626048577E+04  0.11626048577E+04  0.00000000000E+00 0.  1.
          1   -1    0    0  501    0  0.00000000000E+00 -0.00000000000E+00 -0.99699799465E+01  0.99699799465E+01  0.00000000000E+00 0. -1.
         25    2    1    2    0    0  0.11070364717E+02  0.35538219481E+01  0.77856991578E+03  0.78864123978E+03  0.12509479885E+03 0.  0.
          5    1    3    3  502    0  0.38087712790E+02  0.28612902952E+02  0.70134001070E+03  0.70296845952E+03  0.41800000000E+01 0.  1.
         -5    1    3    3    0  502 -0.27017348073E+02 -0.25059081004E+02  0.77229905079E+02  0.85672780252E+02  0.41800000000E+01 0.  1.
        -11    1    1    2    0    0  0.21124813286E+02 -0.34691177833E+02  0.20837626411E+03  0.21229791096E+03  0.00000000000E+00 0. -1.
         11    1    1    2    0    0 -0.32195178003E+02  0.31137355885E+02  0.16568869785E+03  0.17163568689E+03  0.00000000000E+00 0.  1.
</event>
<event>
 7    1  0.3056346E-009  0.1306115E+03  0.7561462E-02  0.1226551E+00
          2   -1    0    0  501    0  0.00000000000E+00  0.00000000000E+00  0.10835531160E+03  0.10835531160E+03  0.00000000000E+00 0. -1.
         -2   -1    0    0    0  501 -0.00000000000E+00 -0.00000000000E+00 -0.22901685335E+03  0.22901685335E+03  0.00000000000E+00 0.  1.
         25    2    1    2    0    0  0.76142753758E+02 -0.69909523540E+02 -0.11481759241E+03  0.19878288186E+03  0.12508594711E+03 0.  0.
          5    1    3    3  502    0  0.10257621908E+03 -0.49464323894E+02 -0.11909739893E+03  0.16483404651E+03  0.41800000000E+01 0. -1.
         -5    1    3    3    0  502 -0.26433465324E+02 -0.20445199646E+02  0.42798065171E+01  0.33948835348E+02  0.41800000000E+01 0. -1.
        -11    1    1    2    0    0  0.44378983606E+01  0.16082139996E+02 -0.33833219548E+02  0.37722896412E+02  0.00000000000E+00 0.  1.
         11    1    1    2    0    0 -0.80580652118E+02  0.53827383544E+02  0.27989270210E+02  0.10086638668E+03  0.00000000000E+00 0. -1.
</event>
<event>
 7    1  0.3056346E-009  0.1174726E+03  0.7561462E-02  0.1247326E+00
         -1   -1    0    0    0  501 -0.00000000000E+00  0.00000000000E+00  0.32898847704E+02  0.32898847704E+02  0.00000000000E+00 0.  1.
          1   -1    0    0  501    0  0.00000000000E+00 -0.00000000000E+00 -0.64634749112E+03  0.64634749112E+03  0.00000000000E+00 0. -1.
         25    2    1    2    0    0 -0.49721983862E+02  0.54013947269E+02 -0.48968450510E+03  0.51070323452E+03  0.12504837878E+03 0.  0.
          5    1    3    3  502    0  0.15773762672E+01  0.83607965851E+02 -0.32613077064E+03  0.33670689335E+03  0.41800000000E+01 0.  1.
         -5    1    3    3    0  502 -0.51299360129E+02 -0.29594018582E+02 -0.16355373446E+03  0.17399634117E+03  0.41800000000E+01 0.  1.
        -11    1    1    2    0    0  0.14292811558E+01 -0.42076443618E+02 -0.84278473809E+01  0.42935982155E+02  0.00000000000E+00 0.  1.
         11    1    1    2    0    0  0.48292702706E+02 -0.11937503651E+02 -0.11533629094E+03  0.12560712215E+03  0.00000000000E+00 0. -1.
</event>
<event>
 7    1  0.3056346E-009  0.8387675E+02  0.7561462E-02  0.1318396E+00
         -2   -1    0    0    0  501 -0.00000000000E+00  0.00000000000E+00  0.46942367067E+03  0.46942367067E+03  0.00000000000E+00 0.  1.
          2   -1    0    0  501    0  0.00000000000E+00 -0.00000000000E+00 -0.40811803859E+02  0.40811803859E+02  0.00000000000E+00 0. -1.
         25    2    1    2    0    0 -0.18830235471E+02  0.38110347266E+02  0.33108932262E+03  0.35647568532E+03  0.12509116009E+03 0.  0.
          5    1    3    3  502    0 -0.44768883926E+02  0.69323676930E+02  0.15421072129E+03  0.17495269106E+03  0.41800000000E+01 0.  1.
         -5    1    3    3    0  502  0.25938648455E+02 -0.31213329664E+02  0.17687860134E+03  0.18152299425E+03  0.41800000000E+01 0.  1.
        -11    1    1    2    0    0  0.41177285530E+01 -0.22504901007E+02  0.12031042015E+03  0.12246641766E+03  0.00000000000E+00 0.  1.
         11    1    1    2    0    0  0.14712506918E+02 -0.15605446258E+02 -0.22787875955E+02  0.31293371555E+02  0.00000000000E+00 0. -1.
</event>
<event>
 7    1  0.3056346E-009  0.1303554E+03  0.7561462E-02  0.1226929E+00
         -4   -1    0    0    0  501 -0.00000000000E+00  0.00000000000E+00  0.37371648864E+02  0.37371648864E+02  0.00000000000E+00 0.  1.
          4   -1    0    0  501    0  0.00000000000E+00 -0.00000000000E+00 -0.54882930549E+03  0.54882930549E+03  0.00000000000E+00 0. -1.
         25    2    1    2    0    0 -0.66464887186E+02  0.23281186478E+02 -0.39659774896E+03  0.42177002140E+03  0.12506231085E+03 0.  0.
          5    1    3    3  502    0 -0.10003142387E+03 -0.32401873063E+01 -0.26316652902E+03  0.28158636148E+03  0.41800000000E+01 0.  1.
         -5    1    3    3    0  502  0.33566536684E+02  0.26521373784E+02 -0.13343121994E+03  0.14018365991E+03  0.41800000000E+01 0.  1.
        -11    1    1    2    0    0  0.13751717061E+02  0.35816247969E+02 -0.34229499730E+02  0.51415678470E+02  0.00000000000E+00 0.  1.
         11    1    1    2    0    0  0.52713170125E+02 -0.59097434447E+02 -0.80630407927E+02  0.11301525448E+03  0.00000000000E+00 0. -1.
</event>
<event>
 7    1  0.3056346E-009  0.1668831E+03  0.7561462E-02  0.1181138E+00
          2   -1    0    0  501    0  0.00000000000E+00  0.00000000000E+00  0.60429377732E+02  0.60429377732E+02  0.00000000000E+00 0. -1.
         -2   -1    0    0    0  501 -0.00000000000E+00 -0.00000000000E+00 -0.60001660902E+03  0.60001660902E+03  0.00000000000E+00 0.  1.
         25    2    1    2    0    0 -0.14642261181E+03  0.13508488444E+02 -0.37175142783E+03  0.41888950399E+03  0.12508889617E+03 0.  0.
          5    1    3    3  502    0 -0.79331487329E+01  0.39817052599E+02 -0.34876421413E+02  0.53685842613E+02  0.41800000000E+01 0. -1.
         -5    1    3    3    0  502 -0.13848946308E+03 -0.26308564155E+02 -0.33687500642E+03  0.36520366137E+03  0.41800000000E+01 0. -1.
        -11    1    1    2    0    0  0.68743434688E+02  0.12770994679E+02 -0.13725120776E+03  0.15403458101E+03  0.00000000000E+00 0. -1.
         11    1    1    2    0    0  0.77679177125E+02 -0.26279483123E+02 -0.30584595704E+02  0.87521901752E+02  0.00000000000E+00 0.  1.
</event>
<event>
 7    1  0.3056346E-009  0.9667196E+02  0.7561462E-02  0.1287454E+00
          2   -1    0    0  501    0  0.00000000000E+00  0.00000000000E+00  0.27643216193E+03  0.27643216193E+03  0.00000000000E+00 0. -1.
         -2   -1    0    0    0  501 -0.00000000000E+00 -0.00000000000E+00 -0.47926130868E+02  0.47926130868E+02  0.00000000000E+00 0.  1.
         25    2    1    2    0    0 -0.40573278438E+02 -0.11034656686E+02  0.15649626852E+03  0.20471555098E+03  0.12509764258E+03 0.  0.
          5    1    3    3  502    0 -0.49799763761E+01 -0.60056764624E+02  0.11870486971E+03  0.13319134219E+03  0.41800000000E+01 0.  1.
         -5    1    3    3    0  502 -0.35593302062E+02  0.49022107938E+02  0.37791398809E+02  0.71524208785E+02  0.41800000000E+01 0.  1.
        -11    1    1    2    0    0  0.51360699091E+02  0.22848173024E+02  0.11924677951E+02  0.57464409558E+02  0.00000000000E+00 0.  1.
         11    1    1    2    0    0 -0.10787420653E+02 -0.11813516338E+02  0.60085084593E+02  0.62178332265E+02  0.00000000000E+00 0. -1.
</event>
<event>
 7    1  0.3056346E-009  0.8712857E+02  0.7561462E-02  0.1309958E+00
          4   -1    0    0  501    0  0.00000000000E+00  0.00000000000E+00  0.60810148241E+02  0.60810148241E+02  0.00000000000E+00 0. -1.
         -4   -1    0    0    0  501 -0.00000000000E+00 -0.00000000000E+00 -0.24926110405E+03  0.24926110405E+03  0.00000000000E+00 0.  1.
         25    2    1    2    0    0 -0.56134450245E+02  0.23866888982E+02 -0.80774668193E+02  0.16090944392E+03  0.12508635907E+03 0.  0.
          5    1    3    3  502    0 -0.21043720684E+02  0.49876363255E+02 -0.99383735461E+02  0.11324790976E+03  0.41800000000E+01 0. -1.
         -5    1    3    3    0  502 -0.35090729561E+02 -0.26009474273E+02  0.18609067268E+02  0.47661534151E+02  0.41800000000E+01 0. -1.
        -11    1    1    2    0    0  0.40130264377E+01 -0.23623049312E+02 -0.91502825487E+02  0.94588159471E+02  0.00000000000E+00 0.  1.
         11    1    1    2    0    0  0.52121423807E+02 -0.24383967008E+00 -0.16173462127E+02  0.54573648904E+02  0.00000000000E+00 0. -1.
</event>
<event>
 7    1  0.3056346E-009  0.1261363E+03  0.7561462E-02  0.1233304E+00
          2   -1    0    0  501    0  0.00000000000E+00  0.00000000000E+00  0.17638205919E+03  0.17638205919E+03  0.00000000000E+00 0. -1.
         -2   -1    0    0    0  501 -0.00000000000E+00 -0.00000000000E+00 -0.18459407978E+03  0.18459407978E+03  0.00000000000E+00 0.  1.
         25    2    1    2    0    0  0.45788321938E+02  0.10795645573E+03  0.88629552507E+02  0.19301102784E+03  0.12508753948E+03 0.  0.
          5    1    3    3  502    0  0.41724997018E+02  0.10670650884E+03  0.11712454038E+03  0.16389900781E+03  0.41800000000E+01 0. -1.
         -5    1    3    3    0  502  0.40633249201E+01  0.12499468925E+01 -0.28494987868E+02  0.29112020031E+02  0.41800000000E+01 0. -1.
        -11    1    1    2    0    0  0.14307308503E+02 -0.29926734451E+02 -0.47152765199E+02  0.57651468129E+02  0.00000000000E+00 0.  1.
         11    1    1    2    0    0 -0.60095630441E+02 -0.78029721278E+02 -0.49688807899E+02  0.11031364300E+03  0.00000000000E+00 0. -1.
</event>
<event>
 7    1  0.3265097E-009  0.1177937E+03  0.7561462E-02  0.1246782E+00
         -1   -1    0    0    0  501 -0.00000000000E+00  0.00000000000E+00  0.62311759142E+02  0.62311759142E+02  0.00000000000E+00 0.  1.
          1   -1    0    0  501    0  0.00000000000E+00 -0.00000000000E+00 -0.30209574125E+03  0.30209574125E+03  0.00000000000E+00 0. -1.
         25    2    1    2    0    0 -0.70236373596E+02  0.31185603677E+02 -0.87755874506E+02  0.17103971630E+03  0.12509117071E+03 0.  0.
          5    1    3    3  502    0 -0.15299607390E+02  0.54185901495E+02  0.91721626898E+01  0.57199570589E+02  0.41800000000E+01 0.  1.
         -5    1    3    3    0  502 -0.54936766206E+02 -0.23000297818E+02 -0.96928037196E+02  0.11384014571E+03  0.41800000000E+01 0.  1.
        -11    1    1    2    0    0  0.56211657274E+01 -0.51411240027E+02 -0.69093508804E+02  0.86305423144E+02  0.00000000000E+00 0. -1.
         11    1    1    2    0    0  0.64615207869E+02  0.20225636350E+02 -0.82934598794E+02  0.10706236094E+03  0.00000000000E+00 0.  1.
</event>
<event>
 7    1  0.3056346E-009  0.2642137E+03  0.7561462E-02  0.1104638E+00
          2   -1    0    0  501    0  0.00000000000E+00  0.00000000000E+00  0.54702235829E+02  0.54702235829E+02  0.00000000000E+00 0. -1.
         -2   -1    0    0    0  501 -0.00000000000E+00 -0.00000000000E+00 -0.14374867685E+04  0.14374867685E+04  0.00000000000E+00 0.  1.
         25    2    1    2    0    0 -0.13556215334E+03 -0.21138689454E+03 -0.87383088839E+03  0.91776340164E+03  0.12509086008E+03 0.  0.
          5    1    3    3  502    0 -0.12901790957E+03 -0.22288010009E+03 -0.86158915297E+03  0.89926331012E+03  0.41800000000E+01 0. -1.
         -5    1    3    3    0  502 -0.65442437678E+01  0.11493205544E+02 -0.12241735419E+02  0.18500091520E+02  0.41800000000E+01 0. -1.
        -11    1    1    2    0    0  0.59780931348E+02  0.14270168303E+03 -0.22892971349E+03  0.27630842153E+03  0.00000000000E+00 0. -1.
         11    1    1    2    0    0  0.75781221990E+02  0.68685211514E+02 -0.28002393081E+03  0.29811718117E+03  0.00000000000E+00 0.  1.
</event>
<event>
 7    1  0.3056346E-009  0.1091631E+03  0.7561462E-02  0.1262128E+00
          2   -1    0    0  501    0  0.00000000000E+00  0.00000000000E+00  0.25756291667E+03  0.25756291667E+03  0.00000000000E+00 0.  1.
         -2   -1    0    0    0  501 -0.00000000000E+00 -0.00000000000E+00 -0.72363223108E+02  0.72363223108E+02  0.00000000000E+00 0. -1.
         25    2    1    2    0    0 -0.79412605081E+02  0.89491237367E+01  0.62619532219E+02  0.16110487259E+03  0.12508847068E+03 0.  0.
          5    1    3    3  502    0  0.14358479898E+02 -0.93765431627E+01  0.63043172657E+02  0.65467545588E+02  0.41800000000E+01 0.  1.
         -5    1    3    3    0  502 -0.93771084979E+02  0.18325666899E+02 -0.42364043813E+00  0.95637327005E+02  0.41800000000E+01 0.  1.
        -11    1    1    2    0    0  0.91786868941E+02 -0.45284421163E+01  0.12531441182E+03  0.15539960717E+03  0.00000000000E+00 0.  1.
         11    1    1    2    0    0 -0.12374263860E+02 -0.44206816203E+01 -0.27342504740E+01  0.13421660021E+02  0.00000000000E+00 0. -1.
</event>
<event>
 7    1  0.3056346E-009  0.1169924E+03  0.7561462E-02  0.1248143E+00
         -2   -1    0    0    0  501 -0.00000000000E+00  0.00000000000E+00  0.21260234197E+02  0.21260234197E+02  0.00000000000E+00 0.  1.
          2   -1    0    0  501    0  0.00000000000E+00 -0.00000000000E+00 -0.71048854991E+03  0.71048854991E+03  0.00000000000E+00 0. -1.
         25    2    1    2    0    0  0.77095462838E+01 -0.55239321487E+02 -0.33771565370E+03  0.36443170054E+03  0.12509109426E+03 0.  0.
          5    1    3    3  502    0 -0.12084395476E+02 -0.88315127471E+02 -0.16676323401E+03  0.18913762971E+03  0.41800000000E+01 0.  1.
         -5    1    3    3    0  502  0.19793941760E+02  0.33075805984E+02 -0.17095241969E+03  0.17529407084E+03  0.41800000000E+01 0.  1.
        -11    1    1    2    0    0 -0.71254420408E+01 -0.24867208181E+02 -0.10371705027E+03  0.10689423035E+03  0.00000000000E+00 0. -1.
         11    1    1    2    0    0 -0.58410424305E+00  0.80106529667E+02 -0.24779561174E+03  0.26042285321E+03  0.00000000000E+00 0.  1.
</event>
<event>
 7    1  0.3056346E-009  0.1406373E+03  0.7561462E-02  0.1212474E+00
          2   -1    0    0  501    0  0.00000000000E+00  0.00000000000E+00  0.63091719934E+02  0.63091719934E+02  0.00000000000E+00 0. -1.
         -2   -1    0    0    0  501 -0.00000000000E+00 -0.00000000000E+00 -0.33966065993E+03  0.33966065993E+03  0.00000000000E+00 0.  1.
         25    2    1    2    0    0 -0.71471624055E+02  0.46789543091E+02 -0.93915441174E+02  0.17822588712E+03  0.12508757876E+03 0.  0.
          5    1    3    3  502    0 -0.87165631961E+02  0.77501349175E+02 -0.73577901745E+02  0.13796915070E+03  0.41800000000E+01 0.  1.
         -5    1    3    3    0  502  0.15694007905E+02 -0.30711806083E+02 -0.20337539429E+02  0.40256736418E+02  0.41800000000E+01 0.  1.
        -11    1    1    2    0    0 -0.22720332190E+01  0.26061553063E+02 -0.27735812162E+02  0.38126656807E+02  0.00000000000E+00 0. -1.
         11    1    1    2    0    0  0.73743657274E+02 -0.72851096154E+02 -0.15491768666E+03  0.18639983594E+03  0.00000000000E+00 0.  1.
</event>
<event>
 7    1  0.3056346E-009  0.1362352E+03  0.7561462E-02  0.1218487E+00
          2   -1    0    0  501    0  0.00000000000E+00  0.00000000000E+00  0.21357264150E+03  0.21357264150E+03  0.00000000000E+00 0. -1.
         -2   -1    0    0    0  501 -0.00000000000E+00 -0.00000000000E+00 -0.94625548248E+02  0.94625548248E+02  0.00000000000E+00 0.  1.
         25    2    1    2    0    0 -0.70302500926E+02 -0.50339366912E+02  0.10188326850E+03  0.18304276852E+03  0.12509181111E+03 0.  0.
          5    1    3    3  502    0 -0.10537512880E+03 -0.45625892437E+02  0.66183988874E+02  0.13260253622E+03  0.41800000000E+01 0.  1.
         -5    1    3    3    0  502  0.35072627872E+02 -0.47134744755E+01  0.35699279630E+02  0.50440232291E+02  0.41800000000E+01 0.  1.
        -11    1    1    2    0    0  0.24696916001E+02  0.68520583294E+02 -0.99812629777E+00  0.72842324586E+02  0.00000000000E+00 0.  1.
         11    1    1    2    0    0  0.45605584925E+02 -0.18181216382E+02  0.18061951049E+02  0.52313096650E+02  0.00000000000E+00 0. -1.
</event>
<event>
 7    1  0.3056346E-009  0.8689184E+02  0.7561462E-02  0.1310558E+00
         -2   -1    0    0    0  501 -0.00000000000E+00  0.00000000000E+00  0.17592638496E+03  0.17592638496E+03  0.00000000000E+00 0.  1.
          2   -1    0    0  501    0  0.00000000000E+00 -0.00000000000E+00 -0.11576864209E+03  0.11576864209E+03  0.00000000000E+00 0. -1.
         25    2    1    2    0    0 -0.58783086116E+02 -0.43263436106E+02  0.93391604621E+02  0.17232583811E+03  0.12508807517E+03 0.  0.
          5    1    3    3  502    0 -0.67222364281E+02 -0.19460458847E+02  0.11771753503E+03  0.13701257669E+03  0.41800000000E+01 0. -1.
         -5    1    3    3    0  502  0.84392781650E+01 -0.23802977258E+02 -0.24325930405E+02  0.35313261423E+02  0.41800000000E+01 0. -1.
        -11    1    1    2    0    0  0.28965074408E+02  0.38029875460E+02 -0.61538519615E+02  0.77924555561E+02  0.00000000000E+00 0. -1.
         11    1    1    2    0    0  0.29818011708E+02  0.52335606456E+01  0.28304657860E+02  0.41444633377E+02  0.00000000000E+00 0.  1.
</event>
<event>
 7    1  0.3056346E-009  0.8186667E+02  0.7561462E-02  0.1323836E+00
          2   -1    0    0  501    0  0.00000000000E+00  0.00000000000E+00  0.58490850317E+03  0.58490850317E+03  0.00000000000E+00 0. -1.
         -2   -1    0    0    0  501 -0.00000000000E+00 -0.00000000000E+00 -0.26408289566E+02  0.26408289566E+02  0.00000000000E+00 0.  1.
         25    2    1    2    0    0 -0.58673337541E+02 -0.49496001937E+01  0.27742355326E+03  0.30996517705E+03  0.12509006355E+03 0.  0.
          5    1    3    3  502    0 -0.44050947609E+02 -0.15637330277E+02  0.28576378030E+03  0.28959182070E+03  0.41800000000E+01 0.  1.
         -5    1    3    3    0  502 -0.14622389933E+02  0.10687730084E+02 -0.83402270452E+01  0.20373356347E+02  0.41800000000E+01 0.  1.
        -11    1    1    2    0    0  0.77701791300E+02 -0.25950161138E+01  0.26228340187E+03  0.27356331146E+03  0.00000000000E+00 0. -1.
         11    1    1    2    0    0 -0.19028453759E+02  0.75446163075E+01  0.18793258470E+02  0.27788304223E+02  0.00000000000E+00 0.  1.
</event>
<event>
 7    1  0.3056346E-009  0.1615195E+03  0.7561462E-02  0.1186992E+00
          2   -1    0    0  501    0  0.00000000000E+00  0.00000000000E+00  0.13319243008E+04  0.13319243008E+04  0.00000000000E+00 0. -1.
         -2   -1    0    0    0  501 -0.00000000000E+00 -0.00000000000E+00 -0.22081346353E+02  0.22081346353E+02  0.00000000000E+00 0.  1.
         25    2    1    2    0    0 -0.10816890872E+03  0.67254989307E+02  0.51281290745E+03  0.54300088298E+03  0.12509650062E+03 0.  0.
          5    1    3    3  502    0 -0.11329063468E+03  0.92952475560E+02  0.47265262484E+03  0.49486655453E+03  0.41800000000E+01 0.  1.
         -5    1    3    3    0  502  0.51217259547E+01 -0.25697486253E+02  0.40160282610E+02  0.48134328455E+02  0.41800000000E+01 0.  1.
        -11    1    1    2    0    0  0.19605598973E+02 -0.57562668914E+02  0.32038072975E+03  0.32610067826E+03  0.00000000000E+00 0.  1.
         11    1    1    2    0    0  0.88563309751E+02 -0.96923203931E+01  0.47664931724E+03  0.48490408591E+03  0.00000000000E+00 0. -1.
</event>
<event>
 7    1  0.3056346E-009  0.1647650E+03  0.7561462E-02  0.1183420E+00
          2   -1    0    0  501    0  0.00000000000E+00  0.00000000000E+00  0.37302612586E+03  0.37302612586E+03  0.00000000000E+00 0. -1.
         -2   -1    0    0    0  501 -0.00000000000E+00 -0.00000000000E+00 -0.78482513401E+02  0.78482513401E+02  0.00000000000E+00 0.  1.
         25    2    1    2    0    0  0.17739747092E+02 -0.11993308855E+03  0.16134757439E+03  0.23744284958E+03  0.12508965864E+03 0.  0.
          5    1    3    3  502    0  0.70316178854E+02 -0.71094280417E+02  0.74844810630E+02  0.12497191602E+03  0.41800000000E+01 0. -1.
         -5    1    3    3    0  502 -0.52576431762E+02 -0.48838808133E+02  0.86502763765E+02  0.11247093356E+03  0.41800000000E+01 0. -1.
        -11    1    1    2    0    0  0.27780442079E+02 -0.15621297273E+01  0.57442852348E+02  0.63826910447E+02  0.00000000000E+00 0. -1.
         11    1    1    2    0    0 -0.45520189172E+02  0.12149521828E+03  0.75753185716E+02  0.15023887923E+03  0.00000000000E+00 0.  1.
</event>
<event>
 7    1  0.3056346E-009  0.1292713E+03  0.7561462E-02  0.1228541E+00
         -2   -1    0    0    0  501 -0.00000000000E+00  0.00000000000E+00  0.18104465662E+03  0.18104465662E+03  0.00000000000E+00 0.  1.
          2   -1    0    0  501    0  0.00000000000E+00 -0.00000000000E+00 -0.13656566525E+03  0.13656566525E+03  0.00000000000E+00 0. -1.
         25    2    1    2    0    0  0.28564472410E+02  0.10232944819E+03 -0.16912963207E+02  0.16498735687E+03  0.12509010573E+03 0.  0.
          5    1    3    3  502    0 -0.17049743083E+02  0.34781794286E+02  0.47199838065E+02  0.61202647543E+02  0.41800000000E+01 0.  1.
         -5    1    3    3    0  502  0.45614215492E+02  0.67547653907E+02 -0.64112801272E+02  0.10378470933E+03  0.41800000000E+01 0.  1.
        -11    1    1    2    0    0 -0.49749068089E+02 -0.21129545438E+02  0.12412617693E+02  0.55457195603E+02  0.00000000000E+00 0. -1.
         11    1    1    2    0    0  0.21184595679E+02 -0.81199902755E+02  0.48979336886E+02  0.97165769401E+02  0.00000000000E+00 0.  1.
</event>
<event>
 7    1  0.3056346E-009  0.1350946E+03  0.7561462E-02  0.1220086E+00
         -1   -1    0    0    0  501 -0.00000000000E+00  0.00000000000E+00  0.51924721729E+03  0.51924721729E+03  0.00000000000E+00 0.  1.
          1   -1    0    0  501    0  0.00000000000E+00 -0.00000000000E+00 -0.48774336245E+02  0.48774336245E+02  0.00000000000E+00 0. -1.
         25    2    1    2    0    0 -0.37209072422E+02 -0.96674472646E+02  0.38559099717E+03  0.41840132930E+03  0.12509510994E+03 0.  0.
          5    1    3    3  502    0 -0.68379348065E+02 -0.22427184629E+02  0.25436596961E+03  0.26438273913E+03  0.41800000000E+01 0.  1.
         -5    1    3    3    0  502  0.31170275643E+02 -0.74247288016E+02  0.13122502756E+03  0.15401859017E+03  0.41800000000E+01 0.  1.
        -11    1    1    2    0    0 -0.14266458894E+02  0.30166849363E+02  0.52129478916E+01  0.33774923769E+02  0.00000000000E+00 0. -1.
         11    1    1    2    0    0  0.51475531317E+02  0.66507623282E+02  0.79668935986E+02  0.11584530047E+03  0.00000000000E+00 0.  1.
</event>
<event>
 7    1  0.3056346E-009  0.9786440E+02  0.7561462E-02  0.1284852E+00
         -1   -1    0    0    0  501 -0.00000000000E+00  0.00000000000E+00  0.16799367560E+02  0.16799367560E+02  0.00000000000E+00 0.  1.
          1   -1    0    0  501    0  0.00000000000E+00 -0.00000000000E+00 -0.81936796960E+03  0.81936796960E+03  0.00000000000E+00 0. -1.
         25    2    1    2    0    0 -0.20862501896E+02 -0.38941505902E+02 -0.50511956724E+03  0.52224997161E+03  0.12509025051E+03 0.  0.
          5    1    3    3  502    0 -0.11786341510E+02 -0.68736805087E+02 -0.14704030415E+03  0.16279431705E+03  0.41800000000E+01 0. -1.
         -5    1    3    3    0  502 -0.90761603865E+01  0.29795299186E+02 -0.35807926309E+03  0.35945565456E+03  0.41800000000E+01 0. -1.
        -11    1    1    2    0    0 -0.26295414630E+02  0.39290958650E+02 -0.95849358001E+02  0.10687529037E+03  0.00000000000E+00 0.  1.
         11    1    1    2    0    0  0.47157916527E+02 -0.34945274817E+00 -0.20159967680E+03  0.20704207518E+03  0.00000000000E+00 0. -1.
</event>
<event>
 7    1  0.3056346E-009  0.9104245E+02  0.7561462E-02  0.1300347E+00
         -2   -1    0    0    0  501 -0.00000000000E+00  0.00000000000E+00  0.64013813794E+02  0.64013813794E+02  0.00000000000E+00 0.  1.
          2   -1    0    0  501    0  0.00000000000E+00 -0.00000000000E+00 -0.22029109823E+03  0.22029109823E+03  0.00000000000E+00 0. -1.
         25    2    1    2    0    0  0.30087354533E+02 -0.37193067325E+02 -0.10437944831E+03  0.16979895139E+03  0.12509213206E+03 0.  0.
          5    1    3    3  502    0  0.14658007240E+02 -0.83408411131E+02 -0.71004295678E+02  0.11059341132E+03  0.41800000000E+01 0. -1.
         -5    1    3    3    0  502  0.15429347293E+02  0.46215343807E+02 -0.33375152637E+02  0.59205540067E+02  0.41800000000E+01 0. -1.
        -11    1    1    2    0    0 -0.18096766692E+02  0.27756275178E+02  0.21526289391E+02  0.39513097973E+02  0.00000000000E+00 0.  1.
         11    1    1    2    0    0 -0.11990587841E+02  0.94367921467E+01 -0.73424125514E+02  0.74992862662E+02  0.00000000000E+00 0. -1.
</event>
<event>
 7    1  0.3056346E-009  0.1448666E+03  0.7561462E-02  0.1206927E+00
         -1   -1    0    0    0  501 -0.00000000000E+00  0.00000000000E+00  0.11413965532E+03  0.11413965532E+03  0.00000000000E+00 0.  1.
          1   -1    0    0  501    0  0.00000000000E+00 -0.00000000000E+00 -0.25894461778E+03  0.25894461778E+03  0.00000000000E+00 0. -1.
         25    2    1    2    0    0 -0.11776864270E+03  0.59292094362E+02 -0.62074487078E+02  0.19205592923E+03  0.12508889777E+03 0.  0.
          5    1    3    3  502    0 -0.10517814783E+03  0.40358953539E+02 -0.97973400891E+02  0.14935711430E+03  0.41800000000E+01 0.  1.
         -5    1    3    3    0  502 -0.12590494877E+02  0.18933140823E+02  0.35898913814E+02  0.42698814921E+02  0.41800000000E+01 0.  1.
        -11    1    1    2    0    0  0.12329991239E+03 -0.33873298360E+02 -0.45732208283E+02  0.13580023421E+03  0.00000000000E+00 0.  1.
         11    1    1    2    0    0 -0.55312696891E+01 -0.25418796002E+02 -0.36998267105E+02  0.45228109659E+02  0.00000000000E+00 0. -1.
</event>
<event>
 7    1  0.3056346E-009  0.9818825E+02  0.7561462E-02  0.1284153E+00
         -1   -1    0    0    0  501 -0.00000000000E+00  0.00000000000E+00  0.55248622893E+02  0.55248622893E+02  0.00000000000E+00 0.  1.
          1   -1    0    0  501    0  0.00000000000E+00 -0.00000000000E+00 -0.30682862372E+03  0.30682862372E+03  0.00000000000E+00 0. -1.
         25    2    1    2    0    0  0.25446041218E+02  0.82810593855E+01 -0.48324005004E+02  0.13674484904E+03  0.12509143584E+03 0.  0.
          5    1    3    3  502    0 -0.84127449535E+00 -0.46574189255E+02 -0.58534118315E+02  0.74923816337E+02  0.41800000000E+01 0. -1.
         -5    1    3    3    0  502  0.26287315714E+02  0.54855248641E+02  0.10210113311E+02  0.61821032705E+02  0.41800000000E+01 0. -1.
        -11    1    1    2    0    0  0.53178178474E+01  0.35073869255E+02 -0.39154378909E+02  0.52834845310E+02  0.00000000000E+00 0.  1.
         11    1    1    2    0    0 -0.30763859066E+02 -0.43354928641E+02 -0.16410161691E+03  0.17249755226E+03  0.00000000000E+00 0. -1.
</event>
<event>
 7    1  0.3056346E-009  0.1348469E+03  0.7561462E-02  0.1220436E+00
          4   -1    0    0  501    0  0.00000000000E+00  0.00000000000E+00  0.55820403030E+02  0.55820403030E+02  0.00000000000E+00 0.  1.
         -4   -1    0    0    0  501 -0.00000000000E+00 -0.00000000000E+00 -0.51217790286E+03  0.51217790286E+03  0.00000000000E+00 0. -1.
         25    2    1    2    0    0  0.12132221171E+03  0.27163223204E+02 -0.29953772017E+03  0.34760873982E+03  0.12510823493E+03 0.  0.
          5    1    3    3  502    0  0.80039663497E+02  0.31679700175E+02 -0.29293683911E+03  0.30535129808E+03  0.41800000000E+01 0.  1.
         -5    1    3    3    0  502  0.41282548217E+02 -0.45164769707E+01 -0.66008810602E+01  0.42257441739E+02  0.41800000000E+01 0.  1.
        -11    1    1    2    0    0 -0.12017138053E+03 -0.41692147671E+02 -0.10020025991E+03  0.16192432789E+03  0.00000000000E+00 0.  1.
         11    1    1    2    0    0 -0.11508311863E+01  0.14528924467E+02 -0.56619519752E+02  0.58465238181E+02  0.00000000000E+00 0. -1.
</event>
<event>
 7    1  0.3056346E-009  0.1085468E+03  0.7561462E-02  0.1263285E+00
         -3   -1    0    0    0  501 -0.00000000000E+00  0.00000000000E+00  0.47821529395E+02  0.47821529395E+02  0.00000000000E+00 0.  1.
          3   -1    0    0  501    0  0.00000000000E+00 -0.00000000000E+00 -0.32192553426E+03  0.32192553426E+03  0.00000000000E+00 0. -1.
         25    2    1    2    0    0 -0.94139219142E+01  0.52188517622E+02 -0.11836659167E+03  0.18019613266E+03  0.12509089857E+03 0.  0.
          5    1    3    3  502    0 -0.42615928619E+02  0.66354072286E+02 -0.29699130941E+02  0.84371150636E+02  0.41800000000E+01 0.  1.
         -5    1    3    3    0  502  0.33202006705E+02 -0.14165554664E+02 -0.88667460724E+02  0.95824982022E+02  0.41800000000E+01 0.  1.
        -11    1    1    2    0    0 -0.18773510271E+02 -0.67252268130E+02 -0.73775690238E+02  0.10157836741E+03  0.00000000000E+00 0.  1.
         11    1    1    2    0    0  0.28187432185E+02  0.15063750508E+02 -0.81961722965E+02  0.87972563587E+02  0.00000000000E+00 0. -1.
</event>
<event>
 7    1  0.3056346E-009  0.1021991E+03  0.7561462E-02  0.1275738E+00
         -2   -1    0    0    0  501 -0.00000000000E+00  0.00000000000E+00  0.35867569562E+02  0.35867569562E+02  0.00000000000E+00 0.  1.
          2   -1    0    0  501    0  0.00000000000E+00 -0.00000000000E+00 -0.39910135628E+03  0.39910135628E+03  0.00000000000E+00 0. -1.
         25    2    1    2    0    0 -0.39849649094E+02 -0.43701389454E+02 -0.22986726602E+03  0.26829884555E+03  0.12508998586E+03 0.  0.
          5    1    3    3  502    0 -0.55928054508E+02 -0.72277544578E+02 -0.10563012380E+03  0.13973970869E+03  0.41800000000E+01 0.  1.
         -5    1    3    3    0  502  0.16078405415E+02  0.28576155125E+02 -0.12423714222E+03  0.12855913685E+03  0.41800000000E+01 0.  1.
        -11    1    1    2    0    0  0.11051668245E+02  0.49298701415E+02 -0.28989358269E+02  0.58248469723E+02  0.00000000000E+00 0.  1.
         11    1    1    2    0    0  0.28797980849E+02 -0.55973119618E+01 -0.10437716243E+03  0.10842161057E+03  0.00000000000E+00 0. -1.
</event>
<event>
 7    1  0.3056346E-009  0.8585154E+02  0.7561462E-02  0.1313221E+00
         -3   -1    0    0    0  501 -0.00000000000E+00  0.00000000000E+00  0.62536594732E+03  0.62536594732E+03  0.00000000000E+00 0.  1.
          3   -1    0    0  501    0  0.00000000000E+00 -0.00000000000E+00 -0.23429967693E+02  0.23429967693E+02  0.00000000000E+00 0. -1.
         25    2    1    2    0    0  0.21474580761E+02  0.33662553202E+02  0.42808277863E+03  0.44777015532E+03  0.12509564953E+03 0.  0.
          5    1    3    3  502    0 -0.22648490029E+02 -0.24427540616E+02  0.28635428636E+03  0.28831564050E+03  0.41800000000E+01 0. -1.
         -5    1    3    3    0  502  0.44123070790E+02  0.58090093818E+02  0.14172849227E+03  0.15945451482E+03  0.41800000000E+01 0. -1.
        -11    1    1    2    0    0 -0.26956549053E+02 -0.45007913935E+02  0.17965165440E+03  0.18715524247E+03  0.00000000000E+00 0.  1.
         11    1    1    2    0    0  0.54819682917E+01  0.11345360733E+02 -0.57984533957E+01  0.13870517232E+02  0.00000000000E+00 0. -1.
</event>
<event>
 7    1  0.3056346E-009  0.3314466E+03  0.7561462E-02  0.1070499E+00
         -2   -1    0    0    0  501 -0.00000000000E+00  0.00000000000E+00  0.31298538053E+03  0.31298538053E+03  0.00000000000E+00 0.  1.
          2   -1    0    0  501    0  0.00000000000E+00 -0.00000000000E+00 -0.36255853041E+03  0.36255853041E+03  0.00000000000E+00 0. -1.
         25    2    1    2    0    0  0.27566231887E+03 -0.15235129663E+03 -0.79555704137E+02  0.34810504102E+03  0.12508947955E+03 0.  0.
          5    1    3    3  502    0  0.12542328214E+03 -0.13706394713E+03 -0.62540022557E+02  0.19607715861E+03  0.41800000000E+01 0. -1.
         -5    1    3    3    0  502  0.15023903672E+03 -0.15287349500E+02 -0.17015681580E+02  0.15202788241E+03  0.41800000000E+01 0. -1.
        -11    1    1    2    0    0 -0.87528188617E+02  0.95287857628E+02  0.15420093218E+02  0.13030248996E+03  0.00000000000E+00 0.  1.
         11    1    1    2    0    0 -0.18813413025E+03  0.57063439005E+02  0.14562461042E+02  0.19713637997E+03  0.00000000000E+00 0. -1.
</event>
<event>
 7    1  0.3056346E-009  0.8568399E+02  0.7561462E-02  0.1313653E+00
         -2   -1    0    0    0  501 -0.00000000000E+00  0.00000000000E+00  0.19526879840E+03  0.19526879840E+03  0.00000000000E+00 0.  1.
          2   -1    0    0  501    0  0.00000000000E+00 -0.00000000000E+00 -0.72390801129E+02  0.72390801129E+02  0.00000000000E+00 0. -1.
         25    2    1    2    0    0 -0.24384292689E+01 -0.44050963108E+02  0.70085247156E+02  0.15002075126E+03  0.12509136921E+03 0.  0.
          5    1    3    3  502    0 -0.31778536093E+02 -0.16908220521E+01  0.89280008753E+02  0.94874267314E+02  0.41800000000E+01 0.  1.
         -5    1    3    3    0  502  0.29340106824E+02 -0.42360141056E+02 -0.19194761598E+02  0.55146483945E+02  0.41800000000E+01 0.  1.
        -11    1    1    2    0    0 -0.15249058716E+02 -0.17686026431E+02 -0.12133848573E+02  0.26316527200E+02  0.00000000000E+00 0. -1.
         11    1    1    2    0    0  0.17687487985E+02  0.61736989539E+02  0.64926598693E+02  0.91322321075E+02  0.00000000000E+00 0.  1.
</event>
<event>
 7    1  0.3056346E-009  0.1006437E+03  0.7561462E-02  0.1278948E+00
          2   -1    0    0  501    0  0.00000000000E+00  0.00000000000E+00  0.18082357429E+03  0.18082357429E+03  0.00000000000E+00 0. -1.
         -2   -1    0    0    0  501 -0.00000000000E+00 -0.00000000000E+00 -0.10336700960E+03  0.10336700960E+03  0.00000000000E+00 0.  1.
         25    2    1    2    0    0 -0.72966506025E+02 -0.14605160546E+02  0.77590560076E+02  0.16493717774E+03  0.12508619377E+03 0.  0.
          5    1    3    3  502    0 -0.69746869683E+02 -0.27992519928E+02 -0.10214699690E+02  0.75960644364E+02  0.41800000000E+01 0. -1.
         -5    1    3    3    0  502 -0.32196363415E+01  0.13387359381E+02  0.87805259766E+02  0.88976533378E+02  0.41800000000E+01 0. -1.
        -11    1    1    2    0    0  0.82288716720E+02 -0.12254020158E+02  0.18541665029E+02  0.85237240990E+02  0.00000000000E+00 0. -1.
         11    1    1    2    0    0 -0.93222106956E+01  0.26859180705E+02 -0.18675660407E+02  0.34016165157E+02  0.00000000000E+00 0.  1.
</event>
<event>
 7    1  0.3056346E-009  0.9212905E+02  0.7561462E-02  0.1297776E+00
         -3   -1    0    0    0  501 -0.00000000000E+00  0.00000000000E+00  0.14715503492E+02  0.14715503492E+02  0.00000000000E+00 0.  1.
          3   -1    0    0  501    0  0.00000000000E+00 -0.00000000000E+00 -0.98344334154E+03  0.98344334154E+03  0.00000000000E+00 0. -1.
         25    2    1    2    0    0  0.26752928247E+02  0.36909181177E+02 -0.65361535903E+03  0.66703670243E+03  0.12508764132E+03 0.  0.
          5    1    3    3  502    0  0.41950063692E+02 -0.24430638201E+02 -0.47563053848E+03  0.47811980241E+03  0.41800000000E+01 0.  1.
         -5    1    3    3    0  502 -0.15197135445E+02  0.61339819378E+02 -0.17798482055E+03  0.18891690002E+03  0.41800000000E+01 0.  1.
        -11    1    1    2    0    0 -0.13282992266E+02 -0.51003434472E+02 -0.30429643301E+03  0.30882698611E+03  0.00000000000E+00 0. -1.
         11    1    1    2    0    0 -0.13469935981E+02  0.14094253295E+02 -0.10816046011E+02  0.22295156482E+02  0.00000000000E+00 0.  1.
</event>
<event>
 7    1  0.3597367E-009  0.1346813E+03  0.7561462E-02  0.1220670E+00
         -1   -1    0    0    0  501 -0.00000000000E+00  0.00000000000E+00  0.64150893378E+02  0.64150893378E+02  0.00000000000E+00 0.  1.
          1   -1    0    0  501    0  0.00000000000E+00 -0.00000000000E+00 -0.34361154470E+03  0.34361154470E+03  0.00000000000E+00 0. -1.
         25    2    1    2    0    0  0.12074346082E+02 -0.96028018286E+02 -0.11364791169E+03  0.19475804444E+03  0.12509067877E+03 0.  0.
          5    1    3    3  502    0  0.52166881615E+02 -0.20787177185E+02 -0.49183490289E+01  0.56525682923E+02  0.41800000000E+01 0.  1.
         -5    1    3    3    0  502 -0.40092535533E+02 -0.75240841101E+02 -0.10872956266E+03  0.13823236152E+03  0.41800000000E+01 0.  1.
        -11    1    1    2    0    0 -0.41630767485E+02  0.20128332349E+02 -0.92517866799E+02  0.10343029654E+03  0.00000000000E+00 0. -1.
         11    1    1    2    0    0  0.29556421403E+02  0.75899685936E+02 -0.73294872838E+02  0.10957409710E+03  0.00000000000E+00 0.  1.
</event>
<event>
 7    1  0.3056346E-009  0.1910471E+03  0.7561462E-02  0.1157520E+00
         -2   -1    0    0    0  501 -0.00000000000E+00  0.00000000000E+00  0.41688350178E+03  0.41688350178E+03  0.00000000000E+00 0.  1.
          2   -1    0    0  501    0  0.00000000000E+00 -0.00000000000E+00 -0.96066664981E+02  0.96066664981E+02  0.00000000000E+00 0. -1.
         25    2    1    2    0    0 -0.16264666681E+03 -0.18597251235E+02  0.21475841716E+03  0.29760606680E+03  0.12509355410E+03 0.  0.
          5    1    3    3  502    0  0.64362377453E+01  0.29097515958E+02  0.36259796378E+02  0.47120439563E+02  0.41800000000E+01 0.  1.
         -5    1    3    3    0  502 -0.16908290456E+03 -0.47694767193E+02  0.17849862078E+03  0.25048562724E+03  0.41800000000E+01 0.  1.
        -11    1    1    2    0    0  0.12837571785E+03 -0.13794146793E+02  0.10773384843E+03  0.16815821573E+03  0.00000000000E+00 0.  1.
         11    1    1    2    0    0  0.34270948960E+02  0.32391398028E+02 -0.16754287915E+01  0.47185884229E+02  0.00000000000E+00 0. -1.
</event>
<event>
 7    1  0.3056346E-009  0.8458291E+02  0.7561462E-02  0.1316527E+00
          4   -1    0    0  501    0  0.00000000000E+00  0.00000000000E+00  0.23517139825E+02  0.23517139825E+02  0.00000000000E+00 0.  1.
         -4   -1    0    0    0  501 -0.00000000000E+00 -0.00000000000E+00 -0.56483463098E+03  0.56483463098E+03  0.00000000000E+00 0. -1.
         25    2    1    2    0    0  0.43410211594E+02 -0.73957267059E+01 -0.26843973063E+03  0.29940921646E+03  0.12508735618E+03 0.  0.
          5    1    3    3  502    0  0.42252305034E+02  0.22474757807E+02 -0.25094968017E+02  0.54199647960E+02  0.41800000000E+01 0.  1.
         -5    1    3    3    0  502  0.11579065597E+01 -0.29870484513E+02 -0.24334476262E+03  0.24520956850E+03  0.41800000000E+01 0.  1.
        -11    1    1    2    0    0 -0.30972305891E+02  0.43133552420E+02 -0.11617548911E+03  0.12773617869E+03  0.00000000000E+00 0. -1.
         11    1    1    2    0    0 -0.12437905704E+02 -0.35737825714E+02 -0.15670227142E+03  0.16120637566E+03  0.00000000000E+00 0.  1.
</event>
<event>
 7    1  0.3056346E-009  0.1046935E+03  0.7561462E-02  0.1270725E+00
         -1   -1    0    0    0  501 -0.00000000000E+00  0.00000000000E+00  0.17035467097E+03  0.17035467097E+03  0.00000000000E+00 0.  1.
          1   -1    0    0  501    0  0.00000000000E+00 -0.00000000000E+00 -0.15271496952E+03  0.15271496952E+03  0.00000000000E+00 0. -1.
         25    2    1    2    0    0 -0.21467276592E+02  0.39219659040E+02 -0.10075651206E+03  0.16672684683E+03  0.12508773367E+03 0.  0.
          5    1    3    3  502    0 -0.50889195987E+02  0.60320470018E+02 -0.10344721512E+03  0.13018090523E+03  0.41800000000E+01 0. -1.
         -5    1    3    3    0  502  0.29421919396E+02 -0.21100810978E+02  0.26907030561E+01  0.36545941605E+02  0.41800000000E+01 0. -1.
        -11    1    1    2    0    0 -0.13030703955E+02 -0.54604128451E+02  0.99174315410E+02  0.11396032172E+03  0.00000000000E+00 0.  1.
         11    1    1    2    0    0  0.34497980546E+02  0.15384469411E+02  0.19221898094E+02  0.42382471933E+02  0.00000000000E+00 0. -1.
</event>
<event>
 7    1  0.3056346E-009  0.3141325E+03  0.7561462E-02  0.1078382E+00
         -1   -1    0    0    0  501 -0.00000000000E+00  0.00000000000E+00  0.32676168735E+03  0.32676168735E+03  0.00000000000E+00 0.  1.
          1   -1    0    0  501    0  0.00000000000E+00 -0.00000000000E+00 -0.34371530293E+03  0.34371530293E+03  0.00000000000E+00 0. -1.
         25    2    1    2    0    0 -0.30276204736E+03  0.61490065525E+01 -0.10406348869E+03  0.34377199962E+03  0.12508920992E+03 0.  0.
          5    1    3    3  502    0  0.10535199590E+02 -0.31164084670E+01 -0.12615093556E+02  0.17242836703E+02  0.41800000000E+01 0. -1.
         -5    1    3    3    0  502 -0.31329724695E+03  0.92654150195E+01 -0.91448395137E+02  0.32652916291E+03  0.41800000000E+01 0. -1.
        -11    1    1    2    0    0  0.19456012740E+03  0.16297395207E+01  0.12350516297E+02  0.19495854553E+03  0.00000000000E+00 0.  1.
         11    1    1    2    0    0  0.10820191996E+03 -0.77787460732E+01  0.74759356814E+02  0.13174644513E+03  0.00000000000E+00 0. -1.
</event>
<event>
 7    1  0.3056346E-009  0.1783306E+03  0.7561462E-02  0.1169429E+00
          2   -1    0    0  501    0  0.00000000000E+00  0.00000000000E+00  0.71524807190E+03  0.71524807190E+03  0.00000000000E+00 0. -1.
         -2   -1    0    0    0  501 -0.00000000000E+00 -0.00000000000E+00 -0.49446099721E+02  0.49446099721E+02  0.00000000000E+00 0.  1.
         25    2    1    2    0    0 -0.13401753641E+03  0.65112694405E+02  0.27555224364E+03  0.33731017295E+03  0.12509496697E+03 0.  0.
          5    1    3    3  502    0 -0.81682131214E+00 -0.24030061203E+02  0.85337780521E+01  0.25853603353E+02  0.41800000000E+01 0. -1.
         -5    1    3    3    0  502 -0.13320071510E+03  0.89142755608E+02  0.26701846559E+03  0.31145656960E+03  0.41800000000E+01 0. -1.
        -11    1    1    2    0    0  0.30639183090E+02 -0.61236256262E+02  0.12240992871E+03  0.14025986335E+03  0.00000000000E+00 0.  1.
         11    1    1    2    0    0  0.10337835332E+03 -0.38764381424E+01  0.26783979984E+03  0.28712413532E+03  0.00000000000E+00 0. -1.
</event>
<event>
 7    1  0.3056346E-009  0.1598620E+03  0.7561462E-02  0.1188853E+00
         -2   -1    0    0    0  501 -0.00000000000E+00  0.00000000000E+00  0.49104535114E+02  0.49104535114E+02  0.00000000000E+00 0. -1.
          2   -1    0    0  501    0  0.00000000000E+00 -0.00000000000E+00 -0.62778305200E+03  0.62778305200E+03  0.00000000000E+00 0.  1.
         25    2    1    2    0    0 -0.37640437462E+02 -0.12999573980E+03 -0.25748594381E+03  0.31664811298E+03  0.12510524089E+03 0.  0.
          5    1    3    3  502    0 -0.53865587815E+02 -0.88994232050E+01 -0.12450331333E+03  0.13601194328E+03  0.41800000000E+01 0.  1.
         -5    1    3    3    0  502  0.16225150353E+02 -0.12109631659E+03 -0.13298263048E+03  0.18063616970E+03  0.41800000000E+01 0.  1.
        -11    1    1    2    0    0  0.10858077731E+02  0.92397524656E+00  0.21064094964E+01  0.11099033437E+02  0.00000000000E+00 0. -1.
         11    1    1    2    0    0  0.26782359731E+02  0.12907176455E+03 -0.32329898257E+03  0.34914044069E+03  0.00000000000E+00 0.  1.
</event>
<event>
 7    1  0.3056346E-009  0.1272262E+03  0.7561462E-02  0.1231631E+00
         -2   -1    0    0    0  501 -0.00000000000E+00  0.00000000000E+00  0.19697764293E+02  0.19697764293E+02  0.00000000000E+00 0.  1.
          2   -1    0    0  501    0  0.00000000000E+00 -0.00000000000E+00 -0.11005321418E+04  0.11005321418E+04  0.00000000000E+00 0. -1.
         25    2    1    2    0    0  0.36000044054E+02 -0.58124220108E+02 -0.85846992484E+03  0.87022202812E+03  0.12506533591E+03 0.  0.
          5    1    3    3  502    0 -0.18267791450E+02  0.31819644493E+02 -0.19335893544E+03  0.19685363165E+03  0.41800000000E+01 0. -1.
         -5    1    3    3    0  502  0.54267835504E+02 -0.89943864601E+02 -0.66511098940E+03  0.67336839648E+03  0.41800000000E+01 0. -1.
        -11    1    1    2    0    0  0.11015006338E+02 -0.19062491726E+02 -0.63843419522E+02  0.67532889555E+02  0.00000000000E+00 0. -1.
         11    1    1    2    0    0 -0.47015050392E+02  0.77186711834E+02 -0.15852103316E+03  0.18247498843E+03  0.00000000000E+00 0.  1.
</event>
<event>
 7    1  0.3056346E-009  0.1304361E+03  0.7561462E-02  0.1226810E+00
          3   -1    0    0  501    0  0.00000000000E+00  0.00000000000E+00  0.14921084656E+03  0.14921084656E+03  0.00000000000E+00 0. -1.
         -3   -1    0    0    0  501 -0.00000000000E+00 -0.00000000000E+00 -0.21179099742E+03  0.21179099742E+03  0.00000000000E+00 0.  1.
         25    2    1    2    0    0  0.81643579005E+02 -0.85050491594E+02 -0.10617097801E+03  0.20203745725E+03  0.12509035713E+03 0.  0.
          5    1    3    3  502    0  0.27700128314E+02  0.83392626726E+01 -0.87822075435E+02  0.92558250547E+02  0.41800000000E+01 0. -1.
         -5    1    3    3    0  502  0.53943450691E+02 -0.93389754266E+02 -0.18348902578E+02  0.10947920670E+03  0.41800000000E+01 0. -1.
        -11    1    1    2    0    0 -0.33625214292E+02  0.10853583378E+02  0.59465159334E+02  0.69170517440E+02  0.00000000000E+00 0. -1.
         11    1    1    2    0    0 -0.48018364712E+02  0.74196908216E+02 -0.15874332183E+02  0.89793869283E+02  0.00000000000E+00 0.  1.
</event>
<event>
 7    1  0.3056346E-009  0.1696102E+03  0.7561462E-02  0.1178255E+00
          1   -1    0    0  501    0  0.00000000000E+00  0.00000000000E+00  0.18848522986E+04  0.18848522986E+04  0.00000000000E+00 0. -1.
         -1   -1    0    0    0  501 -0.00000000000E+00 -0.00000000000E+00 -0.20537703411E+02  0.20537703411E+02  0.00000000000E+00 0.  1.
         25    2    1    2    0    0  0.11992697250E+03 -0.81710794481E+02  0.13442110271E+04  0.13577963565E+04  0.12509407456E+03 0.  0.
          5    1    3    3  502    0  0.35175745915E+02  0.25660622648E+02  0.16608432085E+03  0.17174770650E+03  0.41800000000E+01 0. -1.
         -5    1    3    3    0  502  0.84751226585E+02 -0.10737141713E+03  0.11781267063E+04  0.11860486500E+04  0.41800000000E+01 0. -1.
        -11    1    1    2    0    0 -0.80997950479E+02  0.87538648757E+02  0.46384312159E+03  0.47893018745E+03  0.00000000000E+00 0. -1.
         11    1    1    2    0    0 -0.38929022021E+02 -0.58278542761E+01  0.56260446463E+02  0.68663458092E+02  0.00000000000E+00 0.  1.
</event>
<event>
 7    1  0.3056346E-009  0.1930943E+03  0.7561462E-02  0.1155700E+00
          2   -1    0    0  501    0  0.00000000000E+00  0.00000000000E+00  0.72642524257E+03  0.72642524257E+03  0.00000000000E+00 0. -1.
         -2   -1    0    0    0  501 -0.00000000000E+00 -0.00000000000E+00 -0.54737855390E+02  0.54737855390E+02  0.00000000000E+00 0.  1.
         25    2    1    2    0    0 -0.16462581185E+03 -0.33543298389E+02  0.32100510619E+03  0.38329901415E+03  0.12508814993E+03 0.  0.
          5    1    3    3  502    0 -0.18272399897E+02  0.38447415614E+02  0.41130706205E+02  0.59340473189E+02  0.41800000000E+01 0. -1.
         -5    1    3    3    0  502 -0.14635341195E+03 -0.71990714003E+02  0.27987439999E+03  0.32395854096E+03  0.41800000000E+01 0. -1.
        -11    1    1    2    0    0  0.14956106160E+03  0.50238504789E+02  0.25736904045E+03  0.30187951486E+03  0.00000000000E+00 0.  1.
         11    1    1    2    0    0  0.15064750253E+02 -0.16695206400E+02  0.93313240534E+02  0.95984568947E+02  0.00000000000E+00 0. -1.
</event>
<event>
 7    1  0.3056346E-009  0.1086778E+03  0.7561462E-02  0.1263038E+00
          2   -1    0    0  501    0  0.00000000000E+00  0.00000000000E+00  0.24007726258E+03  0.24007726258E+03  0.00000000000E+00 0. -1.
         -2   -1    0    0    0  501 -0.00000000000E+00 -0.00000000000E+00 -0.82772343055E+02  0.82772343055E+02  0.00000000000E+00 0.  1.
         25    2    1    2    0    0  0.35774719860E+02 -0.13403636967E+02 -0.88913112545E+01  0.13109593961E+03  0.12509037494E+03 0.  0.
          5    1    3    3  502    0  0.26531554111E+02 -0.68923743591E+02 -0.10005014035E+02  0.74645686412E+02  0.41800000000E+01 0. -1.
         -5    1    3    3    0  502  0.92431657482E+01  0.55520106624E+02  0.11137027807E+01  0.56450253201E+02  0.41800000000E+01 0. -1.
        -11    1    1    2    0    0  0.98471820243E+01  0.35079005433E+02  0.32459664222E+02  0.48796858683E+02  0.00000000000E+00 0.  1.
         11    1    1    2    0    0 -0.45621901884E+02 -0.21675368466E+02  0.13373656655E+03  0.14295680733E+03  0.00000000000E+00 0. -1.
</event>
<event>
 7    1  0.3056346E-009  0.1291983E+03  0.7561462E-02  0.1228650E+00
          2   -1    0    0  501    0  0.00000000000E+00  0.00000000000E+00  0.93930213827E+02  0.93930213827E+02  0.00000000000E+00 0. -1.
         -2   -1    0    0    0  501 -0.00000000000E+00 -0.00000000000E+00 -0.25098887873E+03  0.25098887873E+03  0.00000000000E+00 0.  1.
         25    2    1    2    0    0 -0.47802372488E+02 -0.91667029380E+02 -0.48055928206E+02  0.16924801369E+03  0.12509039457E+03 0.  0.
          5    1    3    3  502    0 -0.71523850816E+02 -0.44718068708E+02 -0.72301484943E+02  0.11117708410E+03  0.41800000000E+01 0.  1.
         -5    1    3    3    0  502  0.23721478328E+02 -0.46948960673E+02  0.24245556736E+02  0.58070929593E+02  0.41800000000E+01 0.  1.
        -11    1    1    2    0    0  0.65047728090E+01  0.77111840193E+02 -0.10671945509E+03  0.13182408756E+03  0.00000000000E+00 0.  1.
         11    1    1    2    0    0  0.41297599679E+02  0.14555189188E+02 -0.22832816117E+01  0.43846991304E+02  0.00000000000E+00 0. -1.
</event>
<event>
 7    1  0.3056346E-009  0.1568268E+03  0.7561462E-02  0.1192327E+00
         -1   -1    0    0    0  501 -0.00000000000E+00  0.00000000000E+00  0.85611583063E+02  0.85611583063E+02  0.00000000000E+00 0.  1.
          1   -1    0    0  501    0  0.00000000000E+00 -0.00000000000E+00 -0.30526920125E+03  0.30526920125E+03  0.00000000000E+00 0. -1.
         25    2    1    2    0    0 -0.11978128960E+03 -0.72317229781E+00 -0.12360129113E+03  0.21277409250E+03  0.12508978757E+03 0.  0.
          5    1    3    3  502    0 -0.13970998232E+03 -0.13953779177E+02 -0.76906715440E+02  0.16014275629E+03  0.41800000000E+01 0.  1.
         -5    1    3    3    0  502  0.19928692724E+02  0.13230606879E+02 -0.46694575687E+02  0.52631336204E+02  0.41800000000E+01 0.  1.
        -11    1    1    2    0    0  0.90938874510E+02  0.40680830861E+02 -0.74085515155E+02  0.12415100665E+03  0.00000000000E+00 0. -1.
         11    1    1    2    0    0  0.28842415086E+02 -0.39957658563E+02 -0.21970811906E+02  0.53955685165E+02  0.00000000000E+00 0.  1.
</event>
<event>
 7    1  0.3056346E-009  0.1157071E+03  0.7561462E-02  0.1250352E+00
         -1   -1    0    0    0  501 -0.00000000000E+00  0.00000000000E+00  0.36070751376E+02  0.36070751376E+02  0.00000000000E+00 0.  1.
          1   -1    0    0  501    0  0.00000000000E+00 -0.00000000000E+00 -0.58276539766E+03  0.58276539766E+03  0.00000000000E+00 0. -1.
         25    2    1    2    0    0  0.30866044331E+02  0.36834908790E+02 -0.47632734302E+03  0.49480322480E+03  0.12503187740E+03 0.  0.
          5    1    3    3  502    0  0.53174683610E+02  0.73460483258E+02 -0.33085568464E+03  0.34308445904E+03  0.41800000000E+01 0. -1.
         -5    1    3    3    0  502 -0.22308639279E+02 -0.36625574467E+02 -0.14547165838E+03  0.15171876576E+03  0.41800000000E+01 0. -1.
        -11    1    1    2    0    0  0.12162682348E+02 -0.50854391861E+02 -0.55848593517E+02  0.76505982846E+02  0.00000000000E+00 0. -1.
         11    1    1    2    0    0 -0.43028726679E+02  0.14019483070E+02 -0.14518709750E+02  0.47526941391E+02  0.00000000000E+00 0.  1.
</event>
<event>
 7    1  0.3056346E-009  0.8803797E+02  0.7561462E-02  0.1307674E+00
         -2   -1    0    0    0  501 -0.00000000000E+00  0.00000000000E+00  0.91556369321E+02  0.91556369321E+02  0.00000000000E+00 0.  1.
          2   -1    0    0  501    0  0.00000000000E+00 -0.00000000000E+00 -0.15413150161E+03  0.15413150161E+03  0.00000000000E+00 0. -1.
         25    2    1    2    0    0  0.20265361906E+02  0.39512978519E+02 -0.14339846907E+02  0.13350686069E+03  0.12508593158E+03 0.  0.
          5    1    3    3  502    0  0.10929235931E+02  0.55063157842E+02  0.44522783842E+02  0.71771514061E+02  0.41800000000E+01 0. -1.
         -5    1    3    3    0  502  0.93361259750E+01 -0.15550179323E+02 -0.58862630749E+02  0.61735346633E+02  0.41800000000E+01 0. -1.
        -11    1    1    2    0    0  0.33582649187E+02  0.12927704392E+01 -0.13564728322E+02  0.36241791295E+02  0.00000000000E+00 0.  1.
         11    1    1    2    0    0 -0.53848011093E+02 -0.40805748958E+02 -0.34670557062E+02  0.75939218943E+02  0.00000000000E+00 0. -1.
</event>
<event>
 7    1  0.3056346E-009  0.1517452E+03  0.7561462E-02  0.1198345E+00
          2   -1    0    0  501    0  0.00000000000E+00  0.00000000000E+00  0.38543788404E+03  0.38543788404E+03  0.00000000000E+00 0.  1.
         -2   -1    0    0    0  501 -0.00000000000E+00 -0.00000000000E+00 -0.73781761755E+02  0.73781761755E+02  0.00000000000E+00 0. -1.
         25    2    1    2    0    0  0.17480406845E+02 -0.12718990702E+03  0.17109559117E+03  0.24782125548E+03  0.12513527193E+03 0.  0.
          5    1    3    3  502    0 -0.10993281447E+02  0.17270339625E+02 -0.14603065331E+01  0.20945686022E+02  0.41800000000E+01 0. -1.
         -5    1    3    3    0  502  0.28473688292E+02 -0.14446024665E+03  0.17255589770E+03  0.22687556946E+03  0.41800000000E+01 0. -1.
        -11    1    1    2    0    0 -0.31717617259E+02  0.93044468854E+02  0.43443561605E+02  0.10747382692E+03  0.00000000000E+00 0.  1.
         11    1    1    2    0    0  0.14237210414E+02  0.34145438171E+02  0.97116969513E+02  0.10392456339E+03  0.00000000000E+00 0. -1.
</event>
<event>
 7    1  0.3056346E-009  0.8889395E+02  0.7561462E-02  0.1305552E+00
         -4   -1    0    0    0  501 -0.00000000000E+00  0.00000000000E+00  0.25538843232E+02  0.25538843232E+02  0.00000000000E+00 0.  1.
          4   -1    0    0  501    0  0.00000000000E+00 -0.00000000000E+00 -0.60750311905E+03  0.60750311905E+03  0.00000000000E+00 0. -1.
         25    2    1    2    0    0  0.22432441314E+02  0.51478449653E+02 -0.38520254560E+03  0.40887846778E+03  0.12508938833E+03 0.  0.
          5    1    3    3  502    0  0.15334413255E+02  0.64483700097E+02 -0.83074756038E+02  0.10635872930E+03  0.41800000000E+01 0.  1.
         -5    1    3    3    0  502  0.70980280582E+01 -0.13005250444E+02 -0.30212778956E+03  0.30251973848E+03  0.41800000000E+01 0.  1.
        -11    1    1    2    0    0  0.27656146516E+02 -0.31852540268E+02 -0.38879851038E+02  0.57368018776E+02  0.00000000000E+00 0.  1.
         11    1    1    2    0    0 -0.50088587830E+02 -0.19625909385E+02 -0.15788187917E+03  0.16679547572E+03  0.00000000000E+00 0. -1.
</event>
<event>
 7    1  0.3056346E-009  0.3172492E+03  0.7561462E-02  0.1076922E+00
         -2   -1    0    0    0  501 -0.00000000000E+00  0.00000000000E+00  0.68547856371E+02  0.68547856371E+02  0.00000000000E+00 0.  1.
          2   -1    0    0  501    0  0.00000000000E+00 -0.00000000000E+00 -0.17969478645E+04  0.17969478645E+04  0.00000000000E+00 0. -1.
         25    2    1    2    0    0  0.48959078372E+02  0.30278940292E+03 -0.52843314530E+03  0.62367544002E+03  0.12510416284E+03 0.  0.
          5    1    3    3  502    0  0.71718693819E+02  0.12910895856E+03 -0.31194207879E+03  0.34516376858E+03  0.41800000000E+01 0. -1.
         -5    1    3    3    0  502 -0.22759615447E+02  0.17368044436E+03 -0.21649106651E+03  0.27851167144E+03  0.41800000000E+01 0. -1.
        -11    1    1    2    0    0 -0.58468829878E+02 -0.20188266402E+03 -0.66803217926E+03  0.70031579064E+03  0.00000000000E+00 0.  1.
         11    1    1    2    0    0  0.95097515061E+01 -0.10090673890E+03 -0.53193468361E+03  0.54150449025E+03  0.00000000000E+00 0. -1.
</event>
<event>
 6    1  0.3056346E-009  0.9327841E+02  0.7561462E-02  0.1295101E+00
         -1   -1    0    0    0  501 -0.00000000000E+00  0.00000000000E+00  0.60510684436E+02  0.60510684436E+02  0.00000000000E+00 0.  1.
          1   -1    0    0  501    0  0.00000000000E+00 -0.00000000000E+00 -0.25619159358E+03  0.25619159358E+03  0.00000000000E+00 0. -1.
          5    1    1    2  502    0 -0.63103501496E+02 -0.29516358311E+02 -0.13584992793E+03  0.15272832948E+03  0.41800000000E+01 0.  1.
         -5    1    1    2    0  502  0.56599097461E+01  0.13270297851E+02  0.22290779111E+02  0.26879111161E+02  0.41800000000E+01 0.  1.
        -11    1    1    2    0    0 -0.16700164306E+02  0.21722635662E+02 -0.15216779363E+01  0.27442374018E+02  0.00000000000E+00 0.  1.
         11    1    1    2    0    0  0.74143756057E+02 -0.54765752022E+01 -0.80600082392E+02  0.10965246335E+03  0.00000000000E+00 0. -1.
</event>
<event>
 7    1  0.3056346E-009  0.1170391E+03  0.7561462E-02  0.1248063E+00
          1   -1    0    0  501    0  0.00000000000E+00  0.00000000000E+00  0.14044702581E+03  0.14044702581E+03  0.00000000000E+00 0. -1.
         -1   -1    0    0    0  501 -0.00000000000E+00 -0.00000000000E+00 -0.16002992377E+03  0.16002992377E+03  0.00000000000E+00 0.  1.
         25    2    1    2    0    0 -0.54120101325E+02  0.70352543059E+02  0.30868504392E+02  0.15645713687E+03  0.12508998934E+03 0.  0.
          5    1    3    3  502    0 -0.16721433213E+02  0.57117463483E+02  0.75741062974E+02  0.96416761944E+02  0.41800000000E+01 0. -1.
         -5    1    3    3    0  502 -0.37398668112E+02  0.13235079576E+02 -0.44872558582E+02  0.60040374929E+02  0.41800000000E+01 0. -1.
        -11    1    1    2    0    0 -0.28893101931E+02 -0.31898122299E+02 -0.11228341614E+02  0.44478952335E+02  0.00000000000E+00 0. -1.
         11    1    1    2    0    0  0.83013203255E+02 -0.38454420760E+02 -0.39223060734E+02  0.99540860374E+02  0.00000000000E+00 0.  1.
</event>
<event>
 7    1  0.3056346E-009  0.1060035E+03  0.7561462E-02  0.1268155E+00
          2   -1    0    0  501    0  0.00000000000E+00  0.00000000000E+00  0.16356026451E+04  0.16356026451E+04  0.00000000000E+00 0. -1.
         -2   -1    0    0    0  501 -0.00000000000E+00 -0.00000000000E+00 -0.10434627370E+02  0.10434627370E+02  0.00000000000E+00 0.  1.
         25    2    1    2    0    0  0.11555459175E+02 -0.45245829520E+02  0.12709334868E+04  0.12779280912E+04  0.12509022596E+03 0.  0.
          5    1    3    3  502    0  0.48767602714E+02  0.21563602528E+02  0.38624938622E+03  0.38993503149E+03  0.41800000000E+01 0.  1.
         -5    1    3    3    0  502 -0.37212143538E+02 -0.66809432048E+02  0.88468410058E+03  0.88799305969E+03  0.41800000000E+01 0.  1.
        -11    1    1    2    0    0 -0.30440400760E+02  0.53317715543E+02  0.33282980019E+03  0.33844508075E+03  0.00000000000E+00 0. -1.
         11    1    1    2    0    0  0.18884941585E+02 -0.80718860232E+01  0.21404730731E+02  0.29664100531E+02  0.00000000000E+00 0.  1.
</event>
<event>
 7    1  0.3056346E-009  0.1337797E+03  0.7561462E-02  0.1221953E+00
          1   -1    0    0  501    0  0.00000000000E+00  0.00000000000E+00  0.20657874075E+02  0.20657874075E+02  0.00000000000E+00 0. -1.
         -1   -1    0    0    0  501 -0.00000000000E+00 -0.00000000000E+00 -0.11935784540E+04  0.11935784540E+04  0.00000000000E+00 0.  1.
         25    2    1    2    0    0  0.83138453924E+01 -0.10116088800E+03 -0.82794939116E+03  0.84347575417E+03  0.12509399767E+03 0.  0.
          5    1    3    3  502    0  0.43520397204E+00 -0.12182628438E+03 -0.49582619578E+03  0.51059075764E+03  0.41800000000E+01 0. -1.
         -5    1    3    3    0  502  0.78786414203E+01  0.20665396386E+02 -0.33212319538E+03  0.33288499652E+03  0.41800000000E+01 0. -1.
        -11    1    1    2    0    0  0.30917807155E+02  0.41566003709E+02 -0.22746292581E+03  0.23328743233E+03  0.00000000000E+00 0.  1.
         11    1    1    2    0    0 -0.39231652547E+02  0.59594884287E+02 -0.11750826295E+03  0.13747314158E+03  0.00000000000E+00 0. -1.
</event>
<event>
 7    1  0.3056346E-009  0.1091223E+03  0.7561462E-02  0.1262204E+00
          2   -1    0    0  501    0  0.00000000000E+00  0.00000000000E+00  0.88796278928E+03  0.88796278928E+03  0.00000000000E+00 0.  1.
         -2   -1    0    0    0  501 -0.00000000000E+00 -0.00000000000E+00 -0.15286999983E+02  0.15286999983E+02  0.00000000000E+00 0. -1.
         25    2    1    2    0    0  0.14595676105E+00 -0.26744818782E+02  0.63311361685E+03  0.64590643967E+03  0.12508785045E+03 0.  0.
          5    1    3    3  502    0  0.58828793727E+02  0.20950285462E+01  0.37454456629E+03  0.37916529463E+03  0.41800000000E+01 0. -1.
         -5    1    3    3    0  502 -0.58682836966E+02 -0.28839847328E+02  0.25856905057E+03  0.26674114504E+03  0.41800000000E+01 0. -1.
        -11    1    1    2    0    0  0.29688716167E+02  0.48444909351E+02  0.13526767058E+03  0.14671629703E+03  0.00000000000E+00 0. -1.
         11    1    1    2    0    0 -0.29834672928E+02 -0.21700090569E+02  0.10429450186E+03  0.11062705256E+03  0.00000000000E+00 0.  1.
</event>
<event>
 7    1  0.3056346E-009  0.1132704E+03  0.7561462E-02  0.1254631E+00
         -4   -1    0    0    0  501 -0.00000000000E+00  0.00000000000E+00  0.25884994567E+03  0.25884994567E+03  0.00000000000E+00 0.  1.
          4   -1    0    0  501    0  0.00000000000E+00 -0.00000000000E+00 -0.71938954533E+02  0.71938954533E+02  0.00000000000E+00 0. -1.
         25    2    1    2    0    0 -0.76735670505E+02 -0.23087136892E+02  0.12675479223E+03  0.19528153557E+03  0.12508685688E+03 0.  0.
          5    1    3    3  502    0 -0.91699967569E+02 -0.75756838225E+01  0.14149829827E+03  0.16883576591E+03  0.41800000000E+01 0. -1.
         -5    1    3    3    0  502  0.14964297064E+02 -0.15511453070E+02 -0.14743506034E+02  0.26445769664E+02  0.41800000000E+01 0. -1.
        -11    1    1    2    0    0  0.55121875958E+02  0.52403574753E+02  0.63296624791E+02  0.98949575876E+02  0.00000000000E+00 0.  1.
         11    1    1    2    0    0  0.21613794547E+02 -0.29316437861E+02 -0.31404258915E+01  0.36557788751E+02  0.00000000000E+00 0. -1.
</event>
<event>
 7    1  0.3056346E-009  0.9675759E+02  0.7561462E-02  0.1287266E+00
          3   -1    0    0  501    0  0.00000000000E+00  0.00000000000E+00  0.37210143111E+03  0.37210143111E+03  0.00000000000E+00 0.  1.
         -3   -1    0    0    0  501 -0.00000000000E+00 -0.00000000000E+00 -0.45255748772E+02  0.45255748772E+02  0.00000000000E+00 0. -1.
         25    2    1    2    0    0 -0.56996747909E+02 -0.40992434603E+02  0.18666307533E+03  0.23541326008E+03  0.12508912968E+03 0.  0.
          5    1    3    3  502    0 -0.45955172902E+02 -0.81125185758E+01  0.19411732428E+03  0.19969150923E+03  0.41800000000E+01 0. -1.
         -5    1    3    3    0  502 -0.11041575007E+02 -0.32879916027E+02 -0.74542489485E+01  0.35721750852E+02  0.41800000000E+01 0. -1.
        -11    1    1    2    0    0  0.37931587127E+02  0.68475028550E+02  0.73665825414E+02  0.10749087715E+03  0.00000000000E+00 0. -1.
         11    1    1    2    0    0  0.19065160782E+02 -0.27482593947E+02  0.66516781590E+02  0.74453042643E+02  0.00000000000E+00 0.  1.
</event>
<event>
 7    1  0.3056346E-009  0.1034598E+03  0.7561462E-02  0.1273184E+00
         -1   -1    0    0    0  501 -0.00000000000E+00  0.00000000000E+00  0.52303478260E+02  0.52303478260E+02  0.00000000000E+00 0.  1.
          1   -1    0    0  501    0  0.00000000000E+00 -0.00000000000E+00 -0.31830045030E+03  0.31830045030E+03  0.00000000000E+00 0. -1.
         25    2    1    2    0    0 -0.36468525077E+02  0.53194639224E+02 -0.18416374771E+03  0.23178321001E+03  0.12509015752E+03 0.  0.
          5    1    3    3  502    0  0.15574399259E+02  0.36996435480E+02 -0.71663314471E+00  0.40364391653E+02  0.41800000000E+01 0. -1.
         -5    1    3    3    0  502 -0.52042924336E+02  0.16198203744E+02 -0.18344711457E+03  0.19141881836E+03  0.41800000000E+01 0. -1.
        -11    1    1    2    0    0  0.31372967228E+01 -0.73037942306E+02 -0.49089193061E+02  0.88057552330E+02  0.00000000000E+00 0.  1.
         11    1    1    2    0    0  0.33331228354E+02  0.19843303083E+02 -0.32744031260E+02  0.50763166213E+02  0.00000000000E+00 0. -1.
</event>
<event>
 7    1  0.6756850E-009  0.6330518E+02  0.7561462E-02  0.1384463E+00
          1   -1    0    0  501    0  0.00000000000E+00  0.00000000000E+00  0.19103088068E+03  0.19103088068E+03  0.00000000000E+00 0. -1.
         -1   -1    0    0    0  501 -0.00000000000E+00 -0.00000000000E+00 -0.10679966560E+03  0.10679966560E+03  0.00000000000E+00 0.  1.
         25    2    1    2    0    0  0.75988652149E+01  0.26208600216E+02 -0.46247954025E+02  0.13613051643E+03  0.12509200924E+03 0.  0.
          5    1    3    3  502    0 -0.31508879512E+01  0.10100786329E+02 -0.88624464316E+02  0.89351676283E+02  0.41800000000E+01 0.  1.
         -5    1    3    3    0  502  0.10749753166E+02  0.16107813887E+02  0.42376510291E+02  0.46778840150E+02  0.41800000000E+01 0.  1.
        -11    1    1    2    0    0 -0.10205097202E+02 -0.60337352488E+02  0.80328747439E+02  0.10098241322E+03  0.00000000000E+00 0. -1.
         11    1    1    2    0    0  0.26062319868E+01  0.34128752272E+02  0.50150421659E+02  0.60717616631E+02  0.00000000000E+00 0.  1.
</event>
<event>
 7    1  0.3056346E-009  0.1181376E+03  0.7561462E-02  0.1246201E+00
         -1   -1    0    0    0  501 -0.00000000000E+00  0.00000000000E+00  0.39107350039E+03  0.39107350039E+03  0.00000000000E+00 0.  1.
          1   -1    0    0  501    0  0.00000000000E+00 -0.00000000000E+00 -0.47356875952E+02  0.47356875952E+02  0.00000000000E+00 0. -1.
         25    2    1    2    0    0  0.51023986630E+02 -0.60973385091E+02  0.22532551363E+03  0.26970371449E+03  0.12508919064E+03 0.  0.
          5    1    3    3  502    0 -0.25407963123E+01 -0.87459726909E+02  0.12057089187E+03  0.14903178132E+03  0.41800000000E+01 0. -1.
         -5    1    3    3    0  502  0.53564782943E+02  0.26486341818E+02  0.10475462176E+03  0.12067193317E+03  0.41800000000E+01 0. -1.
        -11    1    1    2    0    0 -0.42516771047E+02  0.20101048834E+02  0.11794563461E+03  0.12697598477E+03  0.00000000000E+00 0.  1.
         11    1    1    2    0    0 -0.85072155832E+01  0.40872336257E+02  0.44547619839E+00  0.41750677086E+02  0.00000000000E+00 0. -1.
</event>
<event>
 7    1  0.3056346E-009  0.1958080E+03  0.7561462E-02  0.1153325E+00
          2   -1    0    0  501    0  0.00000000000E+00  0.00000000000E+00  0.13170508919E+04  0.13170508919E+04  0.00000000000E+00 0. -1.
         -2   -1    0    0    0  501 -0.00000000000E+00 -0.00000000000E+00 -0.30353861815E+02  0.30353861815E+02  0.00000000000E+00 0.  1.
         25    2    1    2    0    0  0.85657307403E+02 -0.13853261271E+03  0.56009887785E+03  0.59656319066E+03  0.12509367846E+03 0.  0.
          5    1    3    3  502    0  0.79280110360E+02 -0.16055076370E+03  0.52233224548E+03  0.55218686211E+03  0.41800000000E+01 0.  1.
         -5    1    3    3    0  502  0.63771970433E+01  0.22018150988E+02  0.37766632367E+02  0.44376328548E+02  0.41800000000E+01 0.  1.
        -11    1    1    2    0    0 -0.35968633399E+02 -0.59160725591E+01  0.14683891949E+03  0.15129577251E+03  0.00000000000E+00 0.  1.
         11    1    1    2    0    0 -0.49688674004E+02  0.14444868527E+03  0.57975923279E+03  0.59954579058E+03  0.00000000000E+00 0. -1.
</event>
<event>
 7    1  0.3056346E-009  0.1293174E+03  0.7561462E-02  0.1228472E+00
         -3   -1    0    0    0  501 -0.00000000000E+00  0.00000000000E+00  0.10774503912E+03  0.10774503912E+03  0.00000000000E+00 0.  1.
          3   -1    0    0  501    0  0.00000000000E+00 -0.00000000000E+00 -0.22186725658E+03  0.22186725658E+03  0.00000000000E+00 0. -1.
         25    2    1    2    0    0  0.96991352805E+02 -0.23295743072E+02 -0.10617290406E+03  0.19202379116E+03  0.12510170523E+03 0.  0.
          5    1    3    3  502    0  0.96870025542E+02 -0.65134524747E+02 -0.87861297955E+02  0.14616219840E+03  0.41800000000E+01 0.  1.
         -5    1    3    3    0  502  0.12132726204E+00  0.41838781675E+02 -0.18311606109E+02  0.45861592762E+02  0.41800000000E+01 0.  1.
        -11    1    1    2    0    0 -0.11868917459E+02  0.20140076028E+01 -0.41833053443E+02  0.43530814242E+02  0.00000000000E+00 0. -1.
         11    1    1    2    0    0 -0.85122435345E+02  0.21281735469E+02  0.33883740049E+02  0.94057690294E+02  0.00000000000E+00 0.  1.
</event>
<event>
 7    1  0.3056346E-009  0.1617735E+03  0.7561462E-02  0.1186709E+00
         -2   -1    0    0    0  501 -0.00000000000E+00  0.00000000000E+00  0.70444458803E+02  0.70444458803E+02  0.00000000000E+00 0.  1.
          2   -1    0    0  501    0  0.00000000000E+00 -0.00000000000E+00 -0.51242088407E+03  0.51242088407E+03  0.00000000000E+00 0. -1.
         25    2    1    2    0    0  0.77019194596E+02 -0.11795464448E+03 -0.33361159357E+03  0.38313202986E+03  0.12509277538E+03 0.  0.
          5    1    3    3  502    0  0.23444805919E+02  0.19574923932E+02 -0.11692151057E+03  0.12091711461E+03  0.41800000000E+01 0. -1.
         -5    1    3    3    0  502  0.53574388677E+02 -0.13752956842E+03 -0.21669008300E+03  0.26221491525E+03  0.41800000000E+01 0. -1.
        -11    1    1    2    0    0 -0.24213658066E+02  0.68743482117E+02 -0.42010191990E+01  0.73004219966E+02  0.00000000000E+00 0.  1.
         11    1    1    2    0    0 -0.52805536529E+02  0.49211162368E+02 -0.10416381250E+03  0.12672909305E+03  0.00000000000E+00 0. -1.
</event>
<event>
 7    1  0.3056346E-009  0.1102376E+03  0.7561462E-02  0.1260131E+00
         -1   -1    0    0    0  501 -0.00000000000E+00  0.00000000000E+00  0.10022839194E+02  0.10022839194E+02  0.00000000000E+00 0.  1.
          1   -1    0    0  501    0  0.00000000000E+00 -0.00000000000E+00 -0.12794556803E+04  0.12794556803E+04  0.00000000000E+00 0. -1.
         25    2    1    2    0    0  0.21237626020E+02 -0.10989596276E+02 -0.77156808130E+03  0.78200808447E+03  0.12509009599E+03 0.  0.
          5    1    3    3  502    0 -0.41683683998E+02 -0.35148944430E+02 -0.45785387322E+03  0.46110803445E+03  0.41800000000E+01 0. -1.
         -5    1    3    3    0  502  0.62921310018E+02  0.24159348154E+02 -0.31371420807E+03  0.32090005002E+03  0.41800000000E+01 0. -1.
        -11    1    1    2    0    0  0.29632941828E+02  0.31647813774E+02 -0.22309414890E+03  0.22726789177E+03  0.00000000000E+00 0.  1.
         11    1    1    2    0    0 -0.50870567848E+02 -0.20658217498E+02 -0.27477061087E+03  0.28020254321E+03  0.00000000000E+00 0. -1.
</event>
<event>
 7    1  0.3056346E-009  0.1231351E+03  0.7561462E-02  0.1238013E+00
         -2   -1    0    0    0  501 -0.00000000000E+00  0.00000000000E+00  0.15556207691E+03  0.15556207691E+03  0.00000000000E+00 0.  1.
          2   -1    0    0  501    0  0.00000000000E+00 -0.00000000000E+00 -0.15696694011E+03  0.15696694011E+03  0.00000000000E+00 0. -1.
         25    2    1    2    0    0  0.16583414799E+02  0.83516126410E+02  0.72480313199E+02  0.16778082514E+03  0.12508819476E+03 0.  0.
          5    1    3    3  502    0  0.49370702635E+02  0.13814710178E+02 -0.12577154731E+02  0.52952523237E+02  0.41800000000E+01 0.  1.
         -5    1    3    3    0  502 -0.32787287836E+02  0.69701416232E+02  0.85057467930E+02  0.11482830191E+03  0.41800000000E+01 0.  1.
        -11    1    1    2    0    0  0.10256118421E+02 -0.89588770074E+02 -0.34169450094E+02  0.96430736843E+02  0.00000000000E+00 0.  1.
         11    1    1    2    0    0 -0.26839533220E+02  0.60726436642E+01 -0.39715726312E+02  0.48317455034E+02  0.00000000000E+00 0. -1.
</event>
<event>
 7    1  0.3056346E-009  0.6063864E+02  0.7561462E-02  0.1395171E+00
          2   -1    0    0  501    0  0.00000000000E+00  0.00000000000E+00  0.10554003997E+03  0.10554003997E+03  0.00000000000E+00 0. -1.
         -2   -1    0    0    0  501 -0.00000000000E+00 -0.00000000000E+00 -0.15144780368E+03  0.15144780368E+03  0.00000000000E+00 0.  1.
         25    2    1    2    0    0  0.14482862960E+02 -0.27598247272E+02  0.31842693382E+02  0.13278898207E+03  0.12509012777E+03 0.  0.
          5    1    3    3  502    0 -0.42918717586E+01 -0.34770966360E+02 -0.42746070212E+02  0.55426881414E+02  0.41800000000E+01 0.  1.
         -5    1    3    3    0  502  0.18774734719E+02  0.71727190878E+01  0.74588763593E+02  0.77362100652E+02  0.41800000000E+01 0.  1.
        -11    1    1    2    0    0  0.13403075408E+02  0.34265661716E+02 -0.86682286737E+02  0.94167918301E+02  0.00000000000E+00 0.  1.
         11    1    1    2    0    0 -0.27885938368E+02 -0.66674144439E+01  0.89318296469E+01  0.30030943290E+02  0.00000000000E+00 0. -1.
</event>
<event>
 7    1  0.3056346E-009  0.7990698E+02  0.7561462E-02  0.1329316E+00
          2   -1    0    0  501    0  0.00000000000E+00  0.00000000000E+00  0.54098667147E+02  0.54098667147E+02  0.00000000000E+00 0. -1.
         -2   -1    0    0    0  501 -0.00000000000E+00 -0.00000000000E+00 -0.25182660969E+03  0.25182660969E+03  0.00000000000E+00 0.  1.
         25    2    1    2    0    0 -0.19416296725E+02 -0.21892126876E+00 -0.16408440968E+03  0.20723404694E+03  0.12508083869E+03 0.  0.
          5    1    3    3  502    0  0.46518037416E+02 -0.21888300413E+02 -0.41085812306E+02  0.65943474831E+02  0.41800000000E+01 0.  1.
         -5    1    3    3    0  502 -0.65934334141E+02  0.21669379144E+02 -0.12299859738E+03  0.14129057211E+03  0.41800000000E+01 0.  1.
        -11    1    1    2    0    0  0.27118765974E+02 -0.71490702084E+01  0.25915609563E+02  0.38185802228E+02  0.00000000000E+00 0. -1.
         11    1    1    2    0    0 -0.77024692484E+01  0.73679914772E+01 -0.59559142421E+02  0.60505427665E+02  0.00000000000E+00 0.  1.
</event>
<event>
 7    1  0.3056346E-009  0.9990677E+02  0.7561462E-02  0.1280492E+00
          1   -1    0    0  501    0  0.00000000000E+00  0.00000000000E+00  0.21730610669E+03  0.21730610669E+03  0.00000000000E+00 0. -1.
         -1   -1    0    0    0  501 -0.00000000000E+00 -0.00000000000E+00 -0.81823840693E+02  0.81823840693E+02  0.00000000000E+00 0.  1.
         25    2    1    2    0    0  0.58961197293E+02  0.42166592377E+02  0.48601242574E+02  0.15252120042E+03  0.12508473728E+03 0.  0.
          5    1    3    3  502    0  0.25820102098E+02  0.53663818881E+02  0.83643162321E+02  0.10276251326E+03  0.41800000000E+01 0.  1.
         -5    1    3    3    0  502  0.33141095195E+02 -0.11497226504E+02 -0.35041919748E+02  0.49758687157E+02  0.41800000000E+01 0.  1.
        -11    1    1    2    0    0 -0.65453757577E+01 -0.51184958352E+02  0.76722584518E+02  0.92461326404E+02  0.00000000000E+00 0. -1.
         11    1    1    2    0    0 -0.52415821535E+02  0.90183659753E+01  0.10158438905E+02  0.54147420558E+02  0.00000000000E+00 0.  1.
</event>
<event>
 7    1  0.3056346E-009  0.9433349E+02  0.7561462E-02  0.1292684E+00
          1   -1    0    0  501    0  0.00000000000E+00  0.00000000000E+00  0.78925815646E+02  0.78925815646E+02  0.00000000000E+00 0. -1.
         -1   -1    0    0    0  501 -0.00000000000E+00 -0.00000000000E+00 -0.18340997587E+03  0.18340997587E+03  0.00000000000E+00 0.  1.
         25    2    1    2    0    0  0.10790047601E+02 -0.28193826057E+02 -0.11346551824E+02  0.12919915253E+03  0.12510939142E+03 0.  0.
          5    1    3    3  502    0 -0.21922170070E+02  0.42378968430E+02 -0.17654744925E+02  0.51046262587E+02  0.41800000000E+01 0. -1.
         -5    1    3    3    0  502  0.32712217671E+02 -0.70572794487E+02  0.63081931013E+01  0.78152889946E+02  0.41800000000E+01 0. -1.
        -11    1    1    2    0    0 -0.32344274651E+02  0.79592883150E+01 -0.97700696138E+02  0.10322271261E+03  0.00000000000E+00 0.  1.
         11    1    1    2    0    0  0.21554227050E+02  0.20234537742E+02  0.45630877362E+01  0.29913926373E+02  0.00000000000E+00 0. -1.
</event>
<event>
 7    1  0.3056346E-009  0.1556511E+03  0.7561462E-02  0.1193696E+00
         -2   -1    0    0    0  501 -0.00000000000E+00  0.00000000000E+00  0.11207835500E+04  0.11207835500E+04  0.00000000000E+00 0.  1.
          2   -1    0    0  501    0  0.00000000000E+00 -0.00000000000E+00 -0.22879921493E+02  0.22879921493E+02  0.00000000000E+00 0. -1.
         25    2    1    2    0    0  0.32571614929E+02 -0.11081094998E+03  0.51150616435E+03  0.53909687666E+03  0.12508760738E+03 0.  0.
          5    1    3    3  502    0  0.72884268820E+02 -0.40110022564E+02  0.32611557787E+03  0.33658546178E+03  0.41800000000E+01 0.  1.
         -5    1    3    3    0  502 -0.40312653890E+02 -0.70700927413E+02  0.18539058648E+03  0.20251141488E+03  0.41800000000E+01 0.  1.
        -11    1    1    2    0    0  0.10691397249E+02  0.10174973109E+03  0.38371515698E+03  0.39712042940E+03  0.00000000000E+00 0. -1.
         11    1    1    2    0    0 -0.43263012179E+02  0.90612188821E+01  0.20268230723E+03  0.20744616548E+03  0.00000000000E+00 0.  1.
</event>
<event>
 7    1  0.3056346E-009  0.1135758E+03  0.7561462E-02  0.1254088E+00
         -2   -1    0    0    0  501 -0.00000000000E+00  0.00000000000E+00  0.11399725118E+03  0.11399725118E+03  0.00000000000E+00 0.  1.
          2   -1    0    0  501    0  0.00000000000E+00 -0.00000000000E+00 -0.15206278554E+03  0.15206278554E+03  0.00000000000E+00 0. -1.
         25    2    1    2    0    0  0.73776657238E+02 -0.96149923489E+01 -0.13892852655E+02  0.14620553849E+03  0.12509038691E+03 0.  0.
          5    1    3    3  502    0  0.46945323619E+02 -0.45493294310E+02 -0.54791642509E+02  0.85399647105E+02  0.41800000000E+01 0. -1.
         -5    1    3    3    0  502  0.26831333619E+02  0.35878301961E+02  0.40898789854E+02  0.60805891383E+02  0.41800000000E+01 0. -1.
        -11    1    1    2    0    0 -0.43815587197E+02  0.49924809481E+02 -0.20404450549E+02  0.69488372304E+02  0.00000000000E+00 0.  1.
         11    1    1    2    0    0 -0.29961070040E+02 -0.40309817133E+02 -0.37682311495E+01  0.50366125930E+02  0.00000000000E+00 0. -1.
</event>
<event>
 7    1  0.3056346E-009  0.9693629E+02  0.7561462E-02  0.1286874E+00
          1   -1    0    0  501    0  0.00000000000E+00  0.00000000000E+00  0.23259069258E+03  0.23259069258E+03  0.00000000000E+00 0. -1.
         -1   -1    0    0    0  501 -0.00000000000E+00 -0.00000000000E+00 -0.12859425138E+03  0.12859425138E+03  0.00000000000E+00 0.  1.
         25    2    1    2    0    0 -0.62530034498E+02 -0.72107274798E+02  0.15288173527E+03  0.21938593756E+03  0.12509156777E+03 0.  0.
          5    1    3    3  502    0 -0.27779403097E+02 -0.42126397043E+02  0.16428422187E+03  0.17191016991E+03  0.41800000000E+01 0. -1.
         -5    1    3    3    0  502 -0.34750631402E+02 -0.29980877754E+02 -0.11402486594E+02  0.47475767653E+02  0.41800000000E+01 0. -1.
        -11    1    1    2    0    0  0.52328092448E+02  0.48136403206E+02  0.15123698944E+02  0.72691600909E+02  0.00000000000E+00 0. -1.
         11    1    1    2    0    0  0.10201942050E+02  0.23970871592E+02 -0.64008993019E+02  0.69107405491E+02  0.00000000000E+00 0.  1.
</event>
<event>
 7    1  0.3056346E-009  0.8608844E+02  0.7561462E-02  0.1312610E+00
          2   -1    0    0  501    0  0.00000000000E+00  0.00000000000E+00  0.31457237769E+03  0.31457237769E+03  0.00000000000E+00 0. -1.
         -2   -1    0    0    0  501 -0.00000000000E+00 -0.00000000000E+00 -0.99175087379E+02  0.99175087379E+02  0.00000000000E+00 0.  1.
         25    2    1    2    0    0 -0.38964752798E+02 -0.43179449415E+02  0.26150829066E+03  0.29566344800E+03  0.12509025377E+03 0.  0.
          5    1    3    3  502    0 -0.33480621780E+02 -0.18083891359E+02  0.26643883481E+03  0.26917485814E+03  0.41800000000E+01 0. -1.
         -5    1    3    3    0  502 -0.54841310175E+01 -0.25095558056E+02 -0.49305441475E+01  0.26488589859E+02  0.41800000000E+01 0. -1.
        -11    1    1    2    0    0  0.33918253659E+02  0.71482055286E+02 -0.27168959242E+02  0.83655749985E+02  0.00000000000E+00 0. -1.
         11    1    1    2    0    0  0.50464991384E+01 -0.28302605871E+02 -0.18942041111E+02  0.34428267080E+02  0.00000000000E+00 0.  1.
</event>
<event>
 7    1  0.3056346E-009  0.7895258E+02  0.7561462E-02  0.1332050E+00
         -2   -1    0    0    0  501 -0.00000000000E+00  0.00000000000E+00  0.95093812588E+02  0.95093812588E+02  0.00000000000E+00 0.  1.
          2   -1    0    0  501    0  0.00000000000E+00 -0.00000000000E+00 -0.12752067853E+03  0.12752067853E+03  0.00000000000E+00 0. -1.
         25    2    1    2    0    0 -0.64262373481E+00  0.97568871751E+01 -0.36990875570E+02  0.13079134009E+03  0.12506974037E+03 0.  0.
          5    1    3    3  502    0 -0.45149852150E+02  0.32287624697E+02  0.15976190437E+02  0.57911233095E+02  0.41800000000E+01 0.  1.
         -5    1    3    3    0  502  0.44507228416E+02 -0.22530737522E+02 -0.52967066007E+02  0.72880106997E+02  0.41800000000E+01 0.  1.
        -11    1    1    2    0    0  0.56786237464E+01  0.20621092528E+02 -0.35407461210E+02  0.41366224557E+02  0.00000000000E+00 0. -1.
         11    1    1    2    0    0 -0.50360000116E+01 -0.30377979703E+02  0.39971470843E+02  0.50456926465E+02  0.00000000000E+00 0.  1.
</event>
<event>
 7    1  0.3056346E-009  0.8368050E+02  0.7561462E-02  0.1318920E+00
          2   -1    0    0  501    0  0.00000000000E+00  0.00000000000E+00  0.26965308889E+02  0.26965308889E+02  0.00000000000E+00 0. -1.
         -2   -1    0    0    0  501 -0.00000000000E+00 -0.00000000000E+00 -0.49020267304E+03  0.49020267304E+03  0.00000000000E+00 0.  1.
         25    2    1    2    0    0  0.52212844570E+01 -0.33367437993E+02 -0.28982742223E+03  0.31748348423E+03  0.12512066317E+03 0.  0.
          5    1    3    3  502    0 -0.27856053955E+02 -0.28270701800E+02 -0.18360152722E+02  0.43929032885E+02  0.41800000000E+01 0. -1.
         -5    1    3    3    0  502  0.33077338412E+02 -0.50967361925E+01 -0.27146726951E+03  0.27355445135E+03  0.41800000000E+01 0. -1.
        -11    1    1    2    0    0 -0.78423313553E+01  0.63246707365E+02 -0.84415967409E+02  0.10577194197E+03  0.00000000000E+00 0.  1.
         11    1    1    2    0    0  0.26210468982E+01 -0.29879269372E+02 -0.88993974502E+02  0.93912555725E+02  0.00000000000E+00 0. -1.
</event>
<event>
 7    1  0.3056346E-009  0.1510917E+03  0.7561462E-02  0.1199138E+00
         -1   -1    0    0    0  501 -0.00000000000E+00  0.00000000000E+00  0.42637523814E+03  0.42637523814E+03  0.00000000000E+00 0.  1.
          1   -1    0    0  501    0  0.00000000000E+00 -0.00000000000E+00 -0.77438270976E+02  0.77438270976E+02  0.00000000000E+00 0. -1.
         25    2    1    2    0    0 -0.11144176285E+03  0.47454324045E+02  0.72981305582E+02  0.18880221199E+03  0.12509526333E+03 0.  0.
          5    1    3    3  502    0 -0.74399978716E+02  0.85683458118E+02  0.73750334384E+02  0.13540161022E+03  0.41800000000E+01 0. -1.
         -5    1    3    3    0  502 -0.37041784138E+02 -0.38229134073E+02 -0.76902880127E+00  0.53400601770E+02  0.41800000000E+01 0. -1.
        -11    1    1    2    0    0  0.10610844119E+03 -0.20896621121E+02  0.26420973512E+03  0.28548634678E+03  0.00000000000E+00 0.  1.
         11    1    1    2    0    0  0.53333216641E+01 -0.26557702924E+02  0.11745926462E+02  0.29524950348E+02  0.00000000000E+00 0. -1.
</event>
<event>
 7    1  0.3056346E-009  0.7434502E+02  0.7561462E-02  0.1345911E+00
         -1   -1    0    0    0  501 -0.00000000000E+00  0.00000000000E+00  0.56486460464E+03  0.56486460464E+03  0.00000000000E+00 0.  1.
          1   -1    0    0  501    0  0.00000000000E+00 -0.00000000000E+00 -0.27836013230E+02  0.27836013230E+02  0.00000000000E+00 0. -1.
         25    2    1    2    0    0 -0.58808663964E+02 -0.18802363966E+01  0.24932893796E+03  0.28508568337E+03  0.12508770247E+03 0.  0.
          5    1    3    3  502    0 -0.26927117476E+02 -0.27876767881E+02  0.74378865399E+01  0.39685997521E+02  0.41800000000E+01 0.  1.
         -5    1    3    3    0  502 -0.31881546488E+02  0.25996531485E+02  0.24189105142E+03  0.24539968584E+03  0.41800000000E+01 0.  1.
        -11    1    1    2    0    0  0.45063958556E+02 -0.14158661841E+02  0.28173359470E+03  0.28566597006E+03  0.00000000000E+00 0.  1.
         11    1    1    2    0    0  0.13744705408E+02  0.16038898238E+02  0.59660587545E+01  0.21948964451E+02  0.00000000000E+00 0. -1.
</event>
<event>
 7    1  0.3056346E-009  0.9081773E+02  0.7561462E-02  0.1300883E+00
          2   -1    0    0  501    0  0.00000000000E+00  0.00000000000E+00  0.17803679911E+04  0.17803679911E+04  0.00000000000E+00 0.  1.
         -2   -1    0    0    0  501 -0.00000000000E+00 -0.00000000000E+00 -0.10449621024E+02  0.10449621024E+02  0.00000000000E+00 0. -1.
         25    2    1    2    0    0  0.28971674716E+02  0.73650344666E+01  0.14726213768E+04  0.14782265481E+04  0.12508559679E+03 0.  0.
          5    1    3    3  502    0  0.52536393401E+02  0.23746789715E+02  0.13791104416E+04  0.13803213630E+04  0.41800000000E+01 0.  1.
         -5    1    3    3    0  502 -0.23564718684E+02 -0.16381755249E+02  0.93510935207E+02  0.97905185128E+02  0.41800000000E+01 0.  1.
        -11    1    1    2    0    0 -0.23509317965E+02  0.40404946656E+02  0.17626360007E+03  0.18235707953E+03  0.00000000000E+00 0.  1.
         11    1    1    2    0    0 -0.54623567515E+01 -0.47769981122E+02  0.12103339322E+03  0.13023398448E+03  0.00000000000E+00 0. -1.
</event>
<event>
 7    1  0.3056346E-009  0.1160309E+03  0.7561462E-02  0.1249792E+00
          1   -1    0    0  501    0  0.00000000000E+00  0.00000000000E+00  0.15308063584E+03  0.15308063584E+03  0.00000000000E+00 0. -1.
         -1   -1    0    0    0  501 -0.00000000000E+00 -0.00000000000E+00 -0.21899677071E+03  0.21899677071E+03  0.00000000000E+00 0.  1.
         25    2    1    2    0    0  0.37392388699E+02 -0.42542289737E+02  0.10357774306E+03  0.17199642343E+03  0.12508550543E+03 0.  0.
          5    1    3    3  502    0 -0.43022073625E+02 -0.16118673730E+02  0.62868219004E+02  0.77978175296E+02  0.41800000000E+01 0. -1.
         -5    1    3    3    0  502  0.80414462324E+02 -0.26423616008E+02  0.40709524052E+02  0.94018248135E+02  0.41800000000E+01 0. -1.
        -11    1    1    2    0    0 -0.46084515882E+02 -0.10637571234E+02 -0.11041713834E+03  0.12012029373E+03  0.00000000000E+00 0.  1.
         11    1    1    2    0    0  0.86921271832E+01  0.53179860971E+02 -0.59076739589E+02  0.79960689394E+02  0.00000000000E+00 0. -1.
</event>
<event>
 7    1  0.3056346E-009  0.7972131E+02  0.7561462E-02  0.1329844E+00
         -2   -1    0    0    0  501 -0.00000000000E+00  0.00000000000E+00  0.84586145451E+02  0.84586145451E+02  0.00000000000E+00 0.  1.
          2   -1    0    0  501    0  0.00000000000E+00 -0.00000000000E+00 -0.20078319914E+03  0.20078319914E+03  0.00000000000E+00 0. -1.
         25    2    1    2    0    0  0.46757120895E+01  0.39536824530E+02 -0.12672154654E+03  0.18245852295E+03  0.12509092478E+03 0.  0.
          5    1    3    3  502    0  0.31894459333E+02  0.62699659115E+02 -0.12836590415E+03  0.14643695414E+03  0.41800000000E+01 0.  1.
         -5    1    3    3    0  502 -0.27218747244E+02 -0.23162834585E+02  0.16443576158E+01  0.36021568809E+02  0.41800000000E+01 0.  1.
        -11    1    1    2    0    0 -0.17086128195E+02 -0.75518033934E+01  0.48356359759E+02  0.51839203701E+02  0.00000000000E+00 0.  1.
         11    1    1    2    0    0  0.12410416105E+02 -0.31985021137E+02 -0.37831866914E+02  0.51071617942E+02  0.00000000000E+00 0. -1.
</event>
<event>
 7    1  0.3056346E-009  0.1692847E+03  0.7561462E-02  0.1178596E+00
         -1   -1    0    0    0  501 -0.00000000000E+00  0.00000000000E+00  0.99391906830E+03  0.99391906830E+03  0.00000000000E+00 0. -1.
          1   -1    0    0  501    0  0.00000000000E+00 -0.00000000000E+00 -0.38842535938E+02  0.38842535938E+02  0.00000000000E+00 0.  1.
         25    2    1    2    0    0 -0.10351482478E+03 -0.11758998041E+03  0.62761576413E+03  0.65885729390E+03  0.12509461981E+03 0.  0.
          5    1    3    3  502    0  0.61414411061E+01 -0.20263138161E+02  0.95066663101E+01  0.23583069591E+02  0.41800000000E+01 0.  1.
         -5    1    3    3    0  502 -0.10965626589E+03 -0.97326842246E+02  0.61810909782E+03  0.63527422431E+03  0.41800000000E+01 0.  1.
        -11    1    1    2    0    0  0.88047928295E+02  0.50589594933E+02  0.25264544905E+03  0.27228930885E+03  0.00000000000E+00 0. -1.
         11    1    1    2    0    0  0.15466896487E+02  0.67000385474E+02  0.74815319182E+02  0.10161500148E+03  0.00000000000E+00 0.  1.
</event>
<event>
 7    1  0.3056346E-009  0.1584369E+03  0.7561462E-02  0.1190473E+00
         -2   -1    0    0    0  501 -0.00000000000E+00  0.00000000000E+00  0.78985436300E+02  0.78985436300E+02  0.00000000000E+00 0.  1.
          2   -1    0    0  501    0  0.00000000000E+00 -0.00000000000E+00 -0.31854237099E+03  0.31854237099E+03  0.00000000000E+00 0. -1.
         25    2    1    2    0    0  0.10145883783E+03 -0.55420804253E+02 -0.13785016089E+03  0.21912399554E+03  0.12508915719E+03 0.  0.
          5    1    3    3  502    0  0.98645079898E+02  0.14855890997E+02 -0.82804052665E+02  0.12971327158E+03  0.41800000000E+01 0.  1.
         -5    1    3    3    0  502  0.28137579355E+01 -0.70276695250E+02 -0.55046108225E+02  0.89410723963E+02  0.41800000000E+01 0.  1.
        -11    1    1    2    0    0 -0.19407689367E+02 -0.25021369752E+02 -0.22293825587E+02  0.38726502684E+02  0.00000000000E+00 0.  1.
         11    1    1    2    0    0 -0.82051148466E+02  0.80442174005E+02 -0.79412948209E+02  0.13967730906E+03  0.00000000000E+00 0. -1.
</event>
<event>
 7    1  0.3056346E-009  0.1154045E+03  0.7561462E-02  0.1250877E+00
          1   -1    0    0  501    0  0.00000000000E+00  0.00000000000E+00  0.93894189446E+03  0.93894189446E+03  0.00000000000E+00 0. -1.
         -1   -1    0    0    0  501 -0.00000000000E+00 -0.00000000000E+00 -0.18534055639E+02  0.18534055639E+02  0.00000000000E+00 0.  1.
         25    2    1    2    0    0  0.69727508363E+02  0.21854581223E+02  0.59276491484E+03  0.61020748625E+03  0.12507351386E+03 0.  0.
          5    1    3    3  502    0  0.38786436953E+01 -0.38734961711E+02  0.33582275431E+03  0.33809737628E+03  0.41800000000E+01 0.  1.
         -5    1    3    3    0  502  0.65848864668E+02  0.60589542934E+02  0.25694216053E+03  0.27211010997E+03  0.41800000000E+01 0.  1.
        -11    1    1    2    0    0 -0.36811791892E+02  0.25229319228E+02  0.67932782701E+02  0.81280314569E+02  0.00000000000E+00 0.  1.
         11    1    1    2    0    0 -0.32915716471E+02 -0.47083900451E+02  0.25971014128E+03  0.26598814928E+03  0.00000000000E+00 0. -1.
</event>
<event>
 7    1  0.3056346E-009  0.2500888E+03  0.7561462E-02  0.1113249E+00
         -2   -1    0    0    0  501 -0.00000000000E+00  0.00000000000E+00  0.99457966407E+02  0.99457966407E+02  0.00000000000E+00 0. -1.
          2   -1    0    0  501    0  0.00000000000E+00 -0.00000000000E+00 -0.77093354021E+03  0.77093354021E+03  0.00000000000E+00 0.  1.
         25    2    1    2    0    0 -0.23495438964E+03  0.68625866538E+02 -0.23602455872E+03  0.36230900692E+03  0.12508856625E+03 0.  0.
          5    1    3    3  502    0 -0.11477606862E+03  0.71086700626E+02 -0.19088665721E+03  0.23384194071E+03  0.41800000000E+01 0. -1.
         -5    1    3    3    0  502 -0.12017832102E+03 -0.24608340872E+01 -0.45137901506E+02  0.12846706621E+03  0.41800000000E+01 0. -1.
        -11    1    1    2    0    0  0.98924664878E+02 -0.31645855263E+02 -0.99838623093E+02  0.14406699878E+03  0.00000000000E+00 0. -1.
         11    1    1    2    0    0  0.13602972476E+03 -0.36980011275E+02 -0.33561239199E+03  0.36401550092E+03  0.00000000000E+00 0.  1.
</event>
<event>
 7    1  0.3151126E-009  0.1511620E+03  0.7561462E-02  0.1199052E+00
          2   -1    0    0  501    0  0.00000000000E+00  0.00000000000E+00  0.18230232663E+03  0.18230232663E+03  0.00000000000E+00 0. -1.
         -2   -1    0    0    0  501 -0.00000000000E+00 -0.00000000000E+00 -0.13769602013E+03  0.13769602013E+03  0.00000000000E+00 0.  1.
         25    2    1    2    0    0 -0.58691495577E+02 -0.98224421401E+02  0.35961464102E+02  0.17330259323E+03  0.12509129989E+03 0.  0.
          5    1    3    3  502    0  0.20601817623E+02 -0.76188504585E+02  0.44084454114E+02  0.90498810019E+02  0.41800000000E+01 0. -1.
         -5    1    3    3    0  502 -0.79293313200E+02 -0.22035916816E+02 -0.81229900126E+01  0.82803783216E+02  0.41800000000E+01 0. -1.
        -11    1    1    2    0    0  0.75939812234E+02  0.53343449420E+02  0.24649586427E+02  0.96020731039E+02  0.00000000000E+00 0. -1.
         11    1    1    2    0    0 -0.17248316657E+02  0.44880971981E+02 -0.16004744028E+02  0.50675022495E+02  0.00000000000E+00 0.  1.
</event>
<event>
 7    1  0.3056346E-009  0.1083745E+03  0.7561462E-02  0.1263610E+00
         -2   -1    0    0    0  501 -0.00000000000E+00  0.00000000000E+00  0.21613543426E+02  0.21613543426E+02  0.00000000000E+00 0.  1.
          2   -1    0    0  501    0  0.00000000000E+00 -0.00000000000E+00 -0.60594942812E+03  0.60594942812E+03  0.00000000000E+00 0. -1.
         25    2    1    2    0    0  0.20186323887E+02  0.28531552258E+02 -0.38708045374E+03  0.40828950415E+03  0.12508998514E+03 0.  0.
          5    1    3    3  502    0 -0.47608868738E+02  0.22410580633E+02 -0.24587351549E+03  0.25147583686E+03  0.41800000000E+01 0. -1.
         -5    1    3    3    0  502  0.67795192625E+02  0.61209716251E+01 -0.14120693826E+03  0.15681366729E+03  0.41800000000E+01 0. -1.
        -11    1    1    2    0    0 -0.36606447780E+02  0.21947580405E+02 -0.88583670924E+02  0.98330031319E+02  0.00000000000E+00 0.  1.
         11    1    1    2    0    0  0.16420123893E+02 -0.50479132663E+02 -0.10867176003E+03  0.12094343608E+03  0.00000000000E+00 0. -1.
</event>
<event>
 7    1  0.3056346E-009  0.1256591E+03  0.7561462E-02  0.1234043E+00
         -2   -1    0    0    0  501 -0.00000000000E+00  0.00000000000E+00  0.10118601805E+03  0.10118601805E+03  0.00000000000E+00 0.  1.
          2   -1    0    0  501    0  0.00000000000E+00 -0.00000000000E+00 -0.24736634356E+03  0.24736634356E+03  0.00000000000E+00 0. -1.
         25    2    1    2    0    0 -0.13758424109E+02 -0.93664438286E+02 -0.14836892899E+03  0.21592416956E+03  0.12509031408E+03 0.  0.
          5    1    3    3  502    0  0.45046654971E+02 -0.85721894427E+01 -0.17962395781E+02  0.49424726789E+02  0.41800000000E+01 0.  1.
         -5    1    3    3    0  502 -0.58805079081E+02 -0.85092248843E+02 -0.13040653321E+03  0.16649944277E+03  0.41800000000E+01 0.  1.
        -11    1    1    2    0    0 -0.11069174808E+02  0.52725855937E+02 -0.41349327060E+02  0.67913985036E+02  0.00000000000E+00 0. -1.
         11    1    1    2    0    0  0.24827598917E+02  0.40938582349E+02  0.43537930544E+02  0.64714207009E+02  0.00000000000E+00 0.  1.
</event>
<event>
 7    1  0.3056346E-009  0.9718828E+02  0.7561462E-02  0.1286322E+00
          2   -1    0    0  501    0  0.00000000000E+00  0.00000000000E+00  0.36881634875E+02  0.36881634875E+02  0.00000000000E+00 0. -1.
         -2   -1    0    0    0  501 -0.00000000000E+00 -0.00000000000E+00 -0.37328711346E+03  0.37328711346E+03  0.00000000000E+00 0.  1.
         25    2    1    2    0    0  0.31245969181E+02  0.34650735070E+02 -0.20266011593E+03  0.24268379128E+03  0.12508923187E+03 0.  0.
          5    1    3    3  502    0  0.19924577502E+02  0.66400989102E+02 -0.48213875675E+02  0.84546616431E+02  0.41800000000E+01 0.  1.
         -5    1    3    3    0  502  0.11321391678E+02 -0.31750254032E+02 -0.15444624026E+03  0.15813717485E+03  0.41800000000E+01 0.  1.
        -11    1    1    2    0    0 -0.18310049326E+02  0.24400656049E+02 -0.83433542962E+02  0.88835837437E+02  0.00000000000E+00 0.  1.
         11    1    1    2    0    0 -0.12935919855E+02 -0.59051391119E+02 -0.50311819691E+02  0.78649119615E+02  0.00000000000E+00 0. -1.
</event>
<event>
 7    1  0.3056346E-009  0.1539319E+03  0.7561462E-02  0.1195723E+00
          1   -1    0    0  501    0  0.00000000000E+00  0.00000000000E+00  0.19507999522E+04  0.19507999522E+04  0.00000000000E+00 0.  1.
         -1   -1    0    0    0  501 -0.00000000000E+00 -0.00000000000E+00 -0.16415489615E+02  0.16415489615E+02  0.00000000000E+00 0. -1.
         25    2    1    2    0    0  0.10093133544E+02 -0.11811718280E+03  0.14510837853E+04  0.14612818049E+04  0.12508725429E+03 0.  0.
          5    1    3    3  502    0  0.27148964471E+02  0.11775631527E+02  0.53899232438E+03  0.53982027556E+03  0.41800000000E+01 0. -1.
         -5    1    3    3    0  502 -0.17055830927E+02 -0.12989281433E+03  0.91209146090E+03  0.92146152933E+03  0.41800000000E+01 0. -1.
        -11    1    1    2    0    0 -0.47307581291E+02  0.84055344193E+02  0.36034455428E+03  0.37303016759E+03  0.00000000000E+00 0.  1.
         11    1    1    2    0    0  0.37214447747E+02  0.34061838612E+02  0.12295612302E+03  0.13290346932E+03  0.00000000000E+00 0. -1.
</event>
<event>
 7    1  0.3056346E-009  0.9405286E+02  0.7561462E-02  0.1293324E+00
         -2   -1    0    0    0  501 -0.00000000000E+00  0.00000000000E+00  0.15316137594E+02  0.15316137594E+02  0.00000000000E+00 0.  1.
          2   -1    0    0  501    0  0.00000000000E+00 -0.00000000000E+00 -0.99728122389E+03  0.99728122389E+03  0.00000000000E+00 0. -1.
         25    2    1    2    0    0 -0.16644740973E+02  0.79086225886E+01 -0.78105302010E+03  0.79122103614E+03  0.12508922465E+03 0.  0.
          5    1    3    3  502    0 -0.17448696976E+02 -0.52985075665E+02 -0.52594256919E+03  0.52890919235E+03  0.41800000000E+01 0. -1.
         -5    1    3    3    0  502  0.80395600249E+00  0.60893698253E+02 -0.25511045091E+03  0.26231184379E+03  0.41800000000E+01 0. -1.
        -11    1    1    2    0    0 -0.23965040053E+02 -0.17156773123E+02 -0.19727241340E+02  0.35466069131E+02  0.00000000000E+00 0.  1.
         11    1    1    2    0    0  0.40609781026E+02  0.92481505349E+01 -0.18118482486E+03  0.18591025621E+03  0.00000000000E+00 0. -1.
</event>
<event>
 7    1  0.3056346E-009  0.9502389E+02  0.7561462E-02  0.1291122E+00
          2   -1    0    0  501    0  0.00000000000E+00  0.00000000000E+00  0.42321553032E+03  0.42321553032E+03  0.00000000000E+00 0.  1.
         -2   -1    0    0    0  501 -0.00000000000E+00 -0.00000000000E+00 -0.44880162971E+02  0.44880162971E+02  0.00000000000E+00 0. -1.
         25    2    1    2    0    0  0.36255633484E+02  0.75992655361E+01  0.73295487169E+02  0.14961752432E+03  0.12506380511E+03 0.  0.
          5    1    3    3  502    0  0.81863002590E+01  0.61696708596E+02  0.12868294061E+02  0.63691167013E+02  0.41800000000E+01 0.  1.
         -5    1    3    3    0  502  0.28069333225E+02 -0.54097443060E+02  0.60427193107E+02  0.85926357308E+02  0.41800000000E+01 0.  1.
        -11    1    1    2    0    0 -0.51181280154E+02 -0.68355219684E+01  0.29710208270E+03  0.30155579143E+03  0.00000000000E+00 0.  1.
         11    1    1    2    0    0  0.14925646670E+02 -0.76374356764E+00  0.79377974769E+01  0.16922377538E+02  0.00000000000E+00 0. -1.
</event>
<event>
 7    1  0.3056346E-009  0.1200049E+03  0.7561462E-02  0.1243089E+00
         -2   -1    0    0    0  501 -0.00000000000E+00  0.00000000000E+00  0.99812864712E+01  0.99812864712E+01  0.00000000000E+00 0.  1.
          2   -1    0    0  501    0  0.00000000000E+00 -0.00000000000E+00 -0.25997065498E+04  0.25997065498E+04  0.00000000000E+00 0. -1.
         25    2    1    2    0    0 -0.31891846172E+02  0.56742400597E+02 -0.21918532803E+04  0.21963844298E+04  0.12508785492E+03 0.  0.
          5    1    3    3  502    0 -0.45084898516E+02 -0.29140567682E+02 -0.78565073206E+03  0.78749372438E+03  0.41800000000E+01 0.  1.
         -5    1    3    3    0  502  0.13193052345E+02  0.85882968279E+02 -0.14062025482E+04  0.14088907054E+04  0.41800000000E+01 0.  1.
        -11    1    1    2    0    0  0.48860008400E+02 -0.10581054700E+02 -0.10455956850E+03  0.11589634379E+03  0.00000000000E+00 0.  1.
         11    1    1    2    0    0 -0.16968162229E+02 -0.46161345898E+02 -0.29331241452E+03  0.29740706262E+03  0.00000000000E+00 0. -1.
</event>
<event>
 7    1  0.3056346E-009  0.3907904E+03  0.7561462E-02  0.1047016E+00
          1   -1    0    0  501    0  0.00000000000E+00  0.00000000000E+00  0.30632969345E+03  0.30632969345E+03  0.00000000000E+00 0. -1.
         -1   -1    0    0    0  501 -0.00000000000E+00 -0.00000000000E+00 -0.13042893838E+04  0.13042893838E+04  0.00000000000E+00 0.  1.
         25    2    1    2    0    0 -0.24821891571E+03 -0.28241273581E+03 -0.11338474308E+04  0.12010938341E+04  0.12508724361E+03 0.  0.
          5    1    3    3  502    0  0.12188172041E+02 -0.27006647402E+01 -0.54886541946E+02  0.56443334545E+02  0.41800000000E+01 0. -1.
         -5    1    3    3    0  502 -0.26040708776E+03 -0.27971207107E+03 -0.10789608888E+04  0.11446504995E+04  0.41800000000E+01 0. -1.
        -11    1    1    2    0    0  0.64865474073E+02  0.23551666657E+02  0.20807639346E+02  0.72077517883E+02  0.00000000000E+00 0. -1.
         11    1    1    2    0    0  0.18335344164E+03  0.25886106916E+03  0.11508010103E+03  0.33744772534E+03  0.00000000000E+00 0.  1.
</event>
<event>
 7    1  0.3056346E-009  0.1454747E+03  0.7561462E-02  0.1206147E+00
          1   -1    0    0  501    0  0.00000000000E+00  0.00000000000E+00  0.11040968306E+04  0.11040968306E+04  0.00000000000E+00 0. -1.
         -1   -1    0    0    0  501 -0.00000000000E+00 -0.00000000000E+00 -0.32988110837E+02  0.32988110837E+02  0.00000000000E+00 0.  1.
         25    2    1    2    0    0  0.10485612947E+03 -0.21577994644E+02  0.90093173388E+03  0.91585220411E+03  0.12508738121E+03 0.  0.
          5    1    3    3  502    0  0.57139847221E+02  0.51376199265E+02  0.45474663837E+03  0.46121193990E+03  0.41800000000E+01 0.  1.
         -5    1    3    3    0  502  0.47716282245E+02 -0.72954193908E+02  0.44618509550E+03  0.45464026422E+03  0.41800000000E+01 0.  1.
        -11    1    1    2    0    0 -0.42839147041E+02  0.43396165890E+02  0.33520777816E+02  0.69584928530E+02  0.00000000000E+00 0.  1.
         11    1    1    2    0    0 -0.62016982425E+02 -0.21818171246E+02  0.13665620803E+03  0.15164780875E+03  0.00000000000E+00 0. -1.
</event>
<event>
 7    1  0.3056346E-009  0.1040979E+03  0.7561462E-02  0.1271907E+00
         -2   -1    0    0    0  501 -0.00000000000E+00  0.00000000000E+00  0.14929550421E+02  0.14929550421E+02  0.00000000000E+00 0.  1.
          2   -1    0    0  501    0  0.00000000000E+00 -0.00000000000E+00 -0.10553540379E+04  0.10553540379E+04  0.00000000000E+00 0. -1.
         25    2    1    2    0    0 -0.10568735600E+02  0.24369885587E+02 -0.82307146239E+03  0.83294621442E+03  0.12508866627E+03 0.  0.
          5    1    3    3  502    0 -0.31509981533E+02 -0.38029173258E+02 -0.18672067212E+03  0.19318690108E+03  0.41800000000E+01 0.  1.
         -5    1    3    3    0  502  0.20941245933E+02  0.62399058845E+02 -0.63635079027E+03  0.63975931334E+03  0.41800000000E+01 0.  1.
        -11    1    1    2    0    0  0.45144377887E+02 -0.34311564342E+02 -0.15874274651E+03  0.16856618247E+03  0.00000000000E+00 0. -1.
         11    1    1    2    0    0 -0.34575642287E+02  0.99416787559E+01 -0.58610278630E+02  0.68771191476E+02  0.00000000000E+00 0.  1.
</event>
<event>
 7    1  0.3056346E-009  0.7748790E+02  0.7561462E-02  0.1336335E+00
         -1   -1    0    0    0  501 -0.00000000000E+00  0.00000000000E+00  0.93825158543E+02  0.93825158543E+02  0.00000000000E+00 0.  1.
          1   -1    0    0  501    0  0.00000000000E+00 -0.00000000000E+00 -0.17820014619E+03  0.17820014619E+03  0.00000000000E+00 0. -1.
         25    2    1    2    0    0 -0.63358205429E+01 -0.68903399299E+02 -0.37575317874E+02  0.14780852231E+03  0.12509050202E+03 0.  0.
          5    1    3    3  502    0 -0.13390763758E+02 -0.14860938556E+02 -0.77480926948E+02  0.80130683820E+02  0.41800000000E+01 0.  1.
         -5    1    3    3    0  502  0.70549432155E+01 -0.54042460743E+02  0.39905609074E+02  0.67677838489E+02  0.41800000000E+01 0.  1.
        -11    1    1    2    0    0 -0.16437194079E+02  0.19671833826E+02 -0.62660849674E+02  0.67701879421E+02  0.00000000000E+00 0. -1.
         11    1    1    2    0    0  0.22773014621E+02  0.49231565473E+02  0.15861179899E+02  0.56514903005E+02  0.00000000000E+00 0.  1.
</event>
<event>
 7    1  0.3056346E-009  0.1063594E+03  0.7561462E-02  0.1267464E+00
          2   -1    0    0  501    0  0.00000000000E+00  0.00000000000E+00  0.32798844825E+03  0.32798844825E+03  0.00000000000E+00 0. -1.
         -2   -1    0    0    0  501 -0.00000000000E+00 -0.00000000000E+00 -0.55644657973E+02  0.55644657973E+02  0.00000000000E+00 0.  1.
         25    2    1    2    0    0 -0.74506067193E+02 -0.69370251064E+00  0.19163324302E+03  0.24067231344E+03  0.12509287491E+03 0.  0.
          5    1    3    3  502    0 -0.79113652499E+02 -0.30054198451E+02  0.19284109711E+03  0.21063567122E+03  0.41800000000E+01 0.  1.
         -5    1    3    3    0  502  0.46075853069E+01  0.29360495940E+02 -0.12078540889E+01  0.30036642218E+02  0.41800000000E+01 0.  1.
        -11    1    1    2    0    0  0.36262636235E+02  0.32144393298E+02  0.21921092179E+00  0.48459146305E+02  0.00000000000E+00 0.  1.
         11    1    1    2    0    0  0.38243430957E+02 -0.31450690787E+02  0.80491336336E+02  0.94501646480E+02  0.00000000000E+00 0. -1.
</event>
<event>
 7    1  0.3056346E-009  0.1238071E+03  0.7561462E-02  0.1236946E+00
          2   -1    0    0  501    0  0.00000000000E+00  0.00000000000E+00  0.39531129832E+03  0.39531129832E+03  0.00000000000E+00 0. -1.
         -2   -1    0    0    0  501 -0.00000000000E+00 -0.00000000000E+00 -0.71793582063E+02  0.71793582063E+02  0.00000000000E+00 0.  1.
         25    2    1    2    0    0 -0.61788708588E+02 -0.94906500665E+02  0.24915350416E+03  0.30091495301E+03  0.12508897607E+03 0.  0.
          5    1    3    3  502    0 -0.42845547886E+02 -0.36319658356E+02  0.22925349324E+03  0.23607095357E+03  0.41800000000E+01 0. -1.
         -5    1    3    3    0  502 -0.18943160702E+02 -0.58586842309E+02  0.19900010922E+02  0.64843999444E+02  0.41800000000E+01 0. -1.
        -11    1    1    2    0    0  0.13105420332E+02  0.76364551852E+02  0.82820690577E+02  0.11341324265E+03  0.00000000000E+00 0. -1.
         11    1    1    2    0    0  0.48683288256E+02  0.18541948813E+02 -0.84564784817E+01  0.52776684715E+02  0.00000000000E+00 0.  1.
</event>
<event>
 7    1  0.3056346E-009  0.1607381E+03  0.7561462E-02  0.1187866E+00
         -1   -1    0    0    0  501 -0.00000000000E+00  0.00000000000E+00  0.46370215224E+02  0.46370215224E+02  0.00000000000E+00 0.  1.
          1   -1    0    0  501    0  0.00000000000E+00 -0.00000000000E+00 -0.75548008929E+03  0.75548008929E+03  0.00000000000E+00 0. -1.
         25    2    1    2    0    0  0.12152508493E+03 -0.24764995799E+02 -0.18524258982E+03  0.25562357631E+03  0.12508774680E+03 0.  0.
          5    1    3    3  502    0 -0.32694727193E+00 -0.43371816123E+02 -0.16458055027E+02  0.46578549823E+02  0.41800000000E+01 0. -1.
         -5    1    3    3    0  502  0.12185203220E+03  0.18606820324E+02 -0.16878453479E+03  0.20904502648E+03  0.41800000000E+01 0. -1.
        -11    1    1    2    0    0 -0.10511357591E+03 -0.19901243060E+02 -0.37219305715E+03  0.38726295344E+03  0.00000000000E+00 0.  1.
         11    1    1    2    0    0 -0.16411509019E+02  0.44666238858E+02 -0.15167422710E+03  0.15896377477E+03  0.00000000000E+00 0. -1.
</event>
<event>
 7    1  0.3056346E-009  0.1679987E+03  0.7561462E-02  0.1179951E+00
          1   -1    0    0  501    0  0.00000000000E+00  0.00000000000E+00  0.22233631253E+03  0.22233631253E+03  0.00000000000E+00 0. -1.
         -1   -1    0    0    0  501 -0.00000000000E+00 -0.00000000000E+00 -0.32053068643E+03  0.32053068643E+03  0.00000000000E+00 0.  1.
         25    2    1    2    0    0  0.10978673590E+03  0.78326954181E+02  0.15614444636E+03  0.24128313776E+03  0.12509286673E+03 0.  0.
          5    1    3    3  502    0 -0.26392045331E+02  0.27857535028E+02  0.35213538207E+02  0.52249861125E+02  0.41800000000E+01 0.  1.
         -5    1    3    3    0  502  0.13617878123E+03  0.50469419153E+02  0.12093090816E+03  0.18903327663E+03  0.41800000000E+01 0.  1.
        -11    1    1    2    0    0 -0.69161582829E+02 -0.86414662537E+02 -0.22522848567E+03  0.25095555224E+03  0.00000000000E+00 0.  1.
         11    1    1    2    0    0 -0.40625153072E+02  0.80877083560E+01 -0.29110334597E+02  0.50628308968E+02  0.00000000000E+00 0. -1.
</event>
<event>
 7    1  0.3056346E-009  0.9848840E+02  0.7561462E-02  0.1283507E+00
          1   -1    0    0  501    0  0.00000000000E+00  0.00000000000E+00  0.33474828230E+03  0.33474828230E+03  0.00000000000E+00 0. -1.
         -1   -1    0    0    0  501 -0.00000000000E+00 -0.00000000000E+00 -0.51132276406E+02  0.51132276406E+02  0.00000000000E+00 0.  1.
         25    2    1    2    0    0  0.32786409731E+02  0.26863648335E+01  0.25286424356E+03  0.28402243226E+03  0.12508497566E+03 0.  0.
          5    1    3    3  502    0 -0.40988986986E+02 -0.15189041729E+02  0.14881088577E+03  0.15515462019E+03  0.41800000000E+01 0. -1.
         -5    1    3    3    0  502  0.73775396717E+02  0.17875406562E+02  0.10405335779E+03  0.12886781207E+03  0.41800000000E+01 0. -1.
        -11    1    1    2    0    0  0.21285290888E+02  0.63626570782E+01 -0.17923216926E+02  0.28544504169E+02  0.00000000000E+00 0.  1.
         11    1    1    2    0    0 -0.54071700619E+02 -0.90490219117E+01  0.48674979262E+02  0.73313622278E+02  0.00000000000E+00 0. -1.
</event>
<event>
 7    1  0.3056346E-009  0.6735985E+02  0.7561462E-02  0.1369308E+00
         -1   -1    0    0    0  501 -0.00000000000E+00  0.00000000000E+00  0.83509363470E+02  0.83509363470E+02  0.00000000000E+00 0.  1.
          1   -1    0    0  501    0  0.00000000000E+00 -0.00000000000E+00 -0.16328534906E+03  0.16328534906E+03  0.00000000000E+00 0. -1.
         25    2    1    2    0    0  0.40399209824E+02  0.60018990298E+01 -0.62613046456E+02  0.14572712005E+03  0.12509149046E+03 0.  0.
          5    1    3    3  502    0  0.16617588279E+02  0.17020007628E+02  0.36141337985E+02  0.43468305823E+02  0.41800000000E+01 0. -1.
         -5    1    3    3    0  502  0.23781621546E+02 -0.11018108598E+02 -0.98754384441E+02  0.10225881423E+03  0.41800000000E+01 0. -1.
        -11    1    1    2    0    0 -0.62105105025E+02 -0.46529794440E+01  0.13255756301E+02  0.63674244110E+02  0.00000000000E+00 0.  1.
         11    1    1    2    0    0  0.21705895200E+02 -0.13489195858E+01 -0.30418695430E+02  0.37393348367E+02  0.00000000000E+00 0. -1.
</event>
<event>
 7    1  0.3413396E-009  0.1388568E+03  0.7561462E-02  0.1214876E+00
         -2   -1    0    0    0  501 -0.00000000000E+00  0.00000000000E+00  0.11510970888E+03  0.11510970888E+03  0.00000000000E+00 0.  1.
          2   -1    0    0  501    0  0.00000000000E+00 -0.00000000000E+00 -0.20514684356E+03  0.20514684356E+03  0.00000000000E+00 0. -1.
         25    2    1    2    0    0  0.97183352936E+02 -0.45693629729E+02 -0.62996955867E+02  0.17648837155E+03  0.12508803683E+03 0.  0.
          5    1    3    3  502    0  0.10624234516E+03  0.66345582436E+01 -0.20830456986E+02  0.10854876142E+03  0.41800000000E+01 0. -1.
         -5    1    3    3    0  502 -0.90589922191E+01 -0.52328187973E+02 -0.42166498881E+02  0.67939610129E+02  0.41800000000E+01 0. -1.
        -11    1    1    2    0    0 -0.24906714988E+02 -0.98234025150E+01  0.26827022516E+02  0.37901620355E+02  0.00000000000E+00 0.  1.
         11    1    1    2    0    0 -0.72276637948E+02  0.55517032244E+02 -0.53867201320E+02  0.10586656054E+03  0.00000000000E+00 0. -1.
</event>
<event>
 7    1  0.3219026E-009  0.7633256E+02  0.7561462E-02  0.1339793E+00
          2   -1    0    0  501    0  0.00000000000E+00  0.00000000000E+00  0.17559786557E+03  0.17559786557E+03  0.00000000000E+00 0. -1.
         -2   -1    0    0    0  501 -0.00000000000E+00 -0.00000000000E+00 -0.81932016577E+02  0.81932016577E+02  0.00000000000E+00 0.  1.
         25    2    1    2    0    0 -0.26930696496E+02  0.34684086428E+02  0.78959993838E+02  0.15431127487E+03  0.12509612568E+03 0.  0.
          5    1    3    3  502    0 -0.54650387867E+02 -0.96100356861E+01 -0.44211682904E+01  0.55821472651E+02  0.41800000000E+01 0. -1.
         -5    1    3    3    0  502  0.27719691370E+02  0.44294122114E+02  0.83381162128E+02  0.98489802220E+02  0.41800000000E+01 0. -1.
        -11    1    1    2    0    0  0.98977532872E+01 -0.19103039810E+02 -0.39123026685E+02  0.44648660306E+02  0.00000000000E+00 0.  1.
         11    1    1    2    0    0  0.17032943209E+02 -0.15581046618E+02  0.53828881841E+02  0.58569946972E+02  0.00000000000E+00 0. -1.
</event>
<event>
 7    1  0.3056346E-009  0.1303434E+03  0.7561462E-02  0.1226947E+00
         -2   -1    0    0    0  501 -0.00000000000E+00  0.00000000000E+00  0.85040009337E+02  0.85040009337E+02  0.00000000000E+00 0. -1.
          2   -1    0    0  501    0  0.00000000000E+00 -0.00000000000E+00 -0.23955954442E+03  0.23955954442E+03  0.00000000000E+00 0.  1.
         25    2    1    2    0    0  0.76785327310E+02 -0.46171630440E+02 -0.11461154477E+03  0.19186196938E+03  0.12508958052E+03 0.  0.
          5    1    3    3  502    0 -0.22382431408E+02  0.80235912461E+01  0.76439156210E+01  0.25322975699E+02  0.41800000000E+01 0. -1.
         -5    1    3    3    0  502  0.99167758718E+02 -0.54195221686E+02 -0.12225546039E+03  0.16653899369E+03  0.41800000000E+01 0. -1.
        -11    1    1    2    0    0 -0.24261650639E+02 -0.25108946128E+02  0.15938798136E+01  0.34951785652E+02  0.00000000000E+00 0.  1.
         11    1    1    2    0    0 -0.52523676670E+02  0.71280576568E+02 -0.41501870124E+02  0.97785798717E+02  0.00000000000E+00 0. -1.
</event>
<event>
 7    1  0.3056346E-009  0.9463965E+02  0.7561462E-02  0.1291990E+00
          2   -1    0    0  501    0  0.00000000000E+00  0.00000000000E+00  0.11313290487E+03  0.11313290487E+03  0.00000000000E+00 0. -1.
         -2   -1    0    0    0  501 -0.00000000000E+00 -0.00000000000E+00 -0.11066427841E+03  0.11066427841E+03  0.00000000000E+00 0.  1.
         25    2    1    2    0    0  0.50159656324E+01  0.65476532154E+01 -0.29264221430E+02  0.12872880416E+03  0.12508668471E+03 0.  0.
          5    1    3    3  502    0  0.49172788198E+02  0.24456640528E+02 -0.52018255478E+02  0.75759234870E+02  0.41800000000E+01 0. -1.
         -5    1    3    3    0  502 -0.44156822566E+02 -0.17908987313E+02  0.22754034048E+02  0.52969569294E+02  0.41800000000E+01 0. -1.
        -11    1    1    2    0    0 -0.32291114828E+02  0.27729520998E+02  0.29748503475E+01  0.42667225902E+02  0.00000000000E+00 0. -1.
         11    1    1    2    0    0  0.27275149195E+02 -0.34277174213E+02  0.28757997536E+02  0.52401153212E+02  0.00000000000E+00 0.  1.
</event>
<event>
 7    1  0.3056346E-009  0.1057478E+03  0.7561462E-02  0.1268653E+00
         -2   -1    0    0    0  501 -0.00000000000E+00  0.00000000000E+00  0.54451829449E+02  0.54451829449E+02  0.00000000000E+00 0. -1.
          2   -1    0    0  501    0  0.00000000000E+00 -0.00000000000E+00 -0.20641478997E+03  0.20641478997E+03  0.00000000000E+00 0.  1.
         25    2    1    2    0    0 -0.84022950866E+01 -0.64611966410E+01 -0.93296900951E+02  0.15640857732E+03  0.12508791191E+03 0.  0.
          5    1    3    3  502    0 -0.52844130286E+02 -0.42652207678E+02 -0.48814322662E+02  0.83737825518E+02  0.41800000000E+01 0.  1.
         -5    1    3    3    0  502  0.44441835200E+02  0.36191011037E+02 -0.44482578288E+02  0.72670751798E+02  0.41800000000E+01 0.  1.
        -11    1    1    2    0    0  0.41640993903E+02 -0.17342997136E+02 -0.25524813250E+02  0.51829219697E+02  0.00000000000E+00 0.  1.
         11    1    1    2    0    0 -0.33238698817E+02  0.23804193777E+02 -0.33141246325E+02  0.52628822411E+02  0.00000000000E+00 0. -1.
</event>
<event>
 7    1  0.3056346E-009  0.1069361E+03  0.7561462E-02  0.1266351E+00
          1   -1    0    0  501    0  0.00000000000E+00  0.00000000000E+00  0.13251051113E+03  0.13251051113E+03  0.00000000000E+00 0. -1.
         -1   -1    0    0    0  501 -0.00000000000E+00 -0.00000000000E+00 -0.12961887832E+03  0.12961887832E+03  0.00000000000E+00 0.  1.
         25    2    1    2    0    0 -0.25245444998E+02  0.68946814514E+02 -0.13153930097E+01  0.14505080520E+03  0.12508800944E+03 0.  0.
          5    1    3    3  502    0  0.97653131647E+01  0.95373328577E+02 -0.18545089100E+02  0.97738558792E+02  0.41800000000E+01 0. -1.
         -5    1    3    3    0  502 -0.35010758163E+02 -0.26426514063E+02  0.17229696091E+02  0.47312246407E+02  0.41800000000E+01 0. -1.
        -11    1    1    2    0    0  0.71273623666E+01 -0.30813406990E+02 -0.43237162433E+02  0.53569744818E+02  0.00000000000E+00 0.  1.
         11    1    1    2    0    0  0.18118082632E+02 -0.38133407523E+02  0.47444188256E+02  0.63508839439E+02  0.00000000000E+00 0. -1.
</event>
<event>
 7    1  0.3056346E-009  0.1342031E+03  0.7561462E-02  0.1221349E+00
          2   -1    0    0  501    0  0.00000000000E+00  0.00000000000E+00  0.68548678075E+02  0.68548678075E+02  0.00000000000E+00 0. -1.
         -2   -1    0    0    0  501 -0.00000000000E+00 -0.00000000000E+00 -0.38268902097E+03  0.38268902097E+03  0.00000000000E+00 0.  1.
         25    2    1    2    0    0  0.63247767430E+02 -0.75346619173E+02 -0.70315509144E+02  0.17398139287E+03  0.12509141112E+03 0.  0.
          5    1    3    3  502    0  0.13384237751E+02  0.33921911601E+02 -0.29394001109E+02  0.47024606410E+02  0.41800000000E+01 0.  1.
         -5    1    3    3    0  502  0.49863529679E+02 -0.10926853077E+03 -0.40921508036E+02  0.12695678646E+03  0.41800000000E+01 0.  1.
        -11    1    1    2    0    0 -0.49006134140E+02  0.17644135345E+02 -0.42143640558E+02  0.67000023395E+02  0.00000000000E+00 0.  1.
         11    1    1    2    0    0 -0.14241633290E+02  0.57702483828E+02 -0.20168119319E+03  0.21025628277E+03  0.00000000000E+00 0. -1.
</event>
<event>
 7    1  0.3056346E-009  0.8924740E+02  0.7561462E-02  0.1304685E+00
          2   -1    0    0  501    0  0.00000000000E+00  0.00000000000E+00  0.46085752749E+03  0.46085752749E+03  0.00000000000E+00 0. -1.
         -2   -1    0    0    0  501 -0.00000000000E+00 -0.00000000000E+00 -0.27168271897E+02  0.27168271897E+02  0.00000000000E+00 0.  1.
         25    2    1    2    0    0  0.30166684166E+02 -0.84872439291E+01  0.23472514353E+03  0.26781840445E+03  0.12509493442E+03 0.  0.
          5    1    3    3  502    0  0.56415437454E+02 -0.10257640822E+02  0.23422236952E+03  0.24117527145E+03  0.41800000000E+01 0.  1.
         -5    1    3    3    0  502 -0.26248753288E+02  0.17703968929E+01  0.50277401020E+00  0.26643132999E+02  0.41800000000E+01 0.  1.
        -11    1    1    2    0    0 -0.24379494214E+01 -0.39159797673E+02  0.82961233753E+02  0.91771453389E+02  0.00000000000E+00 0. -1.
         11    1    1    2    0    0 -0.27728734745E+02  0.47647041602E+02  0.11600287831E+03  0.12843594155E+03  0.00000000000E+00 0.  1.
</event>
<event>
 7    1  0.3056346E-009  0.6003539E+02  0.7561462E-02  0.1397683E+00
          1   -1    0    0  501    0  0.00000000000E+00  0.00000000000E+00  0.42505156648E+03  0.42505156648E+03  0.00000000000E+00 0. -1.
         -1   -1    0    0    0  501 -0.00000000000E+00 -0.00000000000E+00 -0.31755540470E+02  0.31755540470E+02  0.00000000000E+00 0.  1.
         25    2    1    2    0    0  0.11397842061E+02 -0.26924272914E+02  0.28385151878E+03  0.31155303955E+03  0.12505512570E+03 0.  0.
          5    1    3    3  502    0 -0.82726950062E+01 -0.24319002072E+02 -0.93816676604E+00  0.26042348230E+02  0.41800000000E+01 0. -1.
         -5    1    3    3    0  502  0.19670537068E+02 -0.26052708416E+01  0.28478968555E+03  0.28551069132E+03  0.41800000000E+01 0. -1.
        -11    1    1    2    0    0 -0.27033513749E+02 -0.13650439087E+02  0.94564443546E+02  0.99295414477E+02  0.00000000000E+00 0. -1.
         11    1    1    2    0    0  0.15635671688E+02  0.40574712001E+02  0.14880063682E+02  0.45958652921E+02  0.00000000000E+00 0.  1.
</event>
<event>
 7    1  0.3056346E-009  0.1730505E+03  0.7561462E-02  0.1174703E+00
         -2   -1    0    0    0  501 -0.00000000000E+00  0.00000000000E+00  0.22841957947E+03  0.22841957947E+03  0.00000000000E+00 0.  1.
          2   -1    0    0  501    0  0.00000000000E+00 -0.00000000000E+00 -0.16514923312E+03  0.16514923312E+03  0.00000000000E+00 0. -1.
         25    2    1    2    0    0 -0.95439908977E+02 -0.12975950411E+03  0.28626847811E+02  0.20594418867E+03  0.12508879765E+03 0.  0.
          5    1    3    3  502    0 -0.35807553955E+02 -0.14608176352E+02  0.60885964196E+02  0.72250624721E+02  0.41800000000E+01 0.  1.
         -5    1    3    3    0  502 -0.59632355022E+02 -0.11515132776E+03 -0.32259116385E+02  0.13369356395E+03  0.41800000000E+01 0.  1.
        -11    1    1    2    0    0  0.10721227944E+03  0.10510269933E+03  0.94086545550E+01  0.15043129012E+03  0.00000000000E+00 0.  1.
         11    1    1    2    0    0 -0.11772370461E+02  0.24656804789E+02  0.25234843983E+02  0.37193333805E+02  0.00000000000E+00 0. -1.
</event>
<event>
 7    1  0.3056346E-009  0.1291996E+03  0.7561462E-02  0.1228648E+00
          2   -1    0    0  501    0  0.00000000000E+00  0.00000000000E+00  0.14728266147E+03  0.14728266147E+03  0.00000000000E+00 0. -1.
         -2   -1    0    0    0  501 -0.00000000000E+00 -0.00000000000E+00 -0.17281849975E+03  0.17281849975E+03  0.00000000000E+00 0.  1.
         25    2    1    2    0    0  0.10261701229E+03 -0.28208293268E+02  0.34855330874E+02  0.16789771752E+03  0.12509512555E+03 0.  0.
          5    1    3    3  502    0  0.76624820175E+02  0.33708583088E+02  0.51779994960E+02  0.98520413715E+02  0.41800000000E+01 0. -1.
         -5    1    3    3    0  502  0.25992192115E+02 -0.61916876356E+02 -0.16924664086E+02  0.69377303803E+02  0.41800000000E+01 0. -1.
        -11    1    1    2    0    0 -0.23855548797E+02  0.12709993175E+02  0.23700734521E+02  0.35949352591E+02  0.00000000000E+00 0. -1.
         11    1    1    2    0    0 -0.78761463492E+02  0.15498300093E+02 -0.84091903675E+02  0.11625409112E+03  0.00000000000E+00 0.  1.
</event>
<event>
 7    1  0.3406995E-009  0.7108032E+02  0.7561462E-02  0.1356457E+00
         -3   -1    0    0    0  501 -0.00000000000E+00  0.00000000000E+00  0.94810851986E+02  0.94810851986E+02  0.00000000000E+00 0.  1.
          3   -1    0    0  501    0  0.00000000000E+00 -0.00000000000E+00 -0.14474641662E+03  0.14474641662E+03  0.00000000000E+00 0. -1.
         25    2    1    2    0    0  0.17572209073E+02 -0.16123368042E+02 -0.66611140383E+02  0.14371455334E+03  0.12509229908E+03 0.  0.
          5    1    3    3  502    0  0.20607059438E+02 -0.53238811474E+02  0.10300114429E+02  0.58160009484E+02  0.41800000000E+01 0. -1.
         -5    1    3    3    0  502 -0.30348503650E+01  0.37115443432E+02 -0.76911254811E+02  0.85554543857E+02  0.41800000000E+01 0. -1.
        -11    1    1    2    0    0 -0.11330285414E+02  0.30088000377E+02 -0.31673485494E+02  0.45131727394E+02  0.00000000000E+00 0. -1.
         11    1    1    2    0    0 -0.62419236590E+01 -0.13964632335E+02  0.48349061246E+02  0.50710987868E+02  0.00000000000E+00 0.  1.
</event>
<event>
 7    1  0.3056346E-009  0.8283657E+02  0.7561462E-02  0.1321189E+00
         -2   -1    0    0    0  501 -0.00000000000E+00  0.00000000000E+00  0.57645195490E+02  0.57645195490E+02  0.00000000000E+00 0.  1.
          2   -1    0    0  501    0  0.00000000000E+00 -0.00000000000E+00 -0.30764183937E+03  0.30764183937E+03  0.00000000000E+00 0. -1.
         25    2    1    2    0    0  0.67715499356E+02 -0.25891187461E+02 -0.17507289901E+03  0.22705424123E+03  0.12508943222E+03 0.  0.
          5    1    3    3  502    0  0.24031470310E+02  0.16876388112E+02 -0.16161859528E+03  0.16431788333E+03  0.41800000000E+01 0.  1.
         -5    1    3    3    0  502  0.43684029045E+02 -0.42767575573E+02 -0.13454303730E+02  0.62736357903E+02  0.41800000000E+01 0.  1.
        -11    1    1    2    0    0 -0.14887945896E+02  0.14316008714E+02  0.20149153573E+02  0.28854591111E+02  0.00000000000E+00 0.  1.
         11    1    1    2    0    0 -0.52827553460E+02  0.11575178747E+02 -0.95072898440E+02  0.10937820251E+03  0.00000000000E+00 0. -1.
</event>
<event>
 7    1  0.3056346E-009  0.1362143E+03  0.7561462E-02  0.1218516E+00
         -1   -1    0    0    0  501 -0.00000000000E+00  0.00000000000E+00  0.67696577221E+03  0.67696577221E+03  0.00000000000E+00 0.  1.
          1   -1    0    0  501    0  0.00000000000E+00 -0.00000000000E+00 -0.14373830545E+03  0.14373830545E+03  0.00000000000E+00 0. -1.
         25    2    1    2    0    0  0.77427840096E+02 -0.93682613637E+01  0.63937159979E+03  0.65614515392E+03  0.12509031000E+03 0.  0.
          5    1    3    3  502    0 -0.29463524963E+01  0.48188399387E+02  0.20705198673E+03  0.21264712656E+03  0.41800000000E+01 0.  1.
         -5    1    3    3    0  502  0.80374192592E+02 -0.57556660751E+02  0.43231961306E+03  0.44349802735E+03  0.41800000000E+01 0.  1.
        -11    1    1    2    0    0 -0.93773421669E+02  0.30225944217E+02 -0.90531882251E+02  0.13380240663E+03  0.00000000000E+00 0.  1.
         11    1    1    2    0    0  0.16345581574E+02 -0.20857682853E+02 -0.15612250772E+02  0.30756517117E+02  0.00000000000E+00 0. -1.
</event>
<event>
 7    1  0.3056346E-009  0.1098779E+03  0.7561462E-02  0.1260796E+00
         -1   -1    0    0    0  501 -0.00000000000E+00  0.00000000000E+00  0.10264154041E+03  0.10264154041E+03  0.00000000000E+00 0.  1.
          1   -1    0    0  501    0  0.00000000000E+00 -0.00000000000E+00 -0.12535402758E+03  0.12535402758E+03  0.00000000000E+00 0. -1.
         25    2    1    2    0    0  0.96619501968E+01  0.28809847457E+02  0.72143266285E+01  0.12893284881E+03  0.12509305497E+03 0.  0.
          5    1    3    3  502    0  0.15927996161E+02  0.77322286406E+02 -0.15058004384E+01  0.79070708051E+02  0.41800000000E+01 0.  1.
         -5    1    3    3    0  502 -0.62660459645E+01 -0.48512438948E+02  0.87201270670E+01  0.49862140756E+02  0.41800000000E+01 0.  1.
        -11    1    1    2    0    0  0.38639316958E+02 -0.13699315171E+02 -0.25455052201E+02  0.48255856988E+02  0.00000000000E+00 0. -1.
         11    1    1    2    0    0 -0.48301267155E+02 -0.15110532287E+02 -0.44717616005E+01  0.50806862200E+02  0.00000000000E+00 0.  1.
</event>
<event>
 7    1  0.3056346E-009  0.9375120E+02  0.7561462E-02  0.1294014E+00
         -2   -1    0    0    0  501 -0.00000000000E+00  0.00000000000E+00  0.21880237786E+02  0.21880237786E+02  0.00000000000E+00 0.  1.
          2   -1    0    0  501    0  0.00000000000E+00 -0.00000000000E+00 -0.59529042665E+03  0.59529042665E+03  0.00000000000E+00 0. -1.
         25    2    1    2    0    0  0.24046824559E+01  0.13443082121E+02 -0.40277573367E+03  0.42197435749E+03  0.12509023859E+03 0.  0.
          5    1    3    3  502    0 -0.39458146791E+02  0.46319470191E+02 -0.12466895601E+03  0.13878854297E+03  0.41800000000E+01 0.  1.
         -5    1    3    3    0  502  0.41862829247E+02 -0.32876388069E+02 -0.27810677765E+03  0.28318581451E+03  0.41800000000E+01 0.  1.
        -11    1    1    2    0    0 -0.15444047403E+02  0.26736089562E+02 -0.13909010118E+03  0.14247593949E+03  0.00000000000E+00 0.  1.
         11    1    1    2    0    0  0.13039364947E+02 -0.40179171683E+02 -0.31544354016E+02  0.52720367465E+02  0.00000000000E+00 0. -1.
</event>
<event>
 7    1  0.3056346E-009  0.1478331E+03  0.7561462E-02  0.1203161E+00
         -2   -1    0    0    0  501 -0.00000000000E+00  0.00000000000E+00  0.92944781550E+02  0.92944781550E+02  0.00000000000E+00 0.  1.
          2   -1    0    0  501    0  0.00000000000E+00 -0.00000000000E+00 -0.40904347160E+03  0.40904347160E+03  0.00000000000E+00 0. -1.
         25    2    1    2    0    0  0.56857694778E+02 -0.10106229625E+03 -0.22069846984E+02  0.17198368264E+03  0.12507966969E+03 0.  0.
          5    1    3    3  502    0  0.89748301609E+02 -0.60033503863E+02 -0.41523439248E+02  0.11576030250E+03  0.41800000000E+01 0. -1.
         -5    1    3    3    0  502 -0.32890606832E+02 -0.41028792387E+02  0.19453592264E+02  0.56223380141E+02  0.41800000000E+01 0. -1.
        -11    1    1    2    0    0  0.14919921057E+02  0.31736481146E+02 -0.15470589047E+03  0.15863076885E+03  0.00000000000E+00 0. -1.
         11    1    1    2    0    0 -0.71777615835E+02  0.69325815105E+02 -0.13932295259E+03  0.17137380165E+03  0.00000000000E+00 0.  1.
</event>
<event>
 7    1  0.3056346E-009  0.1010580E+03  0.7561462E-02  0.1278087E+00
          2   -1    0    0  501    0  0.00000000000E+00  0.00000000000E+00  0.16354488299E+02  0.16354488299E+02  0.00000000000E+00 0. -1.
         -2   -1    0    0    0  501 -0.00000000000E+00 -0.00000000000E+00 -0.73763356943E+03  0.73763356943E+03  0.00000000000E+00 0.  1.
         25    2    1    2    0    0 -0.10312174526E+02  0.24870795128E+02 -0.45647404795E+03  0.47406988120E+03  0.12509515747E+03 0.  0.
          5    1    3    3  502    0  0.47288513959E+02  0.35054114882E+02 -0.32203345065E+03  0.32739580062E+03  0.41800000000E+01 0. -1.
         -5    1    3    3    0  502 -0.57600688485E+02 -0.10183319755E+02 -0.13444059729E+03  0.14667408059E+03  0.41800000000E+01 0. -1.
        -11    1    1    2    0    0 -0.31283317409E+02 -0.29004225596E+02 -0.82438246988E+02  0.92822172012E+02  0.00000000000E+00 0. -1.
         11    1    1    2    0    0  0.41595491935E+02  0.41334304684E+01 -0.18236678619E+03  0.18709600451E+03  0.00000000000E+00 0.  1.
</event>
<event>
 7    1  0.3056346E-009  0.1165616E+03  0.7561462E-02  0.1248880E+00
          1   -1    0    0  501    0  0.00000000000E+00  0.00000000000E+00  0.24918999298E+02  0.24918999298E+02  0.00000000000E+00 0. -1.
         -1   -1    0    0    0  501 -0.00000000000E+00 -0.00000000000E+00 -0.64263640803E+03  0.64263640803E+03  0.00000000000E+00 0.  1.
         25    2    1    2    0    0 -0.57651220446E+02 -0.11131185511E+01 -0.27407751922E+03  0.30674303636E+03  0.12509157271E+03 0.  0.
          5    1    3    3  502    0 -0.35237197341E+02 -0.57366392085E+02 -0.19944947559E+03  0.21054721259E+03  0.41800000000E+01 0. -1.
         -5    1    3    3    0  502 -0.22414023105E+02  0.56253273533E+02 -0.74628043627E+02  0.96195823769E+02  0.41800000000E+01 0. -1.
        -11    1    1    2    0    0 -0.21005469539E+02  0.14030798059E+02 -0.43840480120E+02  0.50597240458E+02  0.00000000000E+00 0. -1.
         11    1    1    2    0    0  0.78656689985E+02 -0.12917679507E+02 -0.29979940940E+03  0.31021513051E+03  0.00000000000E+00 0.  1.
</event>
<event>
 7    1  0.3056346E-009  0.6583908E+02  0.7561462E-02  0.1374843E+00
         -2   -1    0    0    0  501 -0.00000000000E+00  0.00000000000E+00  0.57158447667E+03  0.57158447667E+03  0.00000000000E+00 0.  1.
          2   -1    0    0  501    0  0.00000000000E+00 -0.00000000000E+00 -0.23036527370E+02  0.23036527370E+02  0.00000000000E+00 0. -1.
         25    2    1    2    0    0  0.18231441413E+02  0.39037519766E+02  0.30513694120E+03  0.33258440954E+03  0.12509006028E+03 0.  0.
          5    1    3    3  502    0  0.17381578054E+02  0.29920514285E+02  0.31591805715E+03  0.31783493777E+03  0.41800000000E+01 0.  1.
         -5    1    3    3    0  502  0.84986335912E+00  0.91170054812E+01 -0.10781115947E+02  0.14749471779E+02  0.41800000000E+01 0.  1.
        -11    1    1    2    0    0 -0.47818620507E+02 -0.22269249934E+02  0.85168562530E+02  0.10018095629E+03  0.00000000000E+00 0.  1.
         11    1    1    2    0    0  0.29587179094E+02 -0.16768269833E+02  0.15824244556E+03  0.16185563820E+03  0.00000000000E+00 0. -1.
</event>
<event>
 7    1  0.3056346E-009  0.1458948E+03  0.7561462E-02  0.1205610E+00
         -2   -1    0    0    0  501 -0.00000000000E+00  0.00000000000E+00  0.86628389784E+02  0.86628389784E+02  0.00000000000E+00 0.  1.
          2   -1    0    0  501    0  0.00000000000E+00 -0.00000000000E+00 -0.27286305191E+03  0.27286305191E+03  0.00000000000E+00 0. -1.
         25    2    1    2    0    0 -0.87743417251E+02  0.58146494513E+02 -0.12830098611E+03  0.20781869036E+03  0.12509013923E+03 0.  0.
          5    1    3    3  502    0  0.23709509712E+02  0.44495401483E+02 -0.32244431850E+02  0.59992977833E+02  0.41800000000E+01 0.  1.
         -5    1    3    3    0  502 -0.11145292696E+03  0.13651093030E+02 -0.96056554259E+02  0.14782571253E+03  0.41800000000E+01 0.  1.
        -11    1    1    2    0    0  0.15785811446E+02 -0.54549309989E+02  0.36322820544E+01  0.56903537115E+02  0.00000000000E+00 0.  1.
         11    1    1    2    0    0  0.71957605804E+02 -0.35971845242E+01 -0.61565958073E+02  0.94769214216E+02  0.00000000000E+00 0. -1.
</event>
<event>
 7    1  0.3056346E-009  0.1093242E+03  0.7561462E-02  0.1261827E+00
         -2   -1    0    0    0  501 -0.00000000000E+00  0.00000000000E+00  0.40352496339E+02  0.40352496339E+02  0.00000000000E+00 0.  1.
          2   -1    0    0  501    0  0.00000000000E+00 -0.00000000000E+00 -0.38352149810E+03  0.38352149810E+03  0.00000000000E+00 0. -1.
         25    2    1    2    0    0 -0.96738224603E+01 -0.58185682409E+02 -0.18309517216E+03  0.22945534795E+03  0.12508700235E+03 0.  0.
          5    1    3    3  502    0 -0.21331121854E+02 -0.81837991700E+02 -0.18420412138E+03  0.20273407305E+03  0.41800000000E+01 0.  1.
         -5    1    3    3    0  502  0.11657299394E+02  0.23652309291E+02  0.11089492142E+01  0.26721274900E+02  0.41800000000E+01 0.  1.
        -11    1    1    2    0    0 -0.26257834475E+02 -0.11658555752E+02 -0.24602470878E+02  0.37824295986E+02  0.00000000000E+00 0.  1.
         11    1    1    2    0    0  0.35931656935E+02  0.69844238161E+02 -0.13547135872E+03  0.15659435050E+03  0.00000000000E+00 0. -1.
</event>
<event>
 7    1  0.3056346E-009  0.9695900E+02  0.7561462E-02  0.1286824E+00
         -2   -1    0    0    0  501 -0.00000000000E+00  0.00000000000E+00  0.30921217718E+02  0.30921217718E+02  0.00000000000E+00 0.  1.
          2   -1    0    0  501    0  0.00000000000E+00 -0.00000000000E+00 -0.56070231932E+03  0.56070231932E+03  0.00000000000E+00 0. -1.
         25    2    1    2    0    0 -0.54423759004E+02 -0.54446421216E+02 -0.27018878685E+03  0.30753064123E+03  0.12508699544E+03 0.  0.
          5    1    3    3  502    0 -0.57682666883E+02 -0.36449754241E+02 -0.45634507534E+02  0.82194010249E+02  0.41800000000E+01 0. -1.
         -5    1    3    3    0  502  0.32589078785E+01 -0.17996666975E+02 -0.22455427932E+03  0.22533663099E+03  0.41800000000E+01 0. -1.
        -11    1    1    2    0    0 -0.13489464124E+02 -0.70108822087E+01 -0.99264306813E+01  0.18156325008E+02  0.00000000000E+00 0.  1.
         11    1    1    2    0    0  0.67913223129E+02  0.61457303425E+02 -0.24966588406E+03  0.26593657079E+03  0.00000000000E+00 0. -1.
</event>
<event>
 7    1  0.3056346E-009  0.1023928E+03  0.7561462E-02  0.1275343E+00
         -1   -1    0    0    0  501 -0.00000000000E+00  0.00000000000E+00  0.36745478660E+03  0.36745478660E+03  0.00000000000E+00 0.  1.
          1   -1    0    0  501    0  0.00000000000E+00 -0.00000000000E+00 -0.39147434289E+02  0.39147434289E+02  0.00000000000E+00 0. -1.
         25    2    1    2    0    0 -0.10534339209E+02 -0.43188643298E+02  0.16753642083E+03  0.21375750035E+03  0.12509030912E+03 0.  0.
          5    1    3    3  502    0  0.38834644268E+02 -0.28778009094E+02  0.12130263235E+02  0.50009190045E+02  0.41800000000E+01 0. -1.
         -5    1    3    3    0  502 -0.49368983476E+02 -0.14410634204E+02  0.15540615760E+03  0.16374831030E+03  0.41800000000E+01 0. -1.
        -11    1    1    2    0    0  0.94415550168E-01 -0.30372609974E+02  0.31599473792E+02  0.43829568728E+02  0.00000000000E+00 0. -1.
         11    1    1    2    0    0  0.10439923658E+02  0.73561253272E+02  0.12917145768E+03  0.14901515181E+03  0.00000000000E+00 0.  1.
</event>
<event>
 7    1  0.3056346E-009  0.1411058E+03  0.7561462E-02  0.1211849E+00
         -2   -1    0    0    0  501 -0.00000000000E+00  0.00000000000E+00  0.29556859482E+02  0.29556859482E+02  0.00000000000E+00 0. -1.
          2   -1    0    0  501    0  0.00000000000E+00 -0.00000000000E+00 -0.10087191798E+04  0.10087191798E+04  0.00000000000E+00 0.  1.
         25    2    1    2    0    0 -0.10320023557E+03 -0.29159152613E+02 -0.74664929561E+03  0.76461302217E+03  0.12508940099E+03 0.  0.
          5    1    3    3  502    0 -0.94594424066E+02  0.16048202941E+02 -0.28689333199E+03  0.30254075134E+03  0.41800000000E+01 0. -1.
         -5    1    3    3    0  502 -0.86058115079E+01 -0.45207355554E+02 -0.45975596361E+03  0.46207227083E+03  0.41800000000E+01 0. -1.
        -11    1    1    2    0    0  0.52353900964E+02 -0.31277463789E+02 -0.13530599921E+03  0.14841470315E+03  0.00000000000E+00 0.  1.
         11    1    1    2    0    0  0.50846334610E+02  0.60436616402E+02 -0.97207025510E+02  0.12524831398E+03  0.00000000000E+00 0. -1.
</event>
<event>
 7    1  0.3056346E-009  0.1367544E+03  0.7561462E-02  0.1217764E+00
          1   -1    0    0  501    0  0.00000000000E+00  0.00000000000E+00  0.16065259371E+03  0.16065259371E+03  0.00000000000E+00 0. -1.
         -1   -1    0    0    0  501 -0.00000000000E+00 -0.00000000000E+00 -0.24162807775E+03  0.24162807775E+03  0.00000000000E+00 0.  1.
         25    2    1    2    0    0 -0.11305181644E+03  0.20552751222E+02  0.77089792930E+02  0.18653101686E+03  0.12509138777E+03 0.  0.
          5    1    3    3  502    0 -0.89550439703E+01 -0.25338773886E+02 -0.22483596141E+02  0.35287827505E+02  0.41800000000E+01 0.  1.
         -5    1    3    3    0  502 -0.10409677247E+03  0.45891525109E+02  0.99573389071E+02  0.15124318935E+03  0.41800000000E+01 0.  1.
        -11    1    1    2    0    0  0.12074462511E+02 -0.28728476166E+02 -0.85869021085E+02  0.91348819204E+02  0.00000000000E+00 0.  1.
         11    1    1    2    0    0  0.10097735393E+03  0.81757249439E+01 -0.72196255883E+02  0.12440083540E+03  0.00000000000E+00 0. -1.
</event>
<event>
 6    1  0.3056346E-009  0.9662771E+02  0.7561462E-02  0.1287552E+00
         -1   -1    0    0    0  501 -0.00000000000E+00  0.00000000000E+00  0.15862511953E+03  0.15862511953E+03  0.00000000000E+00 0.  1.
          1   -1    0    0  501    0  0.00000000000E+00 -0.00000000000E+00 -0.13271844850E+03  0.13271844850E+03  0.00000000000E+00 0. -1.
          5    1    1    2  502    0  0.33104137167E+02 -0.18047115468E+02  0.81858450831E+02  0.90221176265E+02  0.41800000000E+01 0.  1.
         -5    1    1    2    0  502  0.49152394583E+02  0.39360428130E+02 -0.24222688747E+02  0.67597427806E+02  0.41800000000E+01 0.  1.
        -11    1    1    2    0    0 -0.12683607555E+02  0.97710834174E+01 -0.52217825512E+02  0.54617298294E+02  0.00000000000E+00 0. -1.
         11    1    1    2    0    0 -0.69572924195E+02 -0.31084396080E+02  0.20488734457E+02  0.78907665663E+02  0.00000000000E+00 0.  1.
</event>
<event>
 7    1  0.3056346E-009  0.8874405E+02  0.7561462E-02  0.1305922E+00
          1   -1    0    0  501    0  0.00000000000E+00  0.00000000000E+00  0.39470162705E+03  0.39470162705E+03  0.00000000000E+00 0. -1.
         -1   -1    0    0    0  501 -0.00000000000E+00 -0.00000000000E+00 -0.31712422869E+02  0.31712422869E+02  0.00000000000E+00 0.  1.
         25    2    1    2    0    0  0.17267427107E+02 -0.40538081251E+01  0.15917222020E+03  0.20321911836E+03  0.12509043524E+03 0.  0.
          5    1    3    3  502    0  0.69782989376E+02  0.14168508093E+01  0.11336007626E+03  0.13319028629E+03  0.41800000000E+01 0. -1.
         -5    1    3    3    0  502 -0.52515562268E+02 -0.54706589344E+01  0.45812143933E+02  0.70028832071E+02  0.41800000000E+01 0. -1.
        -11    1    1    2    0    0  0.12370014779E+02  0.18004200500E+02  0.59571199935E+01  0.22641903186E+02  0.00000000000E+00 0.  1.
         11    1    1    2    0    0 -0.29637441886E+02 -0.13950392375E+02  0.19785986400E+03  0.20055302837E+03  0.00000000000E+00 0. -1.
</event>
<event>
 7    1  0.3056346E-009  0.1167884E+03  0.7561462E-02  0.1248491E+00
         -1   -1    0    0    0  501 -0.00000000000E+00  0.00000000000E+00  0.13709522886E+03  0.13709522886E+03  0.00000000000E+00 0.  1.
          1   -1    0    0  501    0  0.00000000000E+00 -0.00000000000E+00 -0.15651431119E+03  0.15651431119E+03  0.00000000000E+00 0. -1.
         25    2    1    2    0    0 -0.26664824976E+02 -0.76295561029E+02  0.34933157914E+02  0.15296977906E+03  0.12508957695E+03 0.  0.
          5    1    3    3  502    0 -0.60949726431E+02 -0.80058303154E+02  0.53009574319E+02  0.11380548504E+03  0.41800000000E+01 0.  1.
         -5    1    3    3    0  502  0.34284901455E+02  0.37627421247E+01 -0.18076416404E+02  0.39164294020E+02  0.41800000000E+01 0.  1.
        -11    1    1    2    0    0 -0.17453029869E+02  0.18738068301E+02 -0.62616025032E+02  0.67649760133E+02  0.00000000000E+00 0. -1.
         11    1    1    2    0    0  0.44117854845E+02  0.57557492728E+02  0.82637847850E+01  0.72990000852E+02  0.00000000000E+00 0.  1.
</event>
<event>
 7    1  0.3056346E-009  0.8996788E+02  0.7561462E-02  0.1302929E+00
         -1   -1    0    0    0  501 -0.00000000000E+00  0.00000000000E+00  0.36193310006E+02  0.36193310006E+02  0.00000000000E+00 0.  1.
          1   -1    0    0  501    0  0.00000000000E+00 -0.00000000000E+00 -0.37753529916E+03  0.37753529916E+03  0.00000000000E+00 0. -1.
         25    2    1    2    0    0  0.35869689847E+02 -0.14449009796E+02 -0.15623556424E+03  0.20384369716E+03  0.12508913944E+03 0.  0.
          5    1    3    3  502    0  0.71523289982E+01 -0.45982403752E+02 -0.53943874368E+01  0.47033063697E+02  0.41800000000E+01 0. -1.
         -5    1    3    3    0  502  0.28717360849E+02  0.31533393956E+02 -0.15084117680E+03  0.15681063347E+03  0.41800000000E+01 0. -1.
        -11    1    1    2    0    0 -0.97113974529E+01  0.47344532911E+02 -0.55295260281E+02  0.73439647647E+02  0.00000000000E+00 0.  1.
         11    1    1    2    0    0 -0.26158292394E+02 -0.32895523115E+02 -0.12981116463E+03  0.13644526436E+03  0.00000000000E+00 0. -1.
</event>
<event>
 7    1  0.3056346E-009  0.1049462E+03  0.7561462E-02  0.1270226E+00
         -1   -1    0    0    0  501 -0.00000000000E+00  0.00000000000E+00  0.33452433203E+02  0.33452433203E+02  0.00000000000E+00 0.  1.
          1   -1    0    0  501    0  0.00000000000E+00 -0.00000000000E+00 -0.40485159627E+03  0.40485159627E+03  0.00000000000E+00 0. -1.
         25    2    1    2    0    0  0.30490318725E+02 -0.21662863851E+02 -0.23171601175E+03  0.26596784579E+03  0.12509054996E+03 0.  0.
          5    1    3    3  502    0  0.24512305520E+02  0.40386204237E+02 -0.17592772722E+03  0.18220849656E+03  0.41800000000E+01 0. -1.
         -5    1    3    3    0  502  0.59780132052E+01 -0.62049068088E+02 -0.55788284523E+02  0.83759349225E+02  0.41800000000E+01 0. -1.
        -11    1    1    2    0    0  0.24633661462E+02 -0.19314016204E+02 -0.55168107336E+02  0.63430028897E+02  0.00000000000E+00 0.  1.
         11    1    1    2    0    0 -0.55123980187E+02  0.40976880055E+02 -0.84515043991E+02  0.10890615479E+03  0.00000000000E+00 0. -1.
</event>
<event>
 7    1  0.3056346E-009  0.6589249E+02  0.7561462E-02  0.1374645E+00
          2   -1    0    0  501    0  0.00000000000E+00  0.00000000000E+00  0.25759453508E+03  0.25759453508E+03  0.00000000000E+00 0. -1.
         -2   -1    0    0    0  501 -0.00000000000E+00 -0.00000000000E+00 -0.53581139729E+02  0.53581139729E+02  0.00000000000E+00 0.  1.
         25    2    1    2    0    0  0.31419406939E+02 -0.26210966552E+02  0.14872816396E+03  0.19860537657E+03  0.12509930034E+03 0.  0.
          5    1    3    3  502    0 -0.49752878757E+01 -0.25647604977E+01  0.15446860343E+03  0.15462649622E+03  0.41800000000E+01 0.  1.
         -5    1    3    3    0  502  0.36394694815E+02 -0.23646206054E+02 -0.57404394721E+01  0.43978880349E+02  0.41800000000E+01 0.  1.
        -11    1    1    2    0    0 -0.46299569051E+02 -0.50504343630E+01 -0.89009114681E+00  0.46582714003E+02  0.00000000000E+00 0.  1.
         11    1    1    2    0    0  0.14880162112E+02  0.31261400915E+02  0.56175322534E+02  0.65987584237E+02  0.00000000000E+00 0. -1.
</event>
<event>
 7    1  0.3056346E-009  0.1126439E+03  0.7561462E-02  0.1255751E+00
          1   -1    0    0  501    0  0.00000000000E+00  0.00000000000E+00  0.33103375263E+03  0.33103375263E+03  0.00000000000E+00 0. -1.
         -1   -1    0    0    0  501 -0.00000000000E+00 -0.00000000000E+00 -0.51971563952E+02  0.51971563952E+02  0.00000000000E+00 0.  1.
         25    2    1    2    0    0 -0.71719710449E+02 -0.10873616501E+02  0.18961412636E+03  0.23846192781E+03  0.12509445111E+03 0.  0.
          5    1    3    3  502    0  0.40339054453E-02  0.46921490632E+02  0.96684273419E+02  0.10754974396E+03  0.41800000000E+01 0.  1.
         -5    1    3    3    0  502 -0.71723744355E+02 -0.57795107133E+02  0.92929852939E+02  0.13091218385E+03  0.41800000000E+01 0.  1.
        -11    1    1    2    0    0  0.64770678788E+02  0.25634663334E+02  0.10230682351E+03  0.12377020212E+03  0.00000000000E+00 0. -1.
         11    1    1    2    0    0  0.69490316610E+01 -0.14761046833E+02 -0.12858761190E+02  0.20773186659E+02  0.00000000000E+00 0.  1.
</event>
<event>
 7    1  0.3056346E-009  0.1078147E+03  0.7561462E-02  0.1264671E+00
         -1   -1    0    0    0  501 -0.00000000000E+00  0.00000000000E+00  0.56149321760E+03  0.56149321760E+03  0.00000000000E+00 0.  1.
          1   -1    0    0  501    0  0.00000000000E+00 -0.00000000000E+00 -0.38055159302E+02  0.38055159302E+02  0.00000000000E+00 0. -1.
         25    2    1    2    0    0  0.10775515521E+02 -0.73003300645E+02  0.41972218809E+03  0.44413930199E+03  0.12508961091E+03 0.  0.
          5    1    3    3  502    0  0.31546488020E+02 -0.72525808195E+02  0.41491740425E+03  0.42240868660E+03  0.41800000000E+01 0. -1.
         -5    1    3    3    0  502 -0.20770972499E+02 -0.47749245015E+00  0.48047838338E+01  0.21730615392E+02  0.41800000000E+01 0. -1.
        -11    1    1    2    0    0 -0.43543845291E+02  0.69857877805E+02  0.67370043740E+02  0.10637157678E+03  0.00000000000E+00 0. -1.
         11    1    1    2    0    0  0.32768329771E+02  0.31454228398E+01  0.36345826469E+02  0.49037498127E+02  0.00000000000E+00 0.  1.
</event>
<event>
 7    1  0.3056346E-009  0.1088777E+03  0.7561462E-02  0.1262662E+00
         -2   -1    0    0    0  501 -0.00000000000E+00  0.00000000000E+00  0.13847748518E+02  0.13847748518E+02  0.00000000000E+00 0. -1.
          2   -1    0    0  501    0  0.00000000000E+00 -0.00000000000E+00 -0.12338349066E+04  0.12338349066E+04  0.00000000000E+00 0.  1.
         25    2    1    2    0    0  0.21507202745E+02  0.36324187108E+02 -0.96400025774E+03  0.97299883674E+03  0.12509289763E+03 0.  0.
          5    1    3    3  502    0 -0.49862122563E+02  0.15110813683E+01 -0.46732000968E+03  0.46999359409E+03  0.41800000000E+01 0.  1.
         -5    1    3    3    0  502  0.71369325308E+02  0.34813105740E+02 -0.49668024806E+03  0.50300524266E+03  0.41800000000E+01 0.  1.
        -11    1    1    2    0    0 -0.50544006400E+02 -0.17116974436E+02 -0.86329816701E+02  0.10149150038E+03  0.00000000000E+00 0. -1.
         11    1    1    2    0    0  0.29036803654E+02 -0.19207212672E+02 -0.16965708359E+03  0.17319231795E+03  0.00000000000E+00 0.  1.
</event>
<event>
 7    1  0.3056346E-009  0.1168272E+03  0.7561462E-02  0.1248425E+00
          2   -1    0    0  501    0  0.00000000000E+00  0.00000000000E+00  0.56317785117E+02  0.56317785117E+02  0.00000000000E+00 0. -1.
         -2   -1    0    0    0  501 -0.00000000000E+00 -0.00000000000E+00 -0.32519469097E+03  0.32519469097E+03  0.00000000000E+00 0.  1.
         25    2    1    2    0    0  0.76735208167E+02  0.17405049904E+02 -0.16984610742E+03  0.22513679811E+03  0.12509056610E+03 0.  0.
          5    1    3    3  502    0  0.93155857530E+02  0.37393942448E+02 -0.71379292364E+02  0.12324283550E+03  0.41800000000E+01 0. -1.
         -5    1    3    3    0  502 -0.16420649363E+02 -0.19988892544E+02 -0.98466815052E+02  0.10189396261E+03  0.41800000000E+01 0. -1.
        -11    1    1    2    0    0 -0.21625133312E+02 -0.41529985556E+02 -0.81022355621E+02  0.93578887584E+02  0.00000000000E+00 0.  1.
         11    1    1    2    0    0 -0.55110074855E+02  0.24124935652E+02 -0.18008442820E+02  0.62796790393E+02  0.00000000000E+00 0. -1.
</event>
<event>
 7    1  0.3056346E-009  0.8370005E+02  0.7561462E-02  0.1318867E+00
          1   -1    0    0  501    0  0.00000000000E+00  0.00000000000E+00  0.38760244676E+02  0.38760244676E+02  0.00000000000E+00 0. -1.
         -1   -1    0    0    0  501 -0.00000000000E+00 -0.00000000000E+00 -0.31838663048E+03  0.31838663048E+03  0.00000000000E+00 0.  1.
         25    2    1    2    0    0 -0.20050534632E+01 -0.44473096945E+02 -0.19238804303E+03  0.23375775051E+03  0.12509056811E+03 0.  0.
          5    1    3    3  502    0  0.39715935350E+02 -0.42713554798E+02 -0.29392223594E+02  0.65445996761E+02  0.41800000000E+01 0.  1.
         -5    1    3    3    0  502 -0.41720988813E+02 -0.17595421462E+01 -0.16299581944E+03  0.16831175375E+03  0.41800000000E+01 0.  1.
        -11    1    1    2    0    0  0.30845970052E+01  0.55647202392E+02 -0.26662797517E+02  0.61782122367E+02  0.00000000000E+00 0. -1.
         11    1    1    2    0    0 -0.10795435420E+01 -0.11174105447E+02 -0.60575545260E+02  0.61607002283E+02  0.00000000000E+00 0.  1.
</event>
<event>
 7    1  0.3056346E-009  0.9994643E+02  0.7561462E-02  0.1280409E+00
          1   -1    0    0  501    0  0.00000000000E+00  0.00000000000E+00  0.28572551884E+03  0.28572551884E+03  0.00000000000E+00 0. -1.
         -1   -1    0    0    0  501 -0.00000000000E+00 -0.00000000000E+00 -0.66796288422E+02  0.66796288422E+02  0.00000000000E+00 0.  1.
         25    2    1    2    0    0  0.30573116292E+02  0.59455904823E+01  0.15890881336E+02  0.12988575965E+03  0.12509086683E+03 0.  0.
          5    1    3    3  502    0  0.41184305929E+02 -0.42855978026E+02  0.42457246746E+02  0.73163324888E+02  0.41800000000E+01 0. -1.
         -5    1    3    3    0  502 -0.10611189637E+02  0.48801568509E+02 -0.26566365410E+02  0.56722434763E+02  0.41800000000E+01 0. -1.
        -11    1    1    2    0    0 -0.14602662343E+02 -0.45366770072E+02  0.89613051336E+02  0.10149818000E+03  0.00000000000E+00 0.  1.
         11    1    1    2    0    0 -0.15970453948E+02  0.39421179589E+02  0.11342529775E+03  0.12113786761E+03  0.00000000000E+00 0. -1.
</event>
<event>
 7    1  0.3056346E-009  0.1846880E+03  0.7561462E-02  0.1163342E+00
          1   -1    0    0  501    0  0.00000000000E+00  0.00000000000E+00  0.11276441592E+04  0.11276441592E+04  0.00000000000E+00 0. -1.
         -1   -1    0    0    0  501 -0.00000000000E+00 -0.00000000000E+00 -0.36598666684E+02  0.36598666684E+02  0.00000000000E+00 0.  1.
         25    2    1    2    0    0 -0.65087114286E+02  0.14036615987E+03  0.78084240214E+03  0.80579255824E+03  0.12509116138E+03 0.  0.
          5    1    3    3  502    0 -0.96304451603E+02  0.63631148103E+02  0.48269011973E+03  0.49631713097E+03  0.41800000000E+01 0.  1.
         -5    1    3    3    0  502  0.31217337317E+02  0.76735011771E+02  0.29815228241E+03  0.30947542727E+03  0.41800000000E+01 0.  1.
        -11    1    1    2    0    0  0.14666241540E+01 -0.89389717360E+02  0.10656550748E+03  0.13910025140E+03  0.00000000000E+00 0.  1.
         11    1    1    2    0    0  0.63620490132E+02 -0.50976442514E+02  0.20363758290E+03  0.21935001624E+03  0.00000000000E+00 0. -1.
</event>
<event>
 7    1  0.3056346E-009  0.1492443E+03  0.7561462E-02  0.1201405E+00
         -2   -1    0    0    0  501 -0.00000000000E+00  0.00000000000E+00  0.83802655801E+02  0.83802655801E+02  0.00000000000E+00 0.  1.
          2   -1    0    0  501    0  0.00000000000E+00 -0.00000000000E+00 -0.31304762560E+03  0.31304762560E+03  0.00000000000E+00 0. -1.
         25    2    1    2    0    0 -0.10000861160E+03  0.12992033069E+02 -0.49519379747E+02  0.16813966894E+03  0.12509302132E+03 0.  0.
          5    1    3    3  502    0  0.93474643599E+01 -0.36271557389E+02 -0.26149805569E+02  0.45872493901E+02  0.41800000000E+01 0. -1.
         -5    1    3    3    0  502 -0.10935607596E+03  0.49263590458E+02 -0.23369574178E+02  0.12226717504E+03  0.41800000000E+01 0. -1.
        -11    1    1    2    0    0  0.54136791017E+02 -0.56011818398E+02 -0.88376585498E+02  0.11780720184E+03  0.00000000000E+00 0.  1.
         11    1    1    2    0    0  0.45871820585E+02  0.43019785329E+02 -0.91349004559E+02  0.11090341062E+03  0.00000000000E+00 0. -1.
</event>
<event>
 7    1  0.3056346E-009  0.1852888E+03  0.7561462E-02  0.1162781E+00
          2   -1    0    0  501    0  0.00000000000E+00  0.00000000000E+00  0.12965257099E+03  0.12965257099E+03  0.00000000000E+00 0. -1.
         -2   -1    0    0    0  501 -0.00000000000E+00 -0.00000000000E+00 -0.28651324426E+03  0.28651324426E+03  0.00000000000E+00 0.  1.
         25    2    1    2    0    0 -0.11155793829E+03  0.11926565496E+03 -0.52300658158E+02  0.21225478753E+03  0.12508903204E+03 0.  0.
          5    1    3    3  502    0 -0.12552259270E+03  0.57460768727E+02 -0.15806221713E+02  0.13901428080E+03  0.41800000000E+01 0.  1.
         -5    1    3    3    0  502  0.13964654408E+02  0.61804886235E+02 -0.36494436445E+02  0.73240506734E+02  0.41800000000E+01 0.  1.
        -11    1    1    2    0    0  0.49769093468E+02 -0.23604451164E+02 -0.10205970761E+02  0.56020483920E+02  0.00000000000E+00 0.  1.
         11    1    1    2    0    0  0.61788844825E+02 -0.95661203799E+02 -0.94354044350E+02  0.14789054379E+03  0.00000000000E+00 0. -1.
</event>
<event>
 7    1  0.3056346E-009  0.1248862E+03  0.7561462E-02  0.1235247E+00
         -1   -1    0    0    0  501 -0.00000000000E+00  0.00000000000E+00  0.33927656758E+02  0.33927656758E+02  0.00000000000E+00 0.  1.
          1   -1    0    0  501    0  0.00000000000E+00 -0.00000000000E+00 -0.72028577316E+03  0.72028577316E+03  0.00000000000E+00 0. -1.
         25    2    1    2    0    0 -0.28726345234E+02 -0.10176162090E+03 -0.44987432182E+03  0.47876442265E+03  0.12509131291E+03 0.  0.
          5    1    3    3  502    0  0.13119562708E+02 -0.27517876476E+02 -0.12612614585E+02  0.33255178515E+02  0.41800000000E+01 0.  1.
         -5    1    3    3    0  502 -0.41845907942E+02 -0.74243744421E+02 -0.43726170723E+03  0.44550924413E+03  0.41800000000E+01 0.  1.
        -11    1    1    2    0    0  0.29486658339E+02 -0.23317563274E+01 -0.21429441923E+02  0.36525622358E+02  0.00000000000E+00 0.  1.
         11    1    1    2    0    0 -0.76031310468E+00  0.10409337722E+03 -0.21505435267E+03  0.23892338491E+03  0.00000000000E+00 0. -1.
</event>
<event>
 7    1  0.3056346E-009  0.4999757E+02  0.7561462E-02  0.1445355E+00
         -2   -1    0    0    0  501 -0.00000000000E+00  0.00000000000E+00  0.10874868478E+03  0.10874868478E+03  0.00000000000E+00 0.  1.
          2   -1    0    0  501    0  0.00000000000E+00 -0.00000000000E+00 -0.10947975571E+03  0.10947975571E+03  0.00000000000E+00 0. -1.
         25    2    1    2    0    0 -0.45125482778E+01 -0.19801880332E+02  0.66259091044E+00  0.12672347961E+03  0.12508366681E+03 0.  0.
          5    1    3    3  502    0 -0.12348073955E+02 -0.18103384217E+02  0.61394598852E+02  0.65322099007E+02  0.41800000000E+01 0.  1.
         -5    1    3    3    0  502  0.78355256771E+01 -0.16984961150E+01 -0.60732007941E+02  0.61401380606E+02  0.41800000000E+01 0.  1.
        -11    1    1    2    0    0  0.23354026151E+02  0.36590747936E+02  0.28845550678E+02  0.52118702650E+02  0.00000000000E+00 0.  1.
         11    1    1    2    0    0 -0.18841477874E+02 -0.16788867605E+02 -0.30239212515E+02  0.39386258231E+02  0.00000000000E+00 0. -1.
</event>
<event>
 7    1  0.3056346E-009  0.9486796E+02  0.7561462E-02  0.1291474E+00
          1   -1    0    0  501    0  0.00000000000E+00  0.00000000000E+00  0.22086268330E+03  0.22086268330E+03  0.00000000000E+00 0.  1.
         -1   -1    0    0    0  501 -0.00000000000E+00 -0.00000000000E+00 -0.73580589076E+02  0.73580589076E+02  0.00000000000E+00 0. -1.
         25    2    1    2    0    0 -0.25970077327E+00 -0.23446572382E+02  0.11382835136E+02  0.12780306673E+03  0.12511692823E+03 0.  0.
          5    1    3    3  502    0 -0.45070386973E+02  0.19780846392E+02  0.35575991383E+02  0.60874832475E+02  0.41800000000E+01 0.  1.
         -5    1    3    3    0  502  0.44810686200E+02 -0.43227418774E+02 -0.24193156247E+02  0.66928234257E+02  0.41800000000E+01 0.  1.
        -11    1    1    2    0    0 -0.64988149442E+01 -0.26626911492E+02  0.71421222409E+01  0.28323787201E+02  0.00000000000E+00 0. -1.
         11    1    1    2    0    0  0.67585157175E+01  0.50073483874E+02  0.12875713685E+03  0.13831641844E+03  0.00000000000E+00 0.  1.
</event>
<event>
 7    1  0.3056346E-009  0.1080327E+03  0.7561462E-02  0.1264257E+00
          1   -1    0    0  501    0  0.00000000000E+00  0.00000000000E+00  0.50395549224E+03  0.50395549224E+03  0.00000000000E+00 0. -1.
         -1   -1    0    0    0  501 -0.00000000000E+00 -0.00000000000E+00 -0.25149279770E+02  0.25149279770E+02  0.00000000000E+00 0.  1.
         25    2    1    2    0    0 -0.27556497014E+02 -0.73613926445E+01  0.25400691861E+03  0.28456914366E+03  0.12508609913E+03 0.  0.
          5    1    3    3  502    0 -0.56787422988E+01  0.57859430952E+02  0.13501309053E+03  0.14705770595E+03  0.41800000000E+01 0.  1.
         -5    1    3    3    0  502 -0.21877754715E+02 -0.65220823596E+02  0.11899382808E+03  0.13751143772E+03  0.41800000000E+01 0.  1.
        -11    1    1    2    0    0  0.14078805668E+02  0.45910815881E+02  0.16698607892E+03  0.17375375201E+03  0.00000000000E+00 0. -1.
         11    1    1    2    0    0  0.13477691346E+02 -0.38549423236E+02  0.57813214933E+02  0.70781876330E+02  0.00000000000E+00 0.  1.
</event>
<event>
 7    1  0.3056346E-009  0.4958831E+03  0.7561462E-02  0.1014859E+00
         -2   -1    0    0    0  501 -0.00000000000E+00  0.00000000000E+00  0.34121658157E+03  0.34121658157E+03  0.00000000000E+00 0.  1.
          2   -1    0    0  501    0  0.00000000000E+00 -0.00000000000E+00 -0.73846144357E+03  0.73846144357E+03  0.00000000000E+00 0. -1.
         25    2    1    2    0    0 -0.39813357452E+03  0.28552154278E+03 -0.19178740747E+03  0.54079852800E+03  0.12509094157E+03 0.  0.
          5    1    3    3  502    0 -0.24400971913E+03  0.12572795600E+03 -0.54952786983E+02  0.27997418300E+03  0.41800000000E+01 0. -1.
         -5    1    3    3    0  502 -0.15412385539E+03  0.15979358679E+03 -0.13683462048E+03  0.26082434499E+03  0.41800000000E+01 0. -1.
        -11    1    1    2    0    0  0.36579730179E+03 -0.23360707696E+03 -0.19869071675E+03  0.47734466932E+03  0.00000000000E+00 0.  1.
         11    1    1    2    0    0  0.32336272731E+02 -0.51914465820E+02 -0.67667377879E+01  0.61534827828E+02  0.00000000000E+00 0. -1.
</event>
<event>
 7    1  0.3056346E-009  0.2712678E+03  0.7561462E-02  0.1100556E+00
         -2   -1    0    0    0  501 -0.00000000000E+00  0.00000000000E+00  0.49291125715E+03  0.49291125715E+03  0.00000000000E+00 0.  1.
          2   -1    0    0  501    0  0.00000000000E+00 -0.00000000000E+00 -0.24756045102E+03  0.24756045102E+03  0.00000000000E+00 0. -1.
         25    2    1    2    0    0 -0.25342812123E+03  0.28552107399E+02  0.34890607724E+03  0.44991542599E+03  0.12508958525E+03 0.  0.
          5    1    3    3  502    0 -0.22027266650E+03 -0.24131402377E+02  0.26916013627E+03  0.34866462904E+03  0.41800000000E+01 0.  1.
         -5    1    3    3    0  502 -0.33155454730E+02  0.52683509776E+02  0.79745940969E+02  0.10125079694E+03  0.41800000000E+01 0.  1.
        -11    1    1    2    0    0  0.21289669114E+03 -0.39507246420E+02 -0.49511384788E+02  0.22211978940E+03  0.00000000000E+00 0.  1.
         11    1    1    2    0    0  0.40531430089E+02  0.10955139021E+02 -0.54043886324E+02  0.68436492787E+02  0.00000000000E+00 0. -1.
</event>
<event>
 7    1  0.3056346E-009  0.2090158E+03  0.7561462E-02  0.1142348E+00
         -2   -1    0    0    0  501 -0.00000000000E+00  0.00000000000E+00  0.83398213024E+02  0.83398213024E+02  0.00000000000E+00 0. -1.
          2   -1    0    0  501    0  0.00000000000E+00 -0.00000000000E+00 -0.55591927138E+03  0.55591927138E+03  0.00000000000E+00 0.  1.
         25    2    1    2    0    0  0.18067795650E+03  0.40217068216E+02 -0.23887929959E+03  0.32706750799E+03  0.12509156034E+03 0.  0.
          5    1    3    3  502    0  0.13263003292E+03  0.80851327310E+02 -0.19888676543E+03  0.25239073007E+03  0.41800000000E+01 0.  1.
         -5    1    3    3    0  502  0.48047923576E+02 -0.40634259093E+02 -0.39992534155E+02  0.74676777918E+02  0.41800000000E+01 0.  1.
        -11    1    1    2    0    0 -0.78767174405E+02 -0.55737855168E+02 -0.15504300666E+03  0.18261793499E+03  0.00000000000E+00 0.  1.
         11    1    1    2    0    0 -0.10191078209E+03  0.15520786952E+02 -0.78598752109E+02  0.12963204144E+03  0.00000000000E+00 0. -1.
</event>
<event>
 7    1  0.3056346E-009  0.9831272E+02  0.7561462E-02  0.1283885E+00
         -1   -1    0    0    0  501 -0.00000000000E+00  0.00000000000E+00  0.79043638413E+02  0.79043638413E+02  0.00000000000E+00 0.  1.
          1   -1    0    0  501    0  0.00000000000E+00 -0.00000000000E+00 -0.22537055570E+03  0.22537055570E+03  0.00000000000E+00 0. -1.
         25    2    1    2    0    0  0.67901190460E+02 -0.34534257600E+02 -0.10946799287E+03  0.18284918952E+03  0.12508956005E+03 0.  0.
          5    1    3    3  502    0  0.87139272001E+02 -0.44909735086E+02 -0.33488532816E+02  0.10367782434E+03  0.41800000000E+01 0. -1.
         -5    1    3    3    0  502 -0.19238081541E+02  0.10375477486E+02 -0.75979460051E+02  0.79171365177E+02  0.41800000000E+01 0. -1.
        -11    1    1    2    0    0 -0.18606968659E+02  0.78161512103E+01  0.28835404655E+02  0.35196478006E+02  0.00000000000E+00 0. -1.
         11    1    1    2    0    0 -0.49294221801E+02  0.26718106390E+02 -0.65694329080E+02  0.86368526590E+02  0.00000000000E+00 0.  1.
</event>
<event>
 7    1  0.3056346E-009  0.1281941E+03  0.7561462E-02  0.1230160E+00
         -1   -1    0    0    0  501 -0.00000000000E+00  0.00000000000E+00  0.36802800782E+03  0.36802800782E+03  0.00000000000E+00 0.  1.
          1   -1    0    0  501    0  0.00000000000E+00 -0.00000000000E+00 -0.53265765884E+02  0.53265765884E+02  0.00000000000E+00 0. -1.
         25    2    1    2    0    0 -0.83398717911E+02 -0.28820130417E+02  0.18761491278E+03  0.24214325577E+03  0.12509218502E+03 0.  0.
          5    1    3    3  502    0 -0.11137584997E+03  0.17005799622E+01  0.13629352504E+03  0.17607063724E+03  0.41800000000E+01 0. -1.
         -5    1    3    3    0  502  0.27977132062E+02 -0.30520710379E+02  0.51321387739E+02  0.66072618534E+02  0.41800000000E+01 0. -1.
        -11    1    1    2    0    0  0.68070580818E+02 -0.28420052445E+01  0.12683137304E+03  0.14397179639E+03  0.00000000000E+00 0.  1.
         11    1    1    2    0    0  0.15328137093E+02  0.31662135662E+02  0.31595611409E+00  0.35178721547E+02  0.00000000000E+00 0. -1.
</event>
<event>
 7    1  0.3056346E-009  0.9654030E+02  0.7561462E-02  0.1287744E+00
         -3   -1    0    0    0  501 -0.00000000000E+00  0.00000000000E+00  0.66201190396E+02  0.66201190396E+02  0.00000000000E+00 0.  1.
          3   -1    0    0  501    0  0.00000000000E+00 -0.00000000000E+00 -0.26571231941E+03  0.26571231941E+03  0.00000000000E+00 0. -1.
         25    2    1    2    0    0  0.28383917363E+02  0.51525355796E+02 -0.17217486409E+03  0.22079702237E+03  0.12508649890E+03 0.  0.
          5    1    3    3  502    0  0.29439233333E+02 -0.24372684791E+02 -0.71527771552E+01  0.39106659844E+02  0.41800000000E+01 0. -1.
         -5    1    3    3    0  502 -0.10553159695E+01  0.75898040587E+02 -0.16502208694E+03  0.18169036252E+03  0.41800000000E+01 0. -1.
        -11    1    1    2    0    0  0.14929189737E+02 -0.20387492018E+02 -0.47730522828E+02  0.54006789818E+02  0.00000000000E+00 0. -1.
         11    1    1    2    0    0 -0.43313107100E+02 -0.31137863778E+02  0.20394257902E+02  0.57109697624E+02  0.00000000000E+00 0.  1.
</event>
<event>
 7    1  0.4199258E-009  0.1329399E+03  0.7561462E-02  0.1223158E+00
          1   -1    0    0  501    0  0.00000000000E+00  0.00000000000E+00  0.41399967061E+03  0.41399967061E+03  0.00000000000E+00 0. -1.
         -1   -1    0    0    0  501 -0.00000000000E+00 -0.00000000000E+00 -0.49866327681E+02  0.49866327681E+02  0.00000000000E+00 0.  1.
         25    2    1    2    0    0 -0.79532302596E+02 -0.49305660280E+02  0.20293672093E+03  0.25610131523E+03  0.12509250843E+03 0.  0.
          5    1    3    3  502    0 -0.94589556494E+02 -0.76088601097E+02  0.13609349252E+03  0.18241592726E+03  0.41800000000E+01 0. -1.
         -5    1    3    3    0  502  0.15057253898E+02  0.26782940817E+02  0.66843228417E+02  0.73685387961E+02  0.41800000000E+01 0. -1.
        -11    1    1    2    0    0  0.62859147929E+01  0.38921642543E+02  0.11247107338E+03  0.11918116181E+03  0.00000000000E+00 0. -1.
         11    1    1    2    0    0  0.73246387803E+02  0.10384017737E+02  0.48725548622E+02  0.88583521261E+02  0.00000000000E+00 0.  1.
</event>
<event>
 7    1  0.3056346E-009  0.1666774E+03  0.7561462E-02  0.1181358E+00
          2   -1    0    0  501    0  0.00000000000E+00  0.00000000000E+00  0.10753298549E+04  0.10753298549E+04  0.00000000000E+00 0. -1.
         -2   -1    0    0    0  501 -0.00000000000E+00 -0.00000000000E+00 -0.31119434031E+02  0.31119434031E+02  0.00000000000E+00 0.  1.
         25    2    1    2    0    0  0.14001864115E+03  0.36769695452E+02  0.47577538181E+03  0.51280294994E+03  0.12508965249E+03 0.  0.
          5    1    3    3  502    0  0.30364953735E+02 -0.22163129670E+02  0.25500435508E+02  0.45617752501E+02  0.41800000000E+01 0.  1.
         -5    1    3    3    0  502  0.10965368742E+03  0.58932825122E+02  0.45027494630E+03  0.46718519744E+03  0.41800000000E+01 0.  1.
        -11    1    1    2    0    0 -0.12788446285E+03 -0.62637592175E+02  0.48352203757E+03  0.50405502141E+03  0.00000000000E+00 0. -1.
         11    1    1    2    0    0 -0.12134178297E+02  0.25867896723E+02  0.84913001492E+02  0.89591317583E+02  0.00000000000E+00 0.  1.
</event>
<event>
 7    1  0.3056346E-009  0.1648636E+03  0.7561462E-02  0.1183313E+00
         -2   -1    0    0    0  501 -0.00000000000E+00  0.00000000000E+00  0.13674706525E+03  0.13674706525E+03  0.00000000000E+00 0.  1.
          2   -1    0    0  501    0  0.00000000000E+00 -0.00000000000E+00 -0.26070121118E+03  0.26070121118E+03  0.00000000000E+00 0. -1.
         25    2    1    2    0    0  0.11262668218E+03  0.78080758041E+02 -0.13327662244E+03  0.22845590909E+03  0.12509224593E+03 0.  0.
          5    1    3    3  502    0  0.33014837206E+02 -0.17572367374E+02  0.96950905089E+01  0.38861738906E+02  0.41800000000E+01 0. -1.
         -5    1    3    3    0  502  0.79611844971E+02  0.95653125415E+02 -0.14297171295E+03  0.18959417018E+03  0.41800000000E+01 0. -1.
        -11    1    1    2    0    0 -0.65959878600E+02  0.11133086251E+02 -0.59563061013E+01  0.67157492335E+02  0.00000000000E+00 0. -1.
         11    1    1    2    0    0 -0.46666803577E+02 -0.89213844292E+02  0.15278782616E+02  0.10183487501E+03  0.00000000000E+00 0.  1.
</event>
<event>
 7    1  0.3056346E-009  0.1192692E+03  0.7561462E-02  0.1244308E+00
          1   -1    0    0  501    0  0.00000000000E+00  0.00000000000E+00  0.16828478933E+03  0.16828478933E+03  0.00000000000E+00 0. -1.
         -1   -1    0    0    0  501 -0.00000000000E+00 -0.00000000000E+00 -0.12520232023E+03  0.12520232023E+03  0.00000000000E+00 0.  1.
         25    2    1    2    0    0  0.17444298054E+02 -0.93699188109E+02  0.18866649305E+02  0.15838986193E+03  0.12509019354E+03 0.  0.
          5    1    3    3  502    0 -0.21019103207E+02 -0.20175362627E+02  0.59141183700E+02  0.66060578004E+02  0.41800000000E+01 0. -1.
         -5    1    3    3    0  502  0.38463401260E+02 -0.73523825483E+02 -0.40274534395E+02  0.92329283929E+02  0.41800000000E+01 0. -1.
        -11    1    1    2    0    0  0.30959852677E+02  0.58453139139E+02 -0.87876910378E+01  0.66727096945E+02  0.00000000000E+00 0.  1.
         11    1    1    2    0    0 -0.48404150731E+02  0.35246048971E+02  0.33003510838E+02  0.68370150677E+02  0.00000000000E+00 0. -1.
</event>
<event>
 7    1  0.3056346E-009  0.9017808E+02  0.7561462E-02  0.1302421E+00
          1   -1    0    0  501    0  0.00000000000E+00  0.00000000000E+00  0.20570251850E+03  0.20570251850E+03  0.00000000000E+00 0. -1.
         -1   -1    0    0    0  501 -0.00000000000E+00 -0.00000000000E+00 -0.70112824890E+02  0.70112824890E+02  0.00000000000E+00 0.  1.
         25    2    1    2    0    0  0.49640284142E+02 -0.43823132696E+00  0.86731686470E+02  0.16010757579E+03  0.12509076917E+03 0.  0.
          5    1    3    3  502    0  0.35374367021E+02  0.57356072425E+02  0.71869546560E+02  0.98609173047E+02  0.41800000000E+01 0. -1.
         -5    1    3    3    0  502  0.14265917121E+02 -0.57794303752E+02  0.14862139910E+02  0.61498402745E+02  0.41800000000E+01 0. -1.
        -11    1    1    2    0    0 -0.20647721851E+02 -0.92088956720E+01  0.73218834914E+02  0.76629824241E+02  0.00000000000E+00 0. -1.
         11    1    1    2    0    0 -0.28992562291E+02  0.96471269990E+01 -0.24360827771E+02  0.39077943359E+02  0.00000000000E+00 0.  1.
</event>
<event>
 7    1  0.3056346E-009  0.9210491E+02  0.7561462E-02  0.1297833E+00
         -2   -1    0    0    0  501 -0.00000000000E+00  0.00000000000E+00  0.12018880045E+02  0.12018880045E+02  0.00000000000E+00 0.  1.
          2   -1    0    0  501    0  0.00000000000E+00 -0.00000000000E+00 -0.11687642054E+04  0.11687642054E+04  0.00000000000E+00 0. -1.
         25    2    1    2    0    0  0.91251358070E+01  0.19734101693E+02 -0.86683572747E+03  0.87608506279E+03  0.12509258947E+03 0.  0.
          5    1    3    3  502    0 -0.39954517866E+01 -0.38729115368E+02 -0.64723652226E+03  0.64841999981E+03  0.41800000000E+01 0.  1.
         -5    1    3    3    0  502  0.13120587594E+02  0.58463217061E+02 -0.21959920521E+03  0.22766506297E+03  0.41800000000E+01 0.  1.
        -11    1    1    2    0    0 -0.62318444810E+01 -0.52111075294E+02 -0.11003933227E+03  0.12191412839E+03  0.00000000000E+00 0.  1.
         11    1    1    2    0    0 -0.28932913261E+01  0.32376973601E+02 -0.17987026564E+03  0.18278389430E+03  0.00000000000E+00 0. -1.
</event>
<event>
 7    1  0.3056346E-009  0.1578496E+03  0.7561462E-02  0.1191146E+00
         -2   -1    0    0    0  501 -0.00000000000E+00  0.00000000000E+00  0.41565210776E+02  0.41565210776E+02  0.00000000000E+00 0.  1.
          2   -1    0    0  501    0  0.00000000000E+00 -0.00000000000E+00 -0.67445047643E+03  0.67445047643E+03  0.00000000000E+00 0. -1.
         25    2    1    2    0    0 -0.11999807222E+03 -0.58894768339E+01 -0.42912124294E+03  0.46284646481E+03  0.12509030968E+03 0.  0.
          5    1    3    3  502    0  0.25613831613E+02  0.48110496868E+01 -0.49558627506E+02  0.56149305688E+02  0.41800000000E+01 0. -1.
         -5    1    3    3    0  502 -0.14561190384E+03 -0.10700526521E+02 -0.37956261543E+03  0.40669715913E+03  0.41800000000E+01 0. -1.
        -11    1    1    2    0    0  0.93664549271E+02  0.38548453310E+02 -0.10513177596E+03  0.14598534638E+03  0.00000000000E+00 0.  1.
         11    1    1    2    0    0  0.26333522953E+02 -0.32658976476E+02 -0.98632246761E+02  0.10718387601E+03  0.00000000000E+00 0. -1.
</event>
<event>
 7    1  0.3056346E-009  0.9247377E+02  0.7561462E-02  0.1296969E+00
         -2   -1    0    0    0  501 -0.00000000000E+00  0.00000000000E+00  0.64850245115E+02  0.64850245115E+02  0.00000000000E+00 0.  1.
          2   -1    0    0  501    0  0.00000000000E+00 -0.00000000000E+00 -0.25497470284E+03  0.25497470284E+03  0.00000000000E+00 0. -1.
         25    2    1    2    0    0  0.59319171491E+02  0.26911517275E+02 -0.13180305681E+03  0.19303425083E+03  0.12508869790E+03 0.  0.
          5    1    3    3  502    0  0.66018295138E+02  0.44557736450E+02 -0.14779657898E+03  0.16794376538E+03  0.41800000000E+01 0.  1.
         -5    1    3    3    0  502 -0.66991236466E+01 -0.17646219175E+02  0.15993522176E+02  0.25090485456E+02  0.41800000000E+01 0.  1.
        -11    1    1    2    0    0 -0.55480697004E+02 -0.42446322475E+02 -0.37882030297E+01  0.69958191185E+02  0.00000000000E+00 0.  1.
         11    1    1    2    0    0 -0.38384744878E+01  0.15534805200E+02 -0.54533197885E+02  0.56832505933E+02  0.00000000000E+00 0. -1.
</event>
<event>
 7    1  0.3056346E-009  0.4117045E+03  0.7561462E-02  0.1039801E+00
          2   -1    0    0  501    0  0.00000000000E+00  0.00000000000E+00  0.48526310022E+03  0.48526310022E+03  0.00000000000E+00 0. -1.
         -2   -1    0    0    0  501 -0.00000000000E+00 -0.00000000000E+00 -0.39260880256E+03  0.39260880256E+03  0.00000000000E+00 0.  1.
         25    2    1    2    0    0  0.37572658984E+03  0.14547484459E+03  0.17526177367E+03  0.45683428100E+03  0.12508984878E+03 0.  0.
          5    1    3    3  502    0  0.22139127162E+03  0.21953075409E+02  0.72685443458E+02  0.23408690429E+03  0.41800000000E+01 0. -1.
         -5    1    3    3    0  502  0.15433531822E+03  0.12352176918E+03  0.10257633022E+03  0.22274737671E+03  0.41800000000E+01 0. -1.
        -11    1    1    2    0    0 -0.48834739219E+02 -0.24246497363E+02 -0.44379600612E+02  0.70301303967E+02  0.00000000000E+00 0.  1.
         11    1    1    2    0    0 -0.32689185062E+03 -0.12122834723E+03 -0.38227875399E+02  0.35073631781E+03  0.00000000000E+00 0. -1.
</event>
<event>
 7    1  0.3056346E-009  0.1648207E+03  0.7561462E-02  0.1183359E+00
         -2   -1    0    0    0  501 -0.00000000000E+00  0.00000000000E+00  0.40996823338E+02  0.40996823338E+02  0.00000000000E+00 0.  1.
          2   -1    0    0  501    0  0.00000000000E+00 -0.00000000000E+00 -0.95272006810E+03  0.95272006810E+03  0.00000000000E+00 0. -1.
         25    2    1    2    0    0 -0.97427460142E+02  0.80418477617E+02 -0.21135209795E+03  0.27618250449E+03  0.12509126648E+03 0.  0.
          5    1    3    3  502    0 -0.47471276525E+01 -0.29289815382E+02 -0.16879703655E+02  0.34392227342E+02  0.41800000000E+01 0. -1.
         -5    1    3    3    0  502 -0.92680332490E+02  0.10970829300E+03 -0.19447239429E+03  0.24179027715E+03  0.41800000000E+01 0. -1.
        -11    1    1    2    0    0  0.78044705996E+02 -0.50824559625E+01 -0.35117394688E+03  0.35977763752E+03  0.00000000000E+00 0. -1.
         11    1    1    2    0    0  0.19382754146E+02 -0.75336021654E+02 -0.34919719994E+03  0.35775674943E+03  0.00000000000E+00 0.  1.
</event>
<event>
 7    1  0.3056346E-009  0.1719132E+03  0.7561462E-02  0.1175867E+00
          1   -1    0    0  501    0  0.00000000000E+00  0.00000000000E+00  0.42279934037E+03  0.42279934037E+03  0.00000000000E+00 0. -1.
         -1   -1    0    0    0  501 -0.00000000000E+00 -0.00000000000E+00 -0.10580061692E+03  0.10580061692E+03  0.00000000000E+00 0.  1.
         25    2    1    2    0    0  0.14100863373E+03 -0.71270696976E+02  0.53065894952E+02  0.20838736342E+03  0.12508539879E+03 0.  0.
          5    1    3    3  502    0  0.38338192336E+01 -0.44064392078E+02 -0.22039073383E+02  0.49593971153E+02  0.41800000000E+01 0. -1.
         -5    1    3    3    0  502  0.13717481450E+03 -0.27206304898E+02  0.75104968335E+02  0.15879339227E+03  0.41800000000E+01 0. -1.
        -11    1    1    2    0    0 -0.50634635110E+02  0.14141353014E+02  0.16983242839E+03  0.17778328907E+03  0.00000000000E+00 0. -1.
         11    1    1    2    0    0 -0.90373998622E+02  0.57129343963E+02  0.94100400097E+02  0.14242930480E+03  0.00000000000E+00 0.  1.
</event>
<event>
 7    1  0.3056346E-009  0.9123720E+02  0.7561462E-02  0.1299883E+00
         -1   -1    0    0    0  501 -0.00000000000E+00  0.00000000000E+00  0.18547201545E+02  0.18547201545E+02  0.00000000000E+00 0.  1.
          1   -1    0    0  501    0  0.00000000000E+00 -0.00000000000E+00 -0.81901628847E+03  0.81901628847E+03  0.00000000000E+00 0. -1.
         25    2    1    2    0    0 -0.58282831588E+01 -0.10602891270E+01 -0.64283097183E+03  0.65491556283E+03  0.12509053920E+03 0.  0.
          5    1    3    3  502    0  0.43356905345E+02  0.23967103025E+02 -0.48732740372E+03  0.48985683019E+03  0.41800000000E+01 0.  1.
         -5    1    3    3    0  502 -0.49185188504E+02 -0.25027392152E+02 -0.15550356811E+03  0.16505873264E+03  0.41800000000E+01 0.  1.
        -11    1    1    2    0    0 -0.69714037465E+01 -0.36796643500E+02 -0.27365922703E+02  0.46384126255E+02  0.00000000000E+00 0.  1.
         11    1    1    2    0    0  0.12799686905E+02  0.37856932627E+02 -0.13027219239E+03  0.13626380093E+03  0.00000000000E+00 0. -1.
</event>
<event>
 7    1  0.3056346E-009  0.4310880E+02  0.7561462E-02  0.1486506E+00
         -4   -1    0    0    0  501 -0.00000000000E+00  0.00000000000E+00  0.63385075734E+02  0.63385075734E+02  0.00000000000E+00 0. -1.
          4   -1    0    0  501    0  0.00000000000E+00 -0.00000000000E+00 -0.20859715177E+03  0.20859715177E+03  0.00000000000E+00 0.  1.
         25    2    1    2    0    0 -0.57416192105E+01  0.26820213669E+02 -0.52093108480E+02  0.13822806651E+03  0.12506404906E+03 0.  0.
          5    1    3    3  502    0  0.44732297663E+01 -0.34699914899E+01 -0.88969075668E+02  0.89246957656E+02  0.41800000000E+01 0. -1.
         -5    1    3    3    0  502 -0.10214848977E+02  0.30290205159E+02  0.36875967189E+02  0.48981108851E+02  0.41800000000E+01 0. -1.
        -11    1    1    2    0    0 -0.14914824739E+02 -0.20478097599E+02 -0.10573841664E+03  0.10873093962E+03  0.00000000000E+00 0.  1.
         11    1    1    2    0    0  0.20656443949E+02 -0.63421160701E+01  0.12619449081E+02  0.25023221375E+02  0.00000000000E+00 0. -1.
</event>
<event>
 6    1  0.3056346E-009  0.1508579E+03  0.7561462E-02  0.1199423E+00
          1   -1    0    0  501    0  0.00000000000E+00  0.00000000000E+00  0.35258878294E+03  0.35258878294E+03  0.00000000000E+00 0. -1.
         -1   -1    0    0    0  501 -0.00000000000E+00 -0.00000000000E+00 -0.91648096136E+02  0.91648096136E+02  0.00000000000E+00 0.  1.
          5    1    1    2  502    0 -0.38465841971E+02  0.40575657769E+02 -0.18834363924E+02  0.59145673268E+02  0.41800000000E+01 0. -1.
         -5    1    1    2    0  502  0.65621090553E+02  0.78847839994E+02  0.66741671411E+02  0.12245420573E+03  0.41800000000E+01 0. -1.
        -11    1    1    2    0    0  0.25258182184E+02 -0.28924624577E+02  0.10710655718E+03  0.11378235480E+03  0.00000000000E+00 0. -1.
         11    1    1    2    0    0 -0.52413430766E+02 -0.90498873186E+02  0.10592682214E+03  0.14885464528E+03  0.00000000000E+00 0.  1.
</event>
<event>
 7    1  0.3056346E-009  0.1169064E+03  0.7561462E-02  0.1248290E+00
          4   -1    0    0  501    0  0.00000000000E+00  0.00000000000E+00  0.15534551202E+03  0.15534551202E+03  0.00000000000E+00 0. -1.
         -4   -1    0    0    0  501 -0.00000000000E+00 -0.00000000000E+00 -0.96192632188E+02  0.96192632188E+02  0.00000000000E+00 0.  1.
         25    2    1    2    0    0 -0.36192135811E+02  0.38650179540E+02  0.12453941808E+02  0.13640625201E+03  0.12509139797E+03 0.  0.
          5    1    3    3  502    0 -0.27396132430E+02 -0.41466908251E+02  0.23164234454E+02  0.54991878581E+02  0.41800000000E+01 0. -1.
         -5    1    3    3    0  502 -0.87960033810E+01  0.80117087791E+02 -0.10710292646E+02  0.81414373425E+02  0.41800000000E+01 0. -1.
        -11    1    1    2    0    0  0.22293281017E+02  0.27633882362E+02  0.26982903900E+02  0.44594830819E+02  0.00000000000E+00 0. -1.
         11    1    1    2    0    0  0.13898854794E+02 -0.66284061902E+02  0.19716034123E+02  0.70537061382E+02  0.00000000000E+00 0.  1.
</event>
<event>
 7    1  0.3056346E-009  0.1159420E+03  0.7561462E-02  0.1249946E+00
         -2   -1    0    0    0  501 -0.00000000000E+00  0.00000000000E+00  0.56358987262E+02  0.56358987262E+02  0.00000000000E+00 0.  1.
          2   -1    0    0  501    0  0.00000000000E+00 -0.00000000000E+00 -0.37070947788E+03  0.37070947788E+03  0.00000000000E+00 0. -1.
         25    2    1    2    0    0  0.38549772761E+02  0.33783578033E+02 -0.51833939725E+02  0.14478219600E+03  0.12509081440E+03 0.  0.
          5    1    3    3  502    0 -0.16092660844E+02 -0.35833741613E+02 -0.38543633777E+02  0.55191619616E+02  0.41800000000E+01 0.  1.
         -5    1    3    3    0  502  0.54642433605E+02  0.69617319646E+02 -0.13290305948E+02  0.89590576386E+02  0.41800000000E+01 0.  1.
        -11    1    1    2    0    0  0.29318938894E+02 -0.16912462085E+02 -0.85449533446E+02  0.91908945799E+02  0.00000000000E+00 0. -1.
         11    1    1    2    0    0 -0.67868711655E+02 -0.16871115949E+02 -0.17706701745E+03  0.19037732335E+03  0.00000000000E+00 0.  1.
</event>
<event>
 7    1  0.3056346E-009  0.1919387E+03  0.7561462E-02  0.1156724E+00
          2   -1    0    0  501    0  0.00000000000E+00  0.00000000000E+00  0.11595655686E+03  0.11595655686E+03  0.00000000000E+00 0. -1.
         -2   -1    0    0    0  501 -0.00000000000E+00 -0.00000000000E+00 -0.33959349578E+03  0.33959349578E+03  0.00000000000E+00 0.  1.
         25    2    1    2    0    0 -0.20488972069E+02  0.16407345343E+03 -0.99842237859E+02  0.23011942513E+03  0.12508629527E+03 0.  0.
          5    1    3    3  502    0  0.35528239618E+02  0.39040955636E+01 -0.70253687279E+01  0.36665051184E+02  0.41800000000E+01 0.  1.
         -5    1    3    3    0  502 -0.56017211687E+02  0.16016935786E+03 -0.92816869132E+02  0.19345437395E+03  0.41800000000E+01 0.  1.
        -11    1    1    2    0    0  0.36852191292E+02 -0.15525639170E+03 -0.81384212325E+02  0.17912571335E+03  0.00000000000E+00 0.  1.
         11    1    1    2    0    0 -0.16363219223E+02 -0.88170617229E+01 -0.42410488735E+02  0.46304914161E+02  0.00000000000E+00 0. -1.
</event>
<event>
 7    1  0.3872066E-009  0.1006645E+03  0.7561462E-02  0.1278905E+00
          1   -1    0    0  501    0  0.00000000000E+00  0.00000000000E+00  0.15794312232E+04  0.15794312232E+04  0.00000000000E+00 0.  1.
         -1   -1    0    0    0  501 -0.00000000000E+00 -0.00000000000E+00 -0.13357387082E+02  0.13357387082E+02  0.00000000000E+00 0. -1.
         25    2    1    2    0    0  0.13459004431E+02 -0.77641740952E+02  0.11557583247E+04  0.11651754309E+04  0.12508834867E+03 0.  0.
          5    1    3    3  502    0  0.15641130972E+02 -0.38948641120E+02  0.97907733130E+02  0.10660693331E+03  0.41800000000E+01 0.  1.
         -5    1    3    3    0  502 -0.21821265415E+01 -0.38693099832E+02  0.10578505916E+04  0.10585684976E+04  0.41800000000E+01 0.  1.
        -11    1    1    2    0    0 -0.18592099964E+02 -0.17117477136E+02  0.76145669350E+02  0.80229901940E+02  0.00000000000E+00 0. -1.
         11    1    1    2    0    0  0.51330955332E+01  0.94759218089E+02  0.33416984207E+03  0.34738327742E+03  0.00000000000E+00 0.  1.
</event>
<event>
 7    1  0.3573665E-009  0.7728764E+02  0.7561462E-02  0.1336930E+00
          1   -1    0    0  501    0  0.00000000000E+00  0.00000000000E+00  0.50814767931E+03  0.50814767931E+03  0.00000000000E+00 0. -1.
         -1   -1    0    0    0  501 -0.00000000000E+00 -0.00000000000E+00 -0.35984003438E+02  0.35984003438E+02  0.00000000000E+00 0.  1.
         25    2    1    2    0    0  0.85900102187E+01 -0.30292474601E+02  0.40944003379E+03  0.42928004754E+03  0.12509514638E+03 0.  0.
          5    1    3    3  502    0 -0.32891177524E+02  0.28720890266E+02  0.72975067366E+02  0.85144300770E+02  0.41800000000E+01 0. -1.
         -5    1    3    3    0  502  0.41481187743E+02 -0.59013364867E+02  0.33646496643E+03  0.34413574677E+03  0.41800000000E+01 0. -1.
        -11    1    1    2    0    0 -0.16054155204E+02  0.18454019764E+02 -0.19601782053E+02  0.31345120904E+02  0.00000000000E+00 0.  1.
         11    1    1    2    0    0  0.74641449857E+01  0.11838454837E+02  0.82325424133E+02  0.83506514309E+02  0.00000000000E+00 0. -1.
</event>
<event>
 7    1  0.3056346E-009  0.1166064E+03  0.7561462E-02  0.1248803E+00
          2   -1    0    0  501    0  0.00000000000E+00  0.00000000000E+00  0.43282417777E+02  0.43282417777E+02  0.00000000000E+00 0. -1.
         -2   -1    0    0    0  501 -0.00000000000E+00 -0.00000000000E+00 -0.54487078196E+03  0.54487078196E+03  0.00000000000E+00 0.  1.
         25    2    1    2    0    0 -0.59814422827E+02 -0.31940117678E+01 -0.44617058011E+03  0.46723016590E+03  0.12509146447E+03 0.  0.
          5    1    3    3  502    0  0.33668759089E+01 -0.50882489310E+02 -0.10280433853E+03  0.11483278275E+03  0.41800000000E+01 0.  1.
         -5    1    3    3    0  502 -0.63181298736E+02  0.47688477543E+02 -0.34336624157E+03  0.35239738315E+03  0.41800000000E+01 0.  1.
        -11    1    1    2    0    0  0.21331398245E+02 -0.39752045854E+02 -0.70557717018E+01  0.45662212112E+02  0.00000000000E+00 0. -1.
         11    1    1    2    0    0  0.38483024582E+02  0.42946057622E+02 -0.48362012375E+02  0.75260821728E+02  0.00000000000E+00 0.  1.
</event>
<event>
 7    1  0.3056346E-009  0.1036410E+03  0.7561462E-02  0.1272821E+00
          1   -1    0    0  501    0  0.00000000000E+00  0.00000000000E+00  0.10154025269E+03  0.10154025269E+03  0.00000000000E+00 0. -1.
         -1   -1    0    0    0  501 -0.00000000000E+00 -0.00000000000E+00 -0.16243967992E+03  0.16243967992E+03  0.00000000000E+00 0.  1.
         25    2    1    2    0    0  0.65547782533E+02  0.19232877339E+02 -0.26864010042E+02  0.14503833160E+03  0.12509207502E+03 0.  0.
          5    1    3    3  502    0 -0.88958853312E+01  0.34694695513E+02 -0.53369520619E+02  0.64409912309E+02  0.41800000000E+01 0.  1.
         -5    1    3    3    0  502  0.74443667864E+02 -0.15461818174E+02  0.26505510577E+02  0.80628419291E+02  0.41800000000E+01 0.  1.
        -11    1    1    2    0    0 -0.29926662576E+02 -0.42900639955E+02 -0.50884909302E+02  0.72974954856E+02  0.00000000000E+00 0.  1.
         11    1    1    2    0    0 -0.35621119958E+02  0.23667762616E+02  0.16849492114E+02  0.45966646156E+02  0.00000000000E+00 0. -1.
</event>
<event>
 7    1  0.3056346E-009  0.1168247E+03  0.7561462E-02  0.1248429E+00
          2   -1    0    0  501    0  0.00000000000E+00  0.00000000000E+00  0.21200107941E+03  0.21200107941E+03  0.00000000000E+00 0.  1.
         -2   -1    0    0    0  501 -0.00000000000E+00 -0.00000000000E+00 -0.10904726945E+03  0.10904726945E+03  0.00000000000E+00 0. -1.
         25    2    1    2    0    0 -0.68361568094E+02 -0.23047431436E+02 -0.25983782509E+02  0.14671954659E+03  0.12508789034E+03 0.  0.
          5    1    3    3  502    0 -0.87303450672E+00  0.39125962608E+02 -0.37229586665E+02  0.54176726207E+02  0.41800000000E+01 0.  1.
         -5    1    3    3    0  502 -0.67488533587E+02 -0.62173394045E+02  0.11245804156E+02  0.92542820380E+02  0.41800000000E+01 0.  1.
        -11    1    1    2    0    0  0.27331486872E+01  0.35525152190E+02  0.90487550144E+02  0.97249695480E+02  0.00000000000E+00 0.  1.
         11    1    1    2    0    0  0.65628419406E+02 -0.12477720753E+02  0.38450042322E+02  0.77079106790E+02  0.00000000000E+00 0. -1.
</event>
<event>
 7    1  0.3056346E-009  0.1004430E+03  0.7561462E-02  0.1279367E+00
         -2   -1    0    0    0  501 -0.00000000000E+00  0.00000000000E+00  0.23676714786E+02  0.23676714786E+02  0.00000000000E+00 0.  1.
          2   -1    0    0  501    0  0.00000000000E+00 -0.00000000000E+00 -0.71586608361E+03  0.71586608361E+03  0.00000000000E+00 0. -1.
         25    2    1    2    0    0  0.47195718523E+02  0.49408734192E+02 -0.31806006876E+03  0.34853455809E+03  0.12508186110E+03 0.  0.
          5    1    3    3  502    0 -0.61353918024E+01  0.40646340932E+02 -0.27819452672E+03  0.28124621803E+03  0.41800000000E+01 0. -1.
         -5    1    3    3    0  502  0.53331110325E+02  0.87623932596E+01 -0.39865542048E+02  0.67288340052E+02  0.41800000000E+01 0. -1.
        -11    1    1    2    0    0  0.16781231660E+02 -0.36388025861E+02 -0.77135270087E+02  0.86922655583E+02  0.00000000000E+00 0.  1.
         11    1    1    2    0    0 -0.63976950183E+02 -0.13020708331E+02 -0.29699402997E+03  0.30408558472E+03  0.00000000000E+00 0. -1.
</event>
<event>
 7    1  0.3056346E-009  0.1258965E+03  0.7561462E-02  0.1233675E+00
          2   -1    0    0  501    0  0.00000000000E+00  0.00000000000E+00  0.17270262874E+03  0.17270262874E+03  0.00000000000E+00 0. -1.
         -2   -1    0    0    0  501 -0.00000000000E+00 -0.00000000000E+00 -0.15227081916E+03  0.15227081916E+03  0.00000000000E+00 0.  1.
         25    2    1    2    0    0  0.49477423307E+02  0.19054809304E+02  0.11116992458E+03  0.17554863467E+03  0.12508984703E+03 0.  0.
          5    1    3    3  502    0 -0.41408417573E+02  0.14162516021E+02  0.45250216859E+02  0.63089527116E+02  0.41800000000E+01 0.  1.
         -5    1    3    3    0  502  0.90885840880E+02  0.48922932834E+01  0.65919707717E+02  0.11245910755E+03  0.41800000000E+01 0.  1.
        -11    1    1    2    0    0 -0.39412129787E+02 -0.61527423162E+02 -0.43183077935E+02  0.84874719411E+02  0.00000000000E+00 0. -1.
         11    1    1    2    0    0 -0.10065293520E+02  0.42472613858E+02 -0.47555037059E+02  0.64550093813E+02  0.00000000000E+00 0.  1.
</event>
<event>
 7    1  0.3056346E-009  0.1394824E+03  0.7561462E-02  0.1214027E+00
          2   -1    0    0  501    0  0.00000000000E+00  0.00000000000E+00  0.11882862481E+04  0.11882862481E+04  0.00000000000E+00 0. -1.
         -2   -1    0    0    0  501 -0.00000000000E+00 -0.00000000000E+00 -0.20893641558E+02  0.20893641558E+02  0.00000000000E+00 0.  1.
         25    2    1    2    0    0 -0.75430610641E+02  0.45674025700E+02  0.90433619171E+03  0.91719435128E+03  0.12508251975E+03 0.  0.
          5    1    3    3  502    0 -0.41709092899E+01  0.75032342172E+02  0.48684348463E+03  0.49262693774E+03  0.41800000000E+01 0.  1.
         -5    1    3    3    0  502 -0.71259701351E+02 -0.29358316473E+02  0.41749270707E+03  0.42456741354E+03  0.41800000000E+01 0.  1.
        -11    1    1    2    0    0  0.59024502830E+02 -0.73468291872E+02  0.18861251260E+03  0.21084629888E+03  0.00000000000E+00 0. -1.
         11    1    1    2    0    0  0.16406107811E+02  0.27794266173E+02  0.74443902271E+02  0.81139239526E+02  0.00000000000E+00 0.  1.
</event>
<event>
 7    1  0.3056346E-009  0.1405785E+03  0.7561462E-02  0.1212553E+00
         -2   -1    0    0    0  501 -0.00000000000E+00  0.00000000000E+00  0.71188797559E+03  0.71188797559E+03  0.00000000000E+00 0.  1.
          2   -1    0    0  501    0  0.00000000000E+00 -0.00000000000E+00 -0.30724530286E+02  0.30724530286E+02  0.00000000000E+00 0. -1.
         25    2    1    2    0    0  0.43822108001E+02  0.10505655624E+03  0.35479609231E+03  0.39304654071E+03  0.12509220152E+03 0.  0.
          5    1    3    3  502    0  0.72431163231E+01 -0.26417297994E+02  0.10247128411E+03  0.10615165018E+03  0.41800000000E+01 0. -1.
         -5    1    3    3    0  502  0.36578991678E+02  0.13147385423E+03  0.25232480820E+03  0.28689489053E+03  0.41800000000E+01 0. -1.
        -11    1    1    2    0    0 -0.13038030583E+01 -0.34598551030E+02  0.47298929041E+02  0.58616962768E+02  0.00000000000E+00 0.  1.
         11    1    1    2    0    0 -0.42518304943E+02 -0.70458005206E+02  0.27906842395E+03  0.29094900241E+03  0.00000000000E+00 0. -1.
</event>
<event>
 7    1  0.3056346E-009  0.1459274E+03  0.7561462E-02  0.1205569E+00
         -1   -1    0    0    0  501 -0.00000000000E+00  0.00000000000E+00  0.84495120794E+03  0.84495120794E+03  0.00000000000E+00 0.  1.
          1   -1    0    0  501    0  0.00000000000E+00 -0.00000000000E+00 -0.38954384168E+02  0.38954384168E+02  0.00000000000E+00 0. -1.
         25    2    1    2    0    0  0.90266478276E+01 -0.12811721103E+03  0.59519986760E+03  0.62161556599E+03  0.12509008501E+03 0.  0.
          5    1    3    3  502    0 -0.14725566153E+02 -0.13568500316E+03  0.56921963567E+03  0.58536802818E+03  0.41800000000E+01 0. -1.
         -5    1    3    3    0  502  0.23752213980E+02  0.75677921351E+01  0.25980231928E+02  0.36247537817E+02  0.41800000000E+01 0. -1.
        -11    1    1    2    0    0  0.61048685357E+01  0.21610797727E+02  0.11831010825E+03  0.12042249670E+03  0.00000000000E+00 0. -1.
         11    1    1    2    0    0 -0.15131516363E+02  0.10650641330E+03  0.92486847921E+02  0.14186752941E+03  0.00000000000E+00 0.  1.
</event>
<event>
 7    1  0.3056346E-009  0.9960912E+02  0.7561462E-02  0.1281120E+00
          1   -1    0    0  501    0  0.00000000000E+00  0.00000000000E+00  0.88671710455E+03  0.88671710455E+03  0.00000000000E+00 0. -1.
         -1   -1    0    0    0  501 -0.00000000000E+00 -0.00000000000E+00 -0.22450770769E+02  0.22450770769E+02  0.00000000000E+00 0.  1.
         25    2    1    2    0    0  0.99395527882E+01 -0.35568313413E+02  0.71959413760E+03  0.73131910026E+03  0.12509198177E+03 0.  0.
          5    1    3    3  502    0  0.65885168075E+00  0.42872458079E+02  0.38973549060E+03  0.39210930463E+03  0.41800000000E+01 0. -1.
         -5    1    3    3    0  502  0.92807011074E+01 -0.78440771492E+02  0.32985864701E+03  0.33920979563E+03  0.41800000000E+01 0. -1.
        -11    1    1    2    0    0 -0.35046207140E+02  0.38145180557E+02  0.14352211211E+03  0.15258403619E+03  0.00000000000E+00 0. -1.
         11    1    1    2    0    0  0.25106654351E+02 -0.25768671443E+01  0.11500840690E+01  0.25264738874E+02  0.00000000000E+00 0.  1.
</event>
<event>
 7    1  0.3056346E-009  0.1424579E+03  0.7561462E-02  0.1210059E+00
         -1   -1    0    0    0  501 -0.00000000000E+00  0.00000000000E+00  0.72069301093E+02  0.72069301093E+02  0.00000000000E+00 0.  1.
          1   -1    0    0  501    0  0.00000000000E+00 -0.00000000000E+00 -0.28346420743E+03  0.28346420743E+03  0.00000000000E+00 0. -1.
         25    2    1    2    0    0  0.47644622520E+02 -0.80320450575E+02 -0.12631497374E+03  0.20081106700E+03  0.12509287430E+03 0.  0.
          5    1    3    3  502    0 -0.18682228665E+02  0.24935483597E+02 -0.21585700245E+02  0.38134221707E+02  0.41800000000E+01 0. -1.
         -5    1    3    3    0  502  0.66326851186E+02 -0.10525593417E+03 -0.10472927349E+03  0.16267684529E+03  0.41800000000E+01 0. -1.
        -11    1    1    2    0    0 -0.47604942160E+02 -0.10605800811E+01 -0.26969227590E+02  0.54723802728E+02  0.00000000000E+00 0. -1.
         11    1    1    2    0    0 -0.39680359790E-01  0.81381030656E+02 -0.58110705011E+02  0.99998638801E+02  0.00000000000E+00 0.  1.
</event>
<event>
 7    1  0.3056346E-009  0.2308643E+03  0.7561462E-02  0.1126033E+00
          2   -1    0    0  501    0  0.00000000000E+00  0.00000000000E+00  0.50889244051E+03  0.50889244051E+03  0.00000000000E+00 0. -1.
         -2   -1    0    0    0  501 -0.00000000000E+00 -0.00000000000E+00 -0.11781030820E+03  0.11781030820E+03  0.00000000000E+00 0.  1.
         25    2    1    2    0    0  0.45271967018E+02  0.20705213689E+03  0.13223614277E+03  0.27938105055E+03  0.12508891062E+03 0.  0.
          5    1    3    3  502    0  0.86623794474E+02  0.15244022596E+03  0.78175733346E+02  0.19201724387E+03  0.41800000000E+01 0. -1.
         -5    1    3    3    0  502 -0.41351827457E+02  0.54611910927E+02  0.54060409428E+02  0.87363806674E+02  0.41800000000E+01 0. -1.
        -11    1    1    2    0    0 -0.34172702890E+01 -0.12988294877E+03  0.93359893389E+02  0.15999164919E+03  0.00000000000E+00 0.  1.
         11    1    1    2    0    0 -0.41854696729E+02 -0.77169188122E+02  0.16548609614E+03  0.18733004898E+03  0.00000000000E+00 0. -1.
</event>
<event>
 7    1  0.3056346E-009  0.1856440E+03  0.7561462E-02  0.1162450E+00
         -1   -1    0    0    0  501 -0.00000000000E+00  0.00000000000E+00  0.67832940258E+02  0.67832940258E+02  0.00000000000E+00 0.  1.
          1   -1    0    0  501    0  0.00000000000E+00 -0.00000000000E+00 -0.11762939787E+04  0.11762939787E+04  0.00000000000E+00 0. -1.
         25    2    1    2    0    0 -0.10405416011E+03  0.12995673823E+03 -0.10090140789E+04  0.10302783633E+04  0.12509225525E+03 0.  0.
          5    1    3    3  502    0 -0.37096802269E+02 -0.85921956748E+01 -0.81220767411E+02  0.89801358698E+02  0.41800000000E+01 0.  1.
         -5    1    3    3    0  502 -0.66957357841E+02  0.13854893390E+03 -0.92779331153E+03  0.94047700459E+03  0.41800000000E+01 0.  1.
        -11    1    1    2    0    0  0.40292022528E+02 -0.75043322486E+01  0.42197387469E+01  0.41201556730E+02  0.00000000000E+00 0.  1.
         11    1    1    2    0    0  0.63762137583E+02 -0.12245240598E+03 -0.10366669828E+03  0.17264699897E+03  0.00000000000E+00 0. -1.
</event>
<event>
 7    1  0.3056346E-009  0.1061602E+03  0.7561462E-02  0.1267850E+00
          1   -1    0    0  501    0  0.00000000000E+00  0.00000000000E+00  0.10564282849E+03  0.10564282849E+03  0.00000000000E+00 0. -1.
         -1   -1    0    0    0  501 -0.00000000000E+00 -0.00000000000E+00 -0.18175469120E+03  0.18175469120E+03  0.00000000000E+00 0.  1.
         25    2    1    2    0    0  0.48757465625E+02 -0.58041087457E+02  0.50627167856E+01  0.14635106407E+03  0.12508774747E+03 0.  0.
          5    1    3    3  502    0 -0.19469315128E+02  0.18332624193E+01 -0.40150351318E+02  0.44854634026E+02  0.41800000000E+01 0. -1.
         -5    1    3    3    0  502  0.68226780753E+02 -0.59874349877E+02  0.45213068104E+02  0.10149643005E+03  0.41800000000E+01 0. -1.
        -11    1    1    2    0    0  0.38517995979E+01  0.47678007511E+02 -0.52838745180E+01  0.48124298336E+02  0.00000000000E+00 0. -1.
         11    1    1    2    0    0 -0.52609265223E+02  0.10363079946E+02 -0.75890704978E+02  0.92922157289E+02  0.00000000000E+00 0.  1.
</event>
<event>
 7    1  0.3056346E-009  0.7841405E+02  0.7561462E-02  0.1333613E+00
          2   -1    0    0  501    0  0.00000000000E+00  0.00000000000E+00  0.41751512161E+02  0.41751512161E+02  0.00000000000E+00 0. -1.
         -2   -1    0    0    0  501 -0.00000000000E+00 -0.00000000000E+00 -0.47680593306E+03  0.47680593306E+03  0.00000000000E+00 0.  1.
         25    2    1    2    0    0  0.21404757654E+02  0.20747844218E+02 -0.38914161069E+03  0.40983804120E+03  0.12508952858E+03 0.  0.
          5    1    3    3  502    0  0.72271759012E+01 -0.45702441501E+02 -0.25728245782E+03  0.26144345609E+03  0.41800000000E+01 0. -1.
         -5    1    3    3    0  502  0.14177581752E+02  0.66450285719E+02 -0.13185915287E+03  0.14839458512E+03  0.41800000000E+01 0. -1.
        -11    1    1    2    0    0 -0.22488229467E+02 -0.99267729775E+00 -0.72308880939E+02  0.75731632331E+02  0.00000000000E+00 0.  1.
         11    1    1    2    0    0  0.10834718131E+01 -0.19755166921E+02  0.26396070725E+02  0.32987771688E+02  0.00000000000E+00 0. -1.
</event>
<event>
 7    1  0.3056346E-009  0.1340076E+03  0.7561462E-02  0.1221627E+00
          1   -1    0    0  501    0  0.00000000000E+00  0.00000000000E+00  0.43533975365E+03  0.43533975365E+03  0.00000000000E+00 0. -1.
         -1   -1    0    0    0  501 -0.00000000000E+00 -0.00000000000E+00 -0.41799479843E+02  0.41799479843E+02  0.00000000000E+00 0.  1.
         25    2    1    2    0    0 -0.77247082499E+02 -0.17686223443E+02  0.20335144887E+03  0.25155300911E+03  0.12508873003E+03 0.  0.
          5    1    3    3  502    0  0.28066596223E+01  0.45524741717E+02  0.57202281511E+02  0.73279962177E+02  0.41800000000E+01 0.  1.
         -5    1    3    3    0  502 -0.80053742121E+02 -0.63210965159E+02  0.14614916736E+03  0.17827304694E+03  0.41800000000E+01 0.  1.
        -11    1    1    2    0    0  0.95613347378E+02  0.14687864003E+01  0.16306033323E+03  0.18903106042E+03  0.00000000000E+00 0.  1.
         11    1    1    2    0    0 -0.18366264879E+02  0.16217437042E+02  0.27128491697E+02  0.36555163953E+02  0.00000000000E+00 0. -1.
</event>
<event>
 7    1  0.3056346E-009  0.3410180E+02  0.7561462E-02  0.1556725E+00
         -1   -1    0    0    0  501 -0.00000000000E+00  0.00000000000E+00  0.26566194544E+02  0.26566194544E+02  0.00000000000E+00 0. -1.
          1   -1    0    0  501    0  0.00000000000E+00 -0.00000000000E+00 -0.53826836621E+03  0.53826836621E+03  0.00000000000E+00 0.  1.
         25    2    1    2    0    0  0.74655814834E+01  0.63077858443E+01 -0.40805051730E+03  0.42690702251E+03  0.12509539611E+03 0.  0.
          5    1    3    3  502    0 -0.11817237607E+02  0.10597504401E+02 -0.40630903111E+03  0.40664044974E+03  0.41800000000E+01 0. -1.
         -5    1    3    3    0  502  0.19282819090E+02 -0.42897185571E+01 -0.17414861849E+01  0.20266572761E+02  0.41800000000E+01 0. -1.
        -11    1    1    2    0    0 -0.19151770866E+02 -0.52811675672E+01 -0.11784829238E+03  0.11951109185E+03  0.00000000000E+00 0.  1.
         11    1    1    2    0    0  0.11686189383E+02 -0.10266182771E+01  0.14196638008E+02  0.18416446403E+02  0.00000000000E+00 0. -1.
</event>
<event>
 7    1  0.3056346E-009  0.1585737E+03  0.7561462E-02  0.1190317E+00
          2   -1    0    0  501    0  0.00000000000E+00  0.00000000000E+00  0.95376647923E+02  0.95376647923E+02  0.00000000000E+00 0.  1.
         -2   -1    0    0    0  501 -0.00000000000E+00 -0.00000000000E+00 -0.40878937367E+03  0.40878937367E+03  0.00000000000E+00 0. -1.
         25    2    1    2    0    0  0.57785421751E+01  0.12814479667E+03 -0.32369862461E+02  0.18207166068E+03  0.12509117141E+03 0.  0.
          5    1    3    3  502    0  0.12773056444E+02 -0.23356309777E+02 -0.48550100491E-01  0.26947039437E+02  0.41800000000E+01 0. -1.
         -5    1    3    3    0  502 -0.69945142689E+01  0.15150110645E+03 -0.32321312361E+02  0.15512462125E+03  0.41800000000E+01 0. -1.
        -11    1    1    2    0    0 -0.27852092853E+02 -0.49514055363E+02 -0.45470092928E+02  0.72766132958E+02  0.00000000000E+00 0.  1.
         11    1    1    2    0    0  0.22073550678E+02 -0.78630741308E+02 -0.23557277035E+03  0.24932822795E+03  0.00000000000E+00 0. -1.
</event>
<event>
 7    1  0.3056346E-009  0.9568296E+02  0.7561462E-02  0.1289645E+00
         -2   -1    0    0    0  501 -0.00000000000E+00  0.00000000000E+00  0.14617671462E+03  0.14617671462E+03  0.00000000000E+00 0. -1.
          2   -1    0    0  501    0  0.00000000000E+00 -0.00000000000E+00 -0.88910262716E+02  0.88910262716E+02  0.00000000000E+00 0.  1.
         25    2    1    2    0    0 -0.23401981179E+02 -0.14653504625E+02  0.64969538853E+02  0.14363539478E+03  0.12509079796E+03 0.  0.
          5    1    3    3  502    0 -0.70416536055E+02 -0.17914978366E+02  0.63036321122E+02  0.96283358793E+02  0.41800000000E+01 0.  1.
         -5    1    3    3    0  502  0.47014554876E+02  0.32614737411E+01  0.19332177307E+01  0.47352035985E+02  0.41800000000E+01 0.  1.
        -11    1    1    2    0    0  0.34665381095E+02  0.34211309418E+02  0.22579591268E+02  0.53683705912E+02  0.00000000000E+00 0. -1.
         11    1    1    2    0    0 -0.11263399916E+02 -0.19557804794E+02 -0.30282678219E+02  0.37767876643E+02  0.00000000000E+00 0.  1.
</event>
<event>
 7    1  0.3056346E-009  0.1361179E+03  0.7561462E-02  0.1218650E+00
         -2   -1    0    0    0  501 -0.00000000000E+00  0.00000000000E+00  0.48815715067E+03  0.48815715067E+03  0.00000000000E+00 0.  1.
          2   -1    0    0  501    0  0.00000000000E+00 -0.00000000000E+00 -0.14982479724E+03  0.14982479724E+03  0.00000000000E+00 0. -1.
         25    2    1    2    0    0 -0.74801886482E+02  0.96217512851E+02  0.42695840605E+03  0.46129607845E+03  0.12508980571E+03 0.  0.
          5    1    3    3  502    0 -0.15277330071E+02  0.30729738798E+02  0.32240544731E+03  0.32425369468E+03  0.41800000000E+01 0. -1.
         -5    1    3    3    0  502 -0.59524556411E+02  0.65487774053E+02  0.10455295874E+03  0.13704238376E+03  0.41800000000E+01 0. -1.
        -11    1    1    2    0    0 -0.11039622569E+02 -0.50733991604E+02 -0.50183371338E+02  0.72209292542E+02  0.00000000000E+00 0. -1.
         11    1    1    2    0    0  0.85841509051E+02 -0.45483521247E+02 -0.38442681275E+02  0.10447657692E+03  0.00000000000E+00 0.  1.
</event>
<event>
 7    1  0.3056346E-009  0.1483631E+03  0.7561462E-02  0.1202499E+00
         -1   -1    0    0    0  501 -0.00000000000E+00  0.00000000000E+00  0.88450174602E+03  0.88450174602E+03  0.00000000000E+00 0.  1.
          1   -1    0    0  501    0  0.00000000000E+00 -0.00000000000E+00 -0.31166633964E+02  0.31166633964E+02  0.00000000000E+00 0. -1.
         25    2    1    2    0    0  0.61048492816E+02 -0.79700194369E+02  0.65022622670E+03  0.66971657357E+03  0.12508838304E+03 0.  0.
          5    1    3    3  502    0  0.89081695457E+02 -0.91244816853E+02  0.56303835096E+03  0.57731345223E+03  0.41800000000E+01 0. -1.
         -5    1    3    3    0  502 -0.28033202641E+02  0.11544622483E+02  0.87187875741E+02  0.92403121348E+02  0.41800000000E+01 0. -1.
        -11    1    1    2    0    0 -0.61554333508E+01  0.83296427201E+02  0.11643593968E+03  0.14329519250E+03  0.00000000000E+00 0.  1.
         11    1    1    2    0    0 -0.54893059465E+02 -0.35962328321E+01  0.86672945681E+02  0.10265661392E+03  0.00000000000E+00 0. -1.
</event>
<event>
 7    1  0.3056346E-009  0.1326438E+03  0.7561462E-02  0.1223585E+00
         -2   -1    0    0    0  501 -0.00000000000E+00  0.00000000000E+00  0.12087413061E+04  0.12087413061E+04  0.00000000000E+00 0.  1.
          2   -1    0    0  501    0  0.00000000000E+00 -0.00000000000E+00 -0.15813490835E+02  0.15813490835E+02  0.00000000000E+00 0. -1.
         25    2    1    2    0    0  0.31143800058E+02 -0.79298338352E+02  0.69554657151E+03  0.71182195311E+03  0.12508915640E+03 0.  0.
          5    1    3    3  502    0  0.72057538197E+02 -0.32986661651E+02  0.25846766673E+03  0.27037643352E+03  0.41800000000E+01 0.  1.
         -5    1    3    3    0  502 -0.40913738139E+02 -0.46311676701E+02  0.43707890478E+03  0.44144551959E+03  0.41800000000E+01 0.  1.
        -11    1    1    2    0    0  0.31030899722E+02  0.39250943998E+02  0.17782652904E+03  0.18473177250E+03  0.00000000000E+00 0. -1.
         11    1    1    2    0    0 -0.62174699780E+02  0.40047394355E+02  0.31955471475E+03  0.32800107135E+03  0.00000000000E+00 0.  1.
</event>
<event>
 6    1  0.3056346E-009  0.2512943E+03  0.7561462E-02  0.1112490E+00
         -1   -1    0    0    0  501 -0.00000000000E+00  0.00000000000E+00  0.43888420966E+03  0.43888420966E+03  0.00000000000E+00 0.  1.
          1   -1    0    0  501    0  0.00000000000E+00 -0.00000000000E+00 -0.15735527336E+03  0.15735527336E+03  0.00000000000E+00 0. -1.
          5    1    1    2  502    0  0.21531685958E+01  0.15712084000E+03  0.82213282620E+02  0.17739247655E+03  0.41800000000E+01 0. -1.
         -5    1    1    2    0  502 -0.75033966065E+02  0.63966131827E+02  0.12022704696E+03  0.15554349007E+03  0.41800000000E+01 0. -1.
        -11    1    1    2    0    0 -0.16767800882E+02 -0.60647696516E+02 -0.74227680173E+00  0.62927364588E+02  0.00000000000E+00 0. -1.
         11    1    1    2    0    0  0.89648598351E+02 -0.16043927531E+03  0.79830883526E+02  0.20037615181E+03  0.00000000000E+00 0.  1.
</event>
<event>
 7    1  0.3056346E-009  0.1884415E+03  0.7561462E-02  0.1159875E+00
          2   -1    0    0  501    0  0.00000000000E+00  0.00000000000E+00  0.14141719557E+03  0.14141719557E+03  0.00000000000E+00 0. -1.
         -2   -1    0    0    0  501 -0.00000000000E+00 -0.00000000000E+00 -0.30734501658E+03  0.30734501658E+03  0.00000000000E+00 0.  1.
         25    2    1    2    0    0  0.15669501089E+03 -0.70379783784E+01 -0.17517754987E+03  0.26633993356E+03  0.12508767586E+03 0.  0.
          5    1    3    3  502    0  0.11534258954E+03  0.50501207805E+02 -0.13551366206E+03  0.18502894356E+03  0.41800000000E+01 0. -1.
         -5    1    3    3    0  502  0.41352421358E+02 -0.57539186183E+02 -0.39663887812E+02  0.81310990002E+02  0.41800000000E+01 0. -1.
        -11    1    1    2    0    0 -0.16635144305E+03 -0.24669368009E+01  0.16267599234E+02  0.16716316331E+03  0.00000000000E+00 0.  1.
         11    1    1    2    0    0  0.96564321532E+01  0.95049151793E+01 -0.70178703767E+01  0.15259115280E+02  0.00000000000E+00 0. -1.
</event>
<event>
 7    1  0.3056346E-009  0.1322298E+03  0.7561462E-02  0.1224184E+00
          2   -1    0    0  501    0  0.00000000000E+00  0.00000000000E+00  0.12507314586E+03  0.12507314586E+03  0.00000000000E+00 0. -1.
         -2   -1    0    0    0  501 -0.00000000000E+00 -0.00000000000E+00 -0.14426525580E+03  0.14426525580E+03  0.00000000000E+00 0.  1.
         25    2    1    2    0    0  0.43757491492E+02  0.65548118917E+02 -0.11789765012E+02  0.14831654761E+03  0.12509007067E+03 0.  0.
          5    1    3    3  502    0 -0.32033352399E+02  0.64264193691E+02 -0.52384930319E+01  0.72117518440E+02  0.41800000000E+01 0.  1.
         -5    1    3    3    0  502  0.75790843891E+02  0.12839252269E+01 -0.65512719802E+01  0.76199029169E+02  0.41800000000E+01 0.  1.
        -11    1    1    2    0    0 -0.73143892691E+00 -0.72953347436E+02  0.10740776945E+02  0.73743407803E+02  0.00000000000E+00 0. -1.
         11    1    1    2    0    0 -0.43026052565E+02  0.74052285182E+01 -0.18143121864E+02  0.47278446249E+02  0.00000000000E+00 0.  1.
</event>
<event>
 7    1  0.3056346E-009  0.1028180E+03  0.7561462E-02  0.1274479E+00
         -3   -1    0    0    0  501 -0.00000000000E+00  0.00000000000E+00  0.23170882832E+03  0.23170882832E+03  0.00000000000E+00 0.  1.
          3   -1    0    0  501    0  0.00000000000E+00 -0.00000000000E+00 -0.52783246021E+02  0.52783246021E+02  0.00000000000E+00 0. -1.
         25    2    1    2    0    0  0.98602901095E+01  0.33681024211E+02  0.91645483519E+02  0.15899279773E+03  0.12509267911E+03 0.  0.
          5    1    3    3  502    0  0.65479346088E+02  0.27628079760E+02  0.35239811784E+02  0.79436592890E+02  0.41800000000E+01 0.  1.
         -5    1    3    3    0  502 -0.55619055979E+02  0.60529444515E+01  0.56405671735E+02  0.79556204839E+02  0.41800000000E+01 0.  1.
        -11    1    1    2    0    0 -0.25050635098E+02 -0.50074539402E+02  0.86619260751E+02  0.10314014809E+03  0.00000000000E+00 0.  1.
         11    1    1    2    0    0  0.15190344988E+02  0.16393515191E+02  0.66083802587E+00  0.22359128518E+02  0.00000000000E+00 0. -1.
</event>
<event>
 7    1  0.3056346E-009  0.1022955E+03  0.7561462E-02  0.1275542E+00
          1   -1    0    0  501    0  0.00000000000E+00  0.00000000000E+00  0.18036343449E+03  0.18036343449E+03  0.00000000000E+00 0. -1.
         -1   -1    0    0    0  501 -0.00000000000E+00 -0.00000000000E+00 -0.68473873995E+02  0.68473873995E+02  0.00000000000E+00 0.  1.
         25    2    1    2    0    0  0.20922226557E+02 -0.27514222887E+02  0.55978764331E+02  0.14133796636E+03  0.12509207270E+03 0.  0.
          5    1    3    3  502    0  0.67073553476E+02 -0.18546138524E+02  0.21537992009E+01  0.69749065091E+02  0.41800000000E+01 0.  1.
         -5    1    3    3    0  502 -0.46151326919E+02 -0.89680843630E+01  0.53824965130E+02  0.71588901268E+02  0.41800000000E+01 0.  1.
        -11    1    1    2    0    0  0.29186580871E+02 -0.24522977280E+01  0.34632280628E+02  0.45357084657E+02  0.00000000000E+00 0. -1.
         11    1    1    2    0    0 -0.50108807428E+02  0.29966520615E+02  0.21278515532E+02  0.62142257465E+02  0.00000000000E+00 0.  1.
</event>
<event>
 7    1  0.3056346E-009  0.9518946E+02  0.7561462E-02  0.1290750E+00
          2   -1    0    0  501    0  0.00000000000E+00  0.00000000000E+00  0.20571669991E+02  0.20571669991E+02  0.00000000000E+00 0. -1.
         -2   -1    0    0    0  501 -0.00000000000E+00 -0.00000000000E+00 -0.69640586759E+03  0.69640586759E+03  0.00000000000E+00 0.  1.
         25    2    1    2    0    0 -0.40610177454E+02 -0.32419780734E+02 -0.36577870606E+03  0.39004532967E+03  0.12506425826E+03 0.  0.
          5    1    3    3  502    0  0.10522981925E+02  0.13874990991E+02 -0.11474558741E+00  0.17909050509E+02  0.41800000000E+01 0. -1.
         -5    1    3    3    0  502 -0.51133159379E+02 -0.46294771725E+02 -0.36566396048E+03  0.37213627916E+03  0.41800000000E+01 0. -1.
        -11    1    1    2    0    0  0.62586870286E+02 -0.18976496952E+01 -0.17514151813E+03  0.18599803434E+03  0.00000000000E+00 0.  1.
         11    1    1    2    0    0 -0.21976692832E+02  0.34317430430E+02 -0.13491397341E+03  0.14093417357E+03  0.00000000000E+00 0. -1.
</event>
<event>
 7    1  0.3056346E-009  0.1883130E+03  0.7561462E-02  0.1159992E+00
         -2   -1    0    0    0  501 -0.00000000000E+00  0.00000000000E+00  0.54473929334E+02  0.54473929334E+02  0.00000000000E+00 0.  1.
          2   -1    0    0  501    0  0.00000000000E+00 -0.00000000000E+00 -0.71508351619E+03  0.71508351619E+03  0.00000000000E+00 0. -1.
         25    2    1    2    0    0  0.48284611646E+02  0.13771438913E+03 -0.29675913119E+03  0.35356723120E+03  0.12508856198E+03 0.  0.
          5    1    3    3  502    0 -0.27833941680E+02 -0.36039972776E+01 -0.71608327695E+02  0.77025593805E+02  0.41800000000E+01 0.  1.
         -5    1    3    3    0  502  0.76118553325E+02  0.14131838641E+03 -0.22515080350E+03  0.27654163740E+03  0.41800000000E+01 0.  1.
        -11    1    1    2    0    0 -0.86520211630E+02 -0.11232405749E+03 -0.19553672714E+03  0.24153064521E+03  0.00000000000E+00 0. -1.
         11    1    1    2    0    0  0.38235599984E+02 -0.25390331641E+02 -0.16831372852E+03  0.17445956912E+03  0.00000000000E+00 0.  1.
</event>
<event>
 7    1  0.3104309E-009  0.1394567E+03  0.7561462E-02  0.1214062E+00
          1   -1    0    0  501    0  0.00000000000E+00  0.00000000000E+00  0.22203877515E+03  0.22203877515E+03  0.00000000000E+00 0. -1.
         -1   -1    0    0    0  501 -0.00000000000E+00 -0.00000000000E+00 -0.13272821155E+03  0.13272821155E+03  0.00000000000E+00 0.  1.
         25    2    1    2    0    0  0.80801092677E+02 -0.59303857804E+02 -0.42542003694E+02  0.16584105068E+03  0.12509063867E+03 0.  0.
          5    1    3    3  502    0  0.65348928381E+02  0.18471728096E+02  0.12562685989E+02  0.69188009501E+02  0.41800000000E+01 0. -1.
         -5    1    3    3    0  502  0.15452164296E+02 -0.77775585900E+02 -0.55104689683E+02  0.96653041176E+02  0.41800000000E+01 0. -1.
        -11    1    1    2    0    0 -0.91012356783E+02  0.23162542037E+02  0.72300240268E+02  0.11852036611E+03  0.00000000000E+00 0.  1.
         11    1    1    2    0    0  0.10211264106E+02  0.36141315768E+02  0.59552327032E+02  0.70405569914E+02  0.00000000000E+00 0. -1.
</event>
<event>
 7    1  0.3056346E-009  0.1317299E+03  0.7561462E-02  0.1224911E+00
          1   -1    0    0  501    0  0.00000000000E+00  0.00000000000E+00  0.21228969038E+02  0.21228969038E+02  0.00000000000E+00 0. -1.
         -1   -1    0    0    0  501 -0.00000000000E+00 -0.00000000000E+00 -0.85324071063E+03  0.85324071063E+03  0.00000000000E+00 0.  1.
         25    2    1    2    0    0 -0.61815347877E+02 -0.44903043446E+02 -0.52508975077E+03  0.54516343494E+03  0.12508598597E+03 0.  0.
          5    1    3    3  502    0  0.32109295099E+02 -0.40464123972E+02 -0.16299736330E+03  0.17103790517E+03  0.41800000000E+01 0.  1.
         -5    1    3    3    0  502 -0.93924642975E+02 -0.44389194733E+01 -0.36209238747E+03  0.37412552977E+03  0.41800000000E+01 0.  1.
        -11    1    1    2    0    0  0.60635712446E+02  0.69873187545E+02 -0.21530139706E+03  0.23433660306E+03  0.00000000000E+00 0. -1.
         11    1    1    2    0    0  0.11796354304E+01 -0.24970144100E+02 -0.91620593766E+02  0.94969641665E+02  0.00000000000E+00 0.  1.
</event>
<event>
 7    1  0.3056346E-009  0.1328415E+03  0.7561462E-02  0.1223299E+00
         -1   -1    0    0    0  501 -0.00000000000E+00  0.00000000000E+00  0.40608713355E+03  0.40608713355E+03  0.00000000000E+00 0.  1.
          1   -1    0    0  501    0  0.00000000000E+00 -0.00000000000E+00 -0.57827396902E+02  0.57827396902E+02  0.00000000000E+00 0. -1.
         25    2    1    2    0    0  0.70595153432E+02 -0.64831007935E+02  0.11300650947E+03  0.19392005727E+03  0.12509109540E+03 0.  0.
          5    1    3    3  502    0  0.10777049473E+02 -0.82892782915E+02  0.27833206216E+02  0.88201576080E+02  0.41800000000E+01 0.  1.
         -5    1    3    3    0  502  0.59818103959E+02  0.18061774980E+02  0.85173303256E+02  0.10571848119E+03  0.41800000000E+01 0.  1.
        -11    1    1    2    0    0 -0.80306593957E+02  0.34300571370E+02  0.10861249935E+03  0.13936410314E+03  0.00000000000E+00 0. -1.
         11    1    1    2    0    0  0.97114405248E+01  0.30530436565E+02  0.12664072783E+03  0.13063037005E+03  0.00000000000E+00 0.  1.
</event>
<event>
 7    1  0.4718960E-009  0.1265421E+03  0.7561462E-02  0.1232679E+00
         -2   -1    0    0    0  501 -0.00000000000E+00  0.00000000000E+00  0.23984495465E+02  0.23984495465E+02  0.00000000000E+00 0.  1.
          2   -1    0    0  501    0  0.00000000000E+00 -0.00000000000E+00 -0.99556239899E+03  0.99556239899E+03  0.00000000000E+00 0. -1.
         25    2    1    2    0    0  0.64309584788E+02  0.83154342633E+02 -0.62082295008E+03  0.64196493888E+03  0.12508988773E+03 0.  0.
          5    1    3    3  502    0  0.41763080086E+02  0.12474762371E+02 -0.50574572641E+02  0.66895697562E+02  0.41800000000E+01 0.  1.
         -5    1    3    3    0  502  0.22546504703E+02  0.70679580262E+02 -0.57024837744E+03  0.57506924132E+03  0.41800000000E+01 0.  1.
        -11    1    1    2    0    0 -0.82408996183E+02 -0.47786743113E+02 -0.28763210231E+03  0.30299676854E+03  0.00000000000E+00 0.  1.
         11    1    1    2    0    0  0.18099411395E+02 -0.35367599520E+02 -0.63122851129E+02  0.74585187024E+02  0.00000000000E+00 0. -1.
</event>
<event>
 6    1  0.3056346E-009  0.1016201E+03  0.7561462E-02  0.1276926E+00
         -3   -1    0    0    0  501 -0.00000000000E+00  0.00000000000E+00  0.11848983165E+03  0.11848983165E+03  0.00000000000E+00 0.  1.
          3   -1    0    0  501    0  0.00000000000E+00 -0.00000000000E+00 -0.20016185382E+03  0.20016185382E+03  0.00000000000E+00 0. -1.
          5    1    1    2  502    0  0.14957668075E+02  0.40105065793E+02  0.24001682167E+02  0.49251408948E+02  0.41800000000E+01 0.  1.
         -5    1    1    2    0  502  0.15661390842E+02 -0.94178435308E+02  0.24445347775E+02  0.98640277109E+02  0.41800000000E+01 0.  1.
        -11    1    1    2    0    0 -0.17440147979E+02  0.13633636437E+02 -0.12611037472E+03  0.12803851537E+03  0.00000000000E+00 0. -1.
         11    1    1    2    0    0 -0.13178910938E+02  0.40439733078E+02 -0.40086773871E+01  0.42721484049E+02  0.00000000000E+00 0.  1.
</event>
<event>
 7    1  0.3056346E-009  0.4515228E+02  0.7561462E-02  0.1473393E+00
         -1   -1    0    0    0  501 -0.00000000000E+00  0.00000000000E+00  0.28102641287E+03  0.28102641287E+03  0.00000000000E+00 0.  1.
          1   -1    0    0  501    0  0.00000000000E+00 -0.00000000000E+00 -0.49622544337E+02  0.49622544337E+02  0.00000000000E+00 0. -1.
         25    2    1    2    0    0 -0.13405548582E+02 -0.38967196353E+01  0.66715747096E+02  0.14246078298E+03  0.12509672506E+03 0.  0.
          5    1    3    3  502    0 -0.93126573254E+01  0.10603313292E+01  0.10394483813E+03  0.10445023534E+03  0.41800000000E+01 0. -1.
         -5    1    3    3    0  502 -0.40928912564E+01 -0.49570509645E+01 -0.37229091030E+02  0.38010547642E+02  0.41800000000E+01 0. -1.
        -11    1    1    2    0    0  0.40186251101E+02 -0.11085650977E+02  0.14693918947E+03  0.15273818068E+03  0.00000000000E+00 0.  1.
         11    1    1    2    0    0 -0.26780702519E+02  0.14982370613E+02  0.17748931967E+02  0.35449993548E+02  0.00000000000E+00 0. -1.
</event>
<event>
 7    1  0.3056346E-009  0.1160747E+03  0.7561462E-02  0.1249717E+00
         -1   -1    0    0    0  501 -0.00000000000E+00  0.00000000000E+00  0.40213370301E+03  0.40213370301E+03  0.00000000000E+00 0.  1.
          1   -1    0    0  501    0  0.00000000000E+00 -0.00000000000E+00 -0.40351075457E+02  0.40351075457E+02  0.00000000000E+00 0. -1.
         25    2    1    2    0    0  0.50908160671E+02 -0.41898013401E+02  0.20529427542E+03  0.24927968399E+03  0.12509011545E+03 0.  0.
          5    1    3    3  502    0  0.71694416934E+02 -0.62542977547E+02  0.92844394955E+02  0.13300100576E+03  0.41800000000E+01 0.  1.
         -5    1    3    3    0  502 -0.20786256263E+02  0.20644964146E+02  0.11244988047E+03  0.11627867823E+03  0.41800000000E+01 0.  1.
        -11    1    1    2    0    0  0.83499746374E+01  0.47103190483E+02  0.39801603667E+02  0.62230220027E+02  0.00000000000E+00 0.  1.
         11    1    1    2    0    0 -0.59258135308E+02 -0.52051770820E+01  0.11668674847E+03  0.13097487445E+03  0.00000000000E+00 0. -1.
</event>
<event>
 7    1  0.3056346E-009  0.1401440E+03  0.7561462E-02  0.1213135E+00
          2   -1    0    0  501    0  0.00000000000E+00  0.00000000000E+00  0.19067371569E+04  0.19067371569E+04  0.00000000000E+00 0. -1.
         -2   -1    0    0    0  501 -0.00000000000E+00 -0.00000000000E+00 -0.28743118790E+02  0.28743118790E+02  0.00000000000E+00 0.  1.
         25    2    1    2    0    0  0.11942011638E+03 -0.12017053850E+02  0.16692212572E+04  0.16781988358E+04  0.12508458360E+03 0.  0.
          5    1    3    3  502    0  0.86782072725E+02 -0.30794309268E+02  0.15575665387E+04  0.15602917716E+04  0.41800000000E+01 0.  1.
         -5    1    3    3    0  502  0.32638043656E+02  0.18777255419E+02  0.11165471849E+03  0.11790706414E+03  0.41800000000E+01 0.  1.
        -11    1    1    2    0    0 -0.95164185495E+02  0.48191031946E+02  0.15310274755E+03  0.18659863094E+03  0.00000000000E+00 0.  1.
         11    1    1    2    0    0 -0.24255930885E+02 -0.36173978096E+02  0.55670033382E+02  0.70682809022E+02  0.00000000000E+00 0. -1.
</event>
<event>
 7    1  0.3056346E-009  0.2102355E+03  0.7561462E-02  0.1141380E+00
         -2   -1    0    0    0  501 -0.00000000000E+00  0.00000000000E+00  0.89600620377E+02  0.89600620377E+02  0.00000000000E+00 0.  1.
          2   -1    0    0  501    0  0.00000000000E+00 -0.00000000000E+00 -0.55913420445E+03  0.55913420445E+03  0.00000000000E+00 0. -1.
         25    2    1    2    0    0  0.14857434788E+01  0.18376454810E+03 -0.33952222637E+03  0.40582967153E+03  0.12510301165E+03 0.  0.
          5    1    3    3  502    0 -0.32388574553E+02  0.18517299926E+03 -0.29201691691E+03  0.34731745073E+03  0.41800000000E+01 0.  1.
         -5    1    3    3    0  502  0.33874318032E+02 -0.14084511619E+01 -0.47505309460E+02  0.58512220807E+02  0.41800000000E+01 0.  1.
        -11    1    1    2    0    0 -0.37568735324E+02 -0.10833750300E+03 -0.10539051265E+03  0.15574204501E+03  0.00000000000E+00 0.  1.
         11    1    1    2    0    0  0.36082991845E+02 -0.75427045104E+02 -0.24620845057E+02  0.87163108280E+02  0.00000000000E+00 0. -1.
</event>
<event>
 7    1  0.3056346E-009  0.1026269E+03  0.7561462E-02  0.1274867E+00
         -2   -1    0    0    0  501 -0.00000000000E+00  0.00000000000E+00  0.70947654079E+02  0.70947654079E+02  0.00000000000E+00 0.  1.
          2   -1    0    0  501    0  0.00000000000E+00 -0.00000000000E+00 -0.26304132788E+03  0.26304132788E+03  0.00000000000E+00 0. -1.
         25    2    1    2    0    0  0.39490692893E+01  0.23347998160E+02 -0.21304491423E+03  0.24820535574E+03  0.12512809025E+03 0.  0.
          5    1    3    3  502    0 -0.45366353241E+02 -0.28136475079E+02 -0.11553588050E+03  0.12734119254E+03  0.41800000000E+01 0.  1.
         -5    1    3    3    0  502  0.49315422530E+02  0.51484473239E+02 -0.97509033738E+02  0.12086416319E+03  0.41800000000E+01 0.  1.
        -11    1    1    2    0    0 -0.40374955225E+02 -0.13220919761E+02 -0.15303987784E+00  0.42484740201E+02  0.00000000000E+00 0. -1.
         11    1    1    2    0    0  0.36425885936E+02 -0.10127078399E+02  0.21104280312E+02  0.43298886020E+02  0.00000000000E+00 0.  1.
</event>
<event>
 7    1  0.3056346E-009  0.2317671E+03  0.7561462E-02  0.1125402E+00
         -2   -1    0    0    0  501 -0.00000000000E+00  0.00000000000E+00  0.40635830199E+03  0.40635830199E+03  0.00000000000E+00 0.  1.
          2   -1    0    0  501    0  0.00000000000E+00 -0.00000000000E+00 -0.19337044046E+03  0.19337044046E+03  0.00000000000E+00 0. -1.
         25    2    1    2    0    0 -0.18053031573E+03  0.12580329694E+03  0.25345817341E+03  0.35819816317E+03  0.12508882450E+03 0.  0.
          5    1    3    3  502    0 -0.12880409585E+03  0.59937538507E+02  0.74277366364E+02  0.16036708885E+03  0.41800000000E+01 0.  1.
         -5    1    3    3    0  502 -0.51726219878E+02  0.65865758437E+02  0.17918080704E+03  0.19783107433E+03  0.41800000000E+01 0.  1.
        -11    1    1    2    0    0  0.10188528510E+03 -0.16987392357E+02 -0.25841893493E+02  0.10647528482E+03  0.00000000000E+00 0.  1.
         11    1    1    2    0    0  0.78645030631E+02 -0.10881590459E+03 -0.14628418386E+02  0.13505529445E+03  0.00000000000E+00 0. -1.
</event>
<event>
 7    1  0.3056346E-009  0.1180363E+03  0.7561462E-02  0.1246372E+00
          1   -1    0    0  501    0  0.00000000000E+00  0.00000000000E+00  0.28993296892E+03  0.28993296892E+03  0.00000000000E+00 0. -1.
         -1   -1    0    0    0  501 -0.00000000000E+00 -0.00000000000E+00 -0.51845934664E+02  0.51845934664E+02  0.00000000000E+00 0.  1.
         25    2    1    2    0    0  0.13131061770E+02 -0.55574384122E+02  0.12712450094E+03  0.18726766566E+03  0.12509037896E+03 0.  0.
          5    1    3    3  502    0 -0.25053493946E+02  0.27344243066E+02  0.98623405028E+01  0.38602115848E+02  0.41800000000E+01 0.  1.
         -5    1    3    3    0  502  0.38184555717E+02 -0.82918627188E+02  0.11726216044E+03  0.14866554981E+03  0.41800000000E+01 0.  1.
        -11    1    1    2    0    0 -0.32876317601E+02  0.73614450082E+02  0.79657402925E+02  0.11333684909E+03  0.00000000000E+00 0.  1.
         11    1    1    2    0    0  0.19745255831E+02 -0.18040065960E+02  0.31305130390E+02  0.41174388840E+02  0.00000000000E+00 0. -1.
</event>
<event>
 7    1  0.3056346E-009  0.1148801E+03  0.7561462E-02  0.1251791E+00
         -1   -1    0    0    0  501 -0.00000000000E+00  0.00000000000E+00  0.13572809830E+03  0.13572809830E+03  0.00000000000E+00 0.  1.
          1   -1    0    0  501    0  0.00000000000E+00 -0.00000000000E+00 -0.17544307248E+03  0.17544307248E+03  0.00000000000E+00 0. -1.
         25    2    1    2    0    0 -0.22728890127E+02  0.40015176149E+02 -0.12053771261E+03  0.17970593675E+03  0.12508823595E+03 0.  0.
          5    1    3    3  502    0 -0.46942813884E+02 -0.27265291338E+02 -0.24010492056E+02  0.59506302321E+02  0.41800000000E+01 0. -1.
         -5    1    3    3    0  502  0.24213923757E+02  0.67280467487E+02 -0.96527220558E+02  0.12019963443E+03  0.41800000000E+01 0. -1.
        -11    1    1    2    0    0  0.27883081584E+02  0.25609497485E+02  0.29617146771E+02  0.48067535644E+02  0.00000000000E+00 0.  1.
         11    1    1    2    0    0 -0.51541914573E+01 -0.65624673634E+02  0.51205591664E+02  0.83397698390E+02  0.00000000000E+00 0. -1.
</event>
<event>
 7    1  0.3056346E-009  0.1125976E+03  0.7561462E-02  0.1255834E+00
          3   -1    0    0  501    0  0.00000000000E+00  0.00000000000E+00  0.95038165046E+02  0.95038165046E+02  0.00000000000E+00 0. -1.
         -3   -1    0    0    0  501 -0.00000000000E+00 -0.00000000000E+00 -0.16600313025E+03  0.16600313025E+03  0.00000000000E+00 0.  1.
         25    2    1    2    0    0  0.35278506484E+02 -0.36128400108E+02 -0.96739412307E+02  0.16600619764E+03  0.12509879875E+03 0.  0.
          5    1    3    3  502    0  0.96706845647E+01 -0.81701350427E+02 -0.56203296543E+02  0.99724198387E+02  0.41800000000E+01 0. -1.
         -5    1    3    3    0  502  0.25607821920E+02  0.45572950320E+02 -0.40536115764E+02  0.66281999257E+02  0.41800000000E+01 0. -1.
        -11    1    1    2    0    0  0.18650112467E+02 -0.83856450784E+01  0.12172558956E+02  0.23797414355E+02  0.00000000000E+00 0.  1.
         11    1    1    2    0    0 -0.53928618951E+02  0.44514045186E+02  0.13601888144E+02  0.71237683300E+02  0.00000000000E+00 0. -1.
</event>
<event>
 7    1  0.3056346E-009  0.7932026E+02  0.7561462E-02  0.1330992E+00
         -2   -1    0    0    0  501 -0.00000000000E+00  0.00000000000E+00  0.29965858159E+02  0.29965858159E+02  0.00000000000E+00 0.  1.
          2   -1    0    0  501    0  0.00000000000E+00 -0.00000000000E+00 -0.49241756343E+03  0.49241756343E+03  0.00000000000E+00 0. -1.
         25    2    1    2    0    0  0.49201803531E+00  0.18053996067E+02 -0.14884270573E+03  0.19526297998E+03  0.12508913400E+03 0.  0.
          5    1    3    3  502    0  0.11557756534E+02  0.41682085020E+02 -0.16057530830E+03  0.16635167563E+03  0.41800000000E+01 0. -1.
         -5    1    3    3    0  502 -0.11065738498E+02 -0.23628088953E+02  0.11732602572E+02  0.28911304350E+02  0.41800000000E+01 0. -1.
        -11    1    1    2    0    0  0.12723497113E+02 -0.51368376835E+02 -0.13604346206E+03  0.14597404251E+03  0.00000000000E+00 0.  1.
         11    1    1    2    0    0 -0.13215515149E+02  0.33314380768E+02 -0.17756553747E+03  0.18114639909E+03  0.00000000000E+00 0. -1.
</event>
<event>
 7    1  0.3056346E-009  0.1033342E+03  0.7561462E-02  0.1273437E+00
         -3   -1    0    0    0  501 -0.00000000000E+00  0.00000000000E+00  0.69970990413E+02  0.69970990413E+02  0.00000000000E+00 0.  1.
          3   -1    0    0  501    0  0.00000000000E+00 -0.00000000000E+00 -0.18634322370E+03  0.18634322370E+03  0.00000000000E+00 0. -1.
         25    2    1    2    0    0  0.32479423412E+02  0.46981974276E+01 -0.69242844312E+02  0.14670852315E+03  0.12510728705E+03 0.  0.
          5    1    3    3  502    0  0.55931318560E+02 -0.44453703162E+02 -0.23090262116E+02  0.75200244184E+02  0.41800000000E+01 0. -1.
         -5    1    3    3    0  502 -0.23451895148E+02  0.49151900590E+02 -0.46152582196E+02  0.71508278968E+02  0.41800000000E+01 0. -1.
        -11    1    1    2    0    0 -0.37735303421E+02 -0.33950290896E+02 -0.58797293055E+02  0.77676875882E+02  0.00000000000E+00 0. -1.
         11    1    1    2    0    0  0.52558800089E+01  0.29252093468E+02  0.11667904077E+02  0.31928815081E+02  0.00000000000E+00 0.  1.
</event>
<event>
 7    1  0.3056346E-009  0.1085900E+03  0.7561462E-02  0.1263203E+00
         -1   -1    0    0    0  501 -0.00000000000E+00  0.00000000000E+00  0.27628732886E+03  0.27628732886E+03  0.00000000000E+00 0.  1.
          1   -1    0    0  501    0  0.00000000000E+00 -0.00000000000E+00 -0.16135805332E+03  0.16135805332E+03  0.00000000000E+00 0. -1.
         25    2    1    2    0    0 -0.19362596499E+02 -0.10048777572E+02 -0.12536906267E+03  0.17844077418E+03  0.12509124646E+03 0.  0.
          5    1    3    3  502    0  0.52168741922E+02 -0.12008063033E+02 -0.67908811922E+02  0.86572803744E+02  0.41800000000E+01 0. -1.
         -5    1    3    3    0  502 -0.71531338421E+02  0.19592854608E+01 -0.57460250750E+02  0.91867970437E+02  0.41800000000E+01 0. -1.
        -11    1    1    2    0    0  0.29256771237E+00 -0.39091799421E+02  0.14632845718E+03  0.15146046269E+03  0.00000000000E+00 0.  1.
         11    1    1    2    0    0  0.19070028787E+02  0.49140576993E+02  0.93969881034E+02  0.10774414530E+03  0.00000000000E+00 0. -1.
</event>
<event>
 7    1  0.3056346E-009  0.9364011E+02  0.7561462E-02  0.1294269E+00
         -2   -1    0    0    0  501 -0.00000000000E+00  0.00000000000E+00  0.38008304487E+03  0.38008304487E+03  0.00000000000E+00 0. -1.
          2   -1    0    0  501    0  0.00000000000E+00 -0.00000000000E+00 -0.42445421987E+02  0.42445421987E+02  0.00000000000E+00 0.  1.
         25    2    1    2    0    0  0.18447903184E+02  0.28355764077E+01  0.82374413601E+02  0.15093312720E+03  0.12508756630E+03 0.  0.
          5    1    3    3  502    0  0.63798684044E+02  0.66650444551E+01  0.83301155290E+02  0.10522000654E+03  0.41800000000E+01 0.  1.
         -5    1    3    3    0  502 -0.45350780860E+02 -0.38294680474E+01 -0.92674168908E+00  0.45713120658E+02  0.41800000000E+01 0.  1.
        -11    1    1    2    0    0  0.25019924131E+02 -0.18471821134E+02  0.18440498205E+03  0.18700909653E+03  0.00000000000E+00 0. -1.
         11    1    1    2    0    0 -0.43467827315E+02  0.15636244727E+02  0.70858227235E+02  0.84586243134E+02  0.00000000000E+00 0.  1.
</event>
<event>
 7    1  0.3056346E-009  0.1042842E+03  0.7561462E-02  0.1271536E+00
         -4   -1    0    0    0  501 -0.00000000000E+00  0.00000000000E+00  0.14727137923E+03  0.14727137923E+03  0.00000000000E+00 0. -1.
          4   -1    0    0  501    0  0.00000000000E+00 -0.00000000000E+00 -0.95279023494E+02  0.95279023494E+02  0.00000000000E+00 0.  1.
         25    2    1    2    0    0 -0.79824279154E+00  0.11006479656E+02 -0.19878488534E+02  0.12714015553E+03  0.12509070732E+03 0.  0.
          5    1    3    3  502    0  0.22140291034E+02 -0.50282631587E+02 -0.26669654024E+02  0.61215017538E+02  0.41800000000E+01 0. -1.
         -5    1    3    3    0  502 -0.22938533826E+02  0.61289111244E+02  0.67911654900E+01  0.65925137996E+02  0.41800000000E+01 0. -1.
        -11    1    1    2    0    0  0.35972082547E+02  0.19866151089E+02  0.20519140821E+02  0.45931359896E+02  0.00000000000E+00 0.  1.
         11    1    1    2    0    0 -0.35173839756E+02 -0.30872630745E+02  0.51351703445E+02  0.69478887290E+02  0.00000000000E+00 0. -1.
</event>
<event>
 7    1  0.3056346E-009  0.8792399E+02  0.7561462E-02  0.1307958E+00
         -1   -1    0    0    0  501 -0.00000000000E+00  0.00000000000E+00  0.17183767046E+03  0.17183767046E+03  0.00000000000E+00 0.  1.
          1   -1    0    0  501    0  0.00000000000E+00 -0.00000000000E+00 -0.10740168082E+03  0.10740168082E+03  0.00000000000E+00 0. -1.
         25    2    1    2    0    0 -0.79512923723E+02  0.21276653018E+02  0.87167485117E+01  0.14999657426E+03  0.12509192453E+03 0.  0.
          5    1    3    3  502    0 -0.60997459662E+02  0.71355482861E+00 -0.53837039095E+02  0.81468389110E+02  0.41800000000E+01 0.  1.
         -5    1    3    3    0  502 -0.18515464061E+02  0.20563098189E+02  0.62553787607E+02  0.68528185154E+02  0.41800000000E+01 0.  1.
        -11    1    1    2    0    0  0.54240579938E+02 -0.27322173650E+02  0.75275301096E+02  0.96720797351E+02  0.00000000000E+00 0.  1.
         11    1    1    2    0    0  0.25272343785E+02  0.60455206325E+01 -0.19556059968E+02  0.32521979669E+02  0.00000000000E+00 0. -1.
</event>
<event>
 7    1  0.3056346E-009  0.8741968E+02  0.7561462E-02  0.1309223E+00
         -1   -1    0    0    0  501 -0.00000000000E+00  0.00000000000E+00  0.10745365099E+03  0.10745365099E+03  0.00000000000E+00 0.  1.
          1   -1    0    0  501    0  0.00000000000E+00 -0.00000000000E+00 -0.17175832690E+03  0.17175832690E+03  0.00000000000E+00 0. -1.
         25    2    1    2    0    0 -0.68586638085E+02  0.28502848721E+02 -0.81514409574E+02  0.16676051472E+03  0.12509169034E+03 0.  0.
          5    1    3    3  502    0 -0.67378948746E+02  0.20397037190E+02  0.13075317947E+02  0.71724460260E+02  0.41800000000E+01 0. -1.
         -5    1    3    3    0  502 -0.12076893392E+01  0.81058115315E+01 -0.94589727520E+02  0.95036054456E+02  0.41800000000E+01 0. -1.
        -11    1    1    2    0    0  0.32104335880E+02 -0.44836472870E+02 -0.19190771717E+02  0.58389069189E+02  0.00000000000E+00 0. -1.
         11    1    1    2    0    0  0.36482302205E+02  0.16333624149E+02  0.36400505381E+02  0.54062393990E+02  0.00000000000E+00 0.  1.
</event>
<event>
 7    1  0.3056346E-009  0.1238784E+03  0.7561462E-02  0.1236833E+00
          1   -1    0    0  501    0  0.00000000000E+00  0.00000000000E+00  0.29863223138E+03  0.29863223138E+03  0.00000000000E+00 0. -1.
         -1   -1    0    0    0  501 -0.00000000000E+00 -0.00000000000E+00 -0.72583181980E+02  0.72583181980E+02  0.00000000000E+00 0.  1.
         25    2    1    2    0    0 -0.64927376762E+02  0.33292953464E+02  0.21398228847E+03  0.25837886732E+03  0.12508890557E+03 0.  0.
          5    1    3    3  502    0 -0.85289132246E+01  0.68365218888E+02  0.63286087202E+02  0.93643722415E+02  0.41800000000E+01 0.  1.
         -5    1    3    3    0  502 -0.56398463537E+02 -0.35072265424E+02  0.15069620126E+03  0.16473514490E+03  0.41800000000E+01 0.  1.
        -11    1    1    2    0    0 -0.21092661574E+02 -0.74829179037E+01  0.23482322396E+01  0.22503524775E+02  0.00000000000E+00 0.  1.
         11    1    1    2    0    0  0.86020038336E+02 -0.25810035561E+02  0.97185286942E+01  0.90333021266E+02  0.00000000000E+00 0. -1.
</event>
<event>
 7    1  0.3056346E-009  0.9769042E+02  0.7561462E-02  0.1285229E+00
          1   -1    0    0  501    0  0.00000000000E+00  0.00000000000E+00  0.76371338426E+02  0.76371338426E+02  0.00000000000E+00 0. -1.
         -1   -1    0    0    0  501 -0.00000000000E+00 -0.00000000000E+00 -0.19143092063E+03  0.19143092063E+03  0.00000000000E+00 0.  1.
         25    2    1    2    0    0  0.37772751418E+02  0.89355081873E+01 -0.10618226179E+03  0.16860833637E+03  0.12508986498E+03 0.  0.
          5    1    3    3  502    0 -0.43299087533E+02  0.20366264033E+01 -0.62469050684E+02  0.76149941049E+02  0.41800000000E+01 0.  1.
         -5    1    3    3    0  502  0.81071838952E+02  0.68988817839E+01 -0.43713211107E+02  0.92458395326E+02  0.41800000000E+01 0.  1.
        -11    1    1    2    0    0 -0.44672731931E+02  0.13676462441E+02  0.28676501452E+02  0.54818248226E+02  0.00000000000E+00 0. -1.
         11    1    1    2    0    0  0.68999805122E+01 -0.22611970628E+02 -0.37553821865E+02  0.44375674456E+02  0.00000000000E+00 0.  1.
</event>
<event>
 7    1  0.3352934E-009  0.8703691E+02  0.7561462E-02  0.1310190E+00
          2   -1    0    0  501    0  0.00000000000E+00  0.00000000000E+00  0.29578122981E+03  0.29578122981E+03  0.00000000000E+00 0. -1.
         -2   -1    0    0    0  501 -0.00000000000E+00 -0.00000000000E+00 -0.60650289865E+02  0.60650289865E+02  0.00000000000E+00 0.  1.
         25    2    1    2    0    0  0.54180520711E+02 -0.46186220731E+02  0.87161439357E+02  0.16826218726E+03  0.12508537621E+03 0.  0.
          5    1    3    3  502    0 -0.16272513565E+01  0.12731782799E+02 -0.25794716713E+02  0.29113331148E+02  0.41800000000E+01 0. -1.
         -5    1    3    3    0  502  0.55807772067E+02 -0.58918003531E+02  0.11295615607E+03  0.13914885611E+03  0.41800000000E+01 0. -1.
        -11    1    1    2    0    0 -0.47127249271E+02  0.18309474503E+02  0.15891962434E+02  0.52997820242E+02  0.00000000000E+00 0.  1.
         11    1    1    2    0    0 -0.70532714402E+01  0.27876746228E+02  0.13207753815E+03  0.13517151217E+03  0.00000000000E+00 0. -1.
</event>
<event>
 7    1  0.3056346E-009  0.1248149E+03  0.7561462E-02  0.1235359E+00
         -1   -1    0    0    0  501 -0.00000000000E+00  0.00000000000E+00  0.35603159178E+03  0.35603159178E+03  0.00000000000E+00 0.  1.
          1   -1    0    0  501    0  0.00000000000E+00 -0.00000000000E+00 -0.88553177459E+02  0.88553177459E+02  0.00000000000E+00 0. -1.
         25    2    1    2    0    0 -0.10665871864E+02  0.91874356238E+02  0.27371137951E+03  0.31483326406E+03  0.12508959479E+03 0.  0.
          5    1    3    3  502    0 -0.46112939073E+02  0.17840783003E+02  0.19434430530E+03  0.20057885754E+03  0.41800000000E+01 0. -1.
         -5    1    3    3    0  502  0.35447067209E+02  0.74033573235E+02  0.79367074208E+02  0.11425440651E+03  0.41800000000E+01 0. -1.
        -11    1    1    2    0    0  0.10534792772E+02 -0.10458281271E+03  0.13813473166E+02  0.10601584134E+03  0.00000000000E+00 0.  1.
         11    1    1    2    0    0  0.13107909107E+00  0.12708456476E+02 -0.20046438353E+02  0.23735663849E+02  0.00000000000E+00 0. -1.
</event>
<event>
 7    1  0.3056346E-009  0.1087819E+03  0.7561462E-02  0.1262842E+00
         -1   -1    0    0    0  501 -0.00000000000E+00  0.00000000000E+00  0.10715209136E+04  0.10715209136E+04  0.00000000000E+00 0.  1.
          1   -1    0    0  501    0  0.00000000000E+00 -0.00000000000E+00 -0.12878788238E+02  0.12878788238E+02  0.00000000000E+00 0. -1.
         25    2    1    2    0    0 -0.15781681876E+01 -0.22836869072E+02  0.79400160514E+03  0.80412128351E+03  0.12509387045E+03 0.  0.
          5    1    3    3  502    0  0.37632678456E+02  0.37441656201E+02  0.40754546049E+03  0.41100957516E+03  0.41800000000E+01 0. -1.
         -5    1    3    3    0  502 -0.39210846644E+02 -0.60278525274E+02  0.38645614466E+03  0.39311170836E+03  0.41800000000E+01 0. -1.
        -11    1    1    2    0    0 -0.41962610779E+02 -0.22662189952E+01  0.11704377733E+03  0.12435932721E+03  0.00000000000E+00 0.  1.
         11    1    1    2    0    0  0.43540778967E+02  0.25103088068E+02  0.14759674289E+03  0.15591909112E+03  0.00000000000E+00 0. -1.
</event>
<event>
 7    1  0.3056346E-009  0.1387259E+03  0.7561462E-02  0.1215054E+00
          1   -1    0    0  501    0  0.00000000000E+00  0.00000000000E+00  0.22378100375E+03  0.22378100375E+03  0.00000000000E+00 0. -1.
         -1   -1    0    0    0  501 -0.00000000000E+00 -0.00000000000E+00 -0.11312937913E+03  0.11312937913E+03  0.00000000000E+00 0.  1.
         25    2    1    2    0    0  0.32794245464E+02  0.11168930345E+03  0.64259689193E+02  0.18255651299E+03  0.12509040627E+03 0.  0.
          5    1    3    3  502    0  0.46218308494E+01  0.10556992265E+03 -0.65828894328E+01  0.10595837259E+03  0.41800000000E+01 0. -1.
         -5    1    3    3    0  502  0.28172414614E+02  0.61193807955E+01  0.70842578625E+02  0.76598140401E+02  0.41800000000E+01 0. -1.
        -11    1    1    2    0    0 -0.31560118409E+02 -0.69658434442E+00  0.27277862125E+02  0.41720595224E+02  0.00000000000E+00 0.  1.
         11    1    1    2    0    0 -0.12341270544E+01 -0.11099271910E+03  0.19114073299E+02  0.11263327467E+03  0.00000000000E+00 0. -1.
</event>
<event>
 7    1  0.3056346E-009  0.1084195E+03  0.7561462E-02  0.1263525E+00
          4   -1    0    0  501    0  0.00000000000E+00  0.00000000000E+00  0.10262891934E+03  0.10262891934E+03  0.00000000000E+00 0. -1.
         -4   -1    0    0    0  501 -0.00000000000E+00 -0.00000000000E+00 -0.14281922370E+03  0.14281922370E+03  0.00000000000E+00 0.  1.
         25    2    1    2    0    0 -0.45638215456E+02  0.39081775415E+01  0.57659655512E+01  0.13333787760E+03  0.12509045800E+03 0.  0.
          5    1    3    3  502    0 -0.34343589757E+02 -0.51303305244E+02  0.33526478561E+02  0.70377613281E+02  0.41800000000E+01 0.  1.
         -5    1    3    3    0  502 -0.11294625698E+02  0.55211482786E+02 -0.27760513010E+02  0.62960264323E+02  0.41800000000E+01 0.  1.
        -11    1    1    2    0    0  0.71646355033E+02  0.24065999566E+01 -0.46310170271E+02  0.85344149087E+02  0.00000000000E+00 0. -1.
         11    1    1    2    0    0 -0.26008139577E+02 -0.63147774982E+01  0.35390036463E+00  0.26766116353E+02  0.00000000000E+00 0.  1.
</event>
<event>
 7    1  0.4476491E-009  0.1999424E+03  0.7561462E-02  0.1149788E+00
         -1   -1    0    0    0  501 -0.00000000000E+00  0.00000000000E+00  0.21952484807E+02  0.21952484807E+02  0.00000000000E+00 0.  1.
          1   -1    0    0  501    0  0.00000000000E+00 -0.00000000000E+00 -0.22001609180E+04  0.22001609180E+04  0.00000000000E+00 0. -1.
         25    2    1    2    0    0  0.14667203278E+03 -0.95146594647E+02 -0.15170148580E+04  0.15321712018E+04  0.12509577328E+03 0.  0.
          5    1    3    3  502    0  0.42306745928E+02 -0.88520850193E+02 -0.99044806616E+03  0.99530429810E+03  0.41800000000E+01 0. -1.
         -5    1    3    3    0  502  0.10436528685E+03 -0.66257444539E+01 -0.52656679188E+03  0.53686690371E+03  0.41800000000E+01 0. -1.
        -11    1    1    2    0    0 -0.67980775292E+02  0.96836793371E+02 -0.40544159900E+03  0.42235250747E+03  0.00000000000E+00 0.  1.
         11    1    1    2    0    0 -0.78691257485E+02 -0.16901987238E+01 -0.25575197615E+03  0.26758969352E+03  0.00000000000E+00 0. -1.
</event>
<event>
 7    1  0.3056346E-009  0.1122269E+03  0.7561462E-02  0.1256501E+00
          1   -1    0    0  501    0  0.00000000000E+00  0.00000000000E+00  0.91663734184E+02  0.91663734184E+02  0.00000000000E+00 0. -1.
         -1   -1    0    0    0  501 -0.00000000000E+00 -0.00000000000E+00 -0.14785807826E+03  0.14785807826E+03  0.00000000000E+00 0.  1.
         25    2    1    2    0    0  0.65570288895E+01 -0.37903009912E+02 -0.21845573039E+02  0.13268364722E+03  0.12509231947E+03 0.  0.
          5    1    3    3  502    0  0.14111083411E+02 -0.82934509042E+02 -0.71434033423E+01  0.84532574055E+02  0.41800000000E+01 0. -1.
         -5    1    3    3    0  502 -0.75540545216E+01  0.45031499130E+02 -0.14702169697E+02  0.48151073170E+02  0.41800000000E+01 0. -1.
        -11    1    1    2    0    0  0.26758778587E+02 -0.15872749682E+02 -0.30331972313E+02  0.43451179021E+02  0.00000000000E+00 0.  1.
         11    1    1    2    0    0 -0.33315807477E+02  0.53775759594E+02 -0.40167987270E+01  0.63386986202E+02  0.00000000000E+00 0. -1.
</event>
<event>
 7    1  0.3056346E-009  0.1313417E+03  0.7561462E-02  0.1225478E+00
          1   -1    0    0  501    0  0.00000000000E+00  0.00000000000E+00  0.27579052078E+03  0.27579052078E+03  0.00000000000E+00 0. -1.
         -1   -1    0    0    0  501 -0.00000000000E+00 -0.00000000000E+00 -0.91006941060E+02  0.91006941060E+02  0.00000000000E+00 0.  1.
         25    2    1    2    0    0 -0.69900489980E+02 -0.90570068091E+02  0.12241891473E+03  0.20910343787E+03  0.12509532890E+03 0.  0.
          5    1    3    3  502    0 -0.56333338912E+02 -0.44999982804E+02  0.14057077763E+03  0.15803815820E+03  0.41800000000E+01 0.  1.
         -5    1    3    3    0  502 -0.13567151067E+02 -0.45570085287E+02 -0.18151862898E+02  0.51065279671E+02  0.41800000000E+01 0.  1.
        -11    1    1    2    0    0 -0.17430158404E+02  0.35333290662E+02  0.29639633608E+02  0.49302735536E+02  0.00000000000E+00 0. -1.
         11    1    1    2    0    0  0.87330648383E+02  0.55236777430E+02  0.32725031378E+02  0.10839128843E+03  0.00000000000E+00 0.  1.
</event>
<event>
 7    1  0.3056346E-009  0.9419839E+02  0.7561462E-02  0.1292992E+00
          1   -1    0    0  501    0  0.00000000000E+00  0.00000000000E+00  0.21516323200E+03  0.21516323200E+03  0.00000000000E+00 0. -1.
         -1   -1    0    0    0  501 -0.00000000000E+00 -0.00000000000E+00 -0.67382139125E+02  0.67382139125E+02  0.00000000000E+00 0.  1.
         25    2    1    2    0    0  0.41598597238E+02 -0.16552935232E+01  0.12264214720E+03  0.18006136089E+03  0.12509122322E+03 0.  0.
          5    1    3    3  502    0  0.64221586662E+02 -0.32990882589E+02  0.12122837825E+03  0.14116161879E+03  0.41800000000E+01 0. -1.
         -5    1    3    3    0  502 -0.22622989424E+02  0.31335589066E+02  0.14137689500E+01  0.38899742097E+02  0.41800000000E+01 0. -1.
        -11    1    1    2    0    0 -0.36021616557E+02  0.30882368346E+02  0.46047083782E+02  0.66118162852E+02  0.00000000000E+00 0. -1.
         11    1    1    2    0    0 -0.55769806810E+01 -0.29227074823E+02 -0.20908138112E+02  0.36365847378E+02  0.00000000000E+00 0.  1.
</event>
<event>
 7    1  0.3056346E-009  0.1389476E+03  0.7561462E-02  0.1214752E+00
          1   -1    0    0  501    0  0.00000000000E+00  0.00000000000E+00  0.87838986146E+03  0.87838986146E+03  0.00000000000E+00 0. -1.
         -1   -1    0    0    0  501 -0.00000000000E+00 -0.00000000000E+00 -0.28777068501E+02  0.28777068501E+02  0.00000000000E+00 0.  1.
         25    2    1    2    0    0  0.10085674494E+03 -0.14736155382E+01  0.60795576768E+03  0.62883389415E+03  0.12509035307E+03 0.  0.
          5    1    3    3  502    0  0.82176693776E+02  0.51771719671E+02  0.46569748410E+03  0.47573620742E+03  0.41800000000E+01 0.  1.
         -5    1    3    3    0  502  0.18680051165E+02 -0.53245335210E+02  0.14225828359E+03  0.15309768673E+03  0.41800000000E+01 0.  1.
        -11    1    1    2    0    0 -0.44754104003E+02 -0.35315088654E+02  0.17379619236E+03  0.18290763185E+03  0.00000000000E+00 0. -1.
         11    1    1    2    0    0 -0.56102640938E+02  0.36788704192E+02  0.67860832920E+02  0.95425403960E+02  0.00000000000E+00 0.  1.
</event>
<event>
 7    1  0.3056346E-009  0.1046891E+03  0.7561462E-02  0.1270733E+00
         -2   -1    0    0    0  501 -0.00000000000E+00  0.00000000000E+00  0.84604596622E+02  0.84604596622E+02  0.00000000000E+00 0. -1.
          2   -1    0    0  501    0  0.00000000000E+00 -0.00000000000E+00 -0.17982180438E+03  0.17982180438E+03  0.00000000000E+00 0.  1.
         25    2    1    2    0    0  0.44185214324E+02 -0.75172625109E+01 -0.92582809071E+02  0.16194755009E+03  0.12508633036E+03 0.  0.
          5    1    3    3  502    0  0.74503029559E+02  0.33417157096E+02 -0.57429906045E+02  0.99915335710E+02  0.41800000000E+01 0. -1.
         -5    1    3    3    0  502 -0.30317815235E+02 -0.40934419607E+02 -0.35152903026E+02  0.62032214376E+02  0.41800000000E+01 0. -1.
        -11    1    1    2    0    0  0.45279187233E+01 -0.20035872428E+02 -0.32951221743E+02  0.38829386375E+02  0.00000000000E+00 0.  1.
         11    1    1    2    0    0 -0.48713133047E+02  0.27553134939E+02  0.30316823056E+02  0.63649464541E+02  0.00000000000E+00 0. -1.
</event>
<event>
 7    1  0.3056346E-009  0.2378086E+03  0.7561462E-02  0.1121261E+00
          2   -1    0    0  501    0  0.00000000000E+00  0.00000000000E+00  0.55876481228E+03  0.55876481228E+03  0.00000000000E+00 0. -1.
         -2   -1    0    0    0  501 -0.00000000000E+00 -0.00000000000E+00 -0.21823396716E+03  0.21823396716E+03  0.00000000000E+00 0.  1.
         25    2    1    2    0    0 -0.31663688196E+01  0.21524278012E+03 -0.10799794793E+03  0.27138592174E+03  0.12508909414E+03 0.  0.
          5    1    3    3  502    0 -0.57955973190E+02  0.10689517570E+03 -0.24871730812E+02  0.12418352874E+03  0.41800000000E+01 0. -1.
         -5    1    3    3    0  502  0.54789604371E+02  0.10834760442E+03 -0.83126217118E+02  0.14720239299E+03  0.41800000000E+01 0. -1.
        -11    1    1    2    0    0  0.43794684804E+02 -0.14329882012E+03  0.31002360499E+03  0.34433582724E+03  0.00000000000E+00 0. -1.
         11    1    1    2    0    0 -0.40628315984E+02 -0.71943960004E+02  0.13850518806E+03  0.16127703048E+03  0.00000000000E+00 0.  1.
</event>
<event>
 7    1  0.3056346E-009  0.9690477E+02  0.7561462E-02  0.1286943E+00
          2   -1    0    0  501    0  0.00000000000E+00  0.00000000000E+00  0.13588033704E+03  0.13588033704E+03  0.00000000000E+00 0. -1.
         -2   -1    0    0    0  501 -0.00000000000E+00 -0.00000000000E+00 -0.16906871059E+03  0.16906871059E+03  0.00000000000E+00 0.  1.
         25    2    1    2    0    0  0.56400976594E+02  0.31536853442E+02  0.66424385569E+02  0.15567415790E+03  0.12508637477E+03 0.  0.
          5    1    3    3  502    0  0.88205232326E+01  0.52017060338E+02  0.85298456086E+02  0.10038364014E+03  0.41800000000E+01 0. -1.
         -5    1    3    3    0  502  0.47580453361E+02 -0.20480206896E+02 -0.18874070516E+02  0.55290517763E+02  0.41800000000E+01 0. -1.
        -11    1    1    2    0    0 -0.44788956102E+02  0.99102499171E+01 -0.60286584728E+01  0.46266709037E+02  0.00000000000E+00 0. -1.
         11    1    1    2    0    0 -0.11612020492E+02 -0.41447103359E+02 -0.93584100644E+02  0.10300818070E+03  0.00000000000E+00 0.  1.
</event>
<event>
 7    1  0.3056346E-009  0.9476903E+02  0.7561462E-02  0.1291697E+00
         -1   -1    0    0    0  501 -0.00000000000E+00  0.00000000000E+00  0.80917542752E+03  0.80917542752E+03  0.00000000000E+00 0.  1.
          1   -1    0    0  501    0  0.00000000000E+00 -0.00000000000E+00 -0.15927417411E+02  0.15927417411E+02  0.00000000000E+00 0. -1.
         25    2    1    2    0    0  0.65078338409E+01 -0.32152529039E+02  0.47960411165E+03  0.49673374769E+03  0.12509266628E+03 0.  0.
          5    1    3    3  502    0 -0.30228440545E+02 -0.56030916575E+02  0.40593206780E+03  0.41091548803E+03  0.41800000000E+01 0.  1.
         -5    1    3    3    0  502  0.36736274386E+02  0.23878387535E+02  0.73672043850E+02  0.85818259666E+02  0.41800000000E+01 0.  1.
        -11    1    1    2    0    0 -0.40753622664E+02  0.19880337514E+02  0.25755396173E+03  0.26151506416E+03  0.00000000000E+00 0.  1.
         11    1    1    2    0    0  0.34245788823E+02  0.12272191525E+02  0.56089936730E+02  0.66854033082E+02  0.00000000000E+00 0. -1.
</event>
<event>
 7    1  0.3056346E-009  0.1539349E+03  0.7561462E-02  0.1195720E+00
          1   -1    0    0  501    0  0.00000000000E+00  0.00000000000E+00  0.40587352442E+03  0.40587352442E+03  0.00000000000E+00 0. -1.
         -1   -1    0    0    0  501 -0.00000000000E+00 -0.00000000000E+00 -0.12580831922E+03  0.12580831922E+03  0.00000000000E+00 0.  1.
         25    2    1    2    0    0 -0.13007214986E+03 -0.77201066688E+02  0.29359306704E+03  0.35316198723E+03  0.12509089233E+03 0.  0.
          5    1    3    3  502    0 -0.91773101820E+02 -0.34534859716E+02  0.27617347828E+03  0.29309421908E+03  0.41800000000E+01 0. -1.
         -5    1    3    3    0  502 -0.38299048042E+02 -0.42666206972E+02  0.17419588762E+02  0.60067768153E+02  0.41800000000E+01 0. -1.
        -11    1    1    2    0    0  0.11911702902E+03  0.64477045099E+02  0.23861305724E+02  0.13753369718E+03  0.00000000000E+00 0. -1.
         11    1    1    2    0    0  0.10955120838E+02  0.12724021589E+02 -0.37389167561E+02  0.40986159235E+02  0.00000000000E+00 0.  1.
</event>
<event>
 7    1  0.3056346E-009  0.8482533E+02  0.7561462E-02  0.1315890E+00
         -1   -1    0    0    0  501 -0.00000000000E+00  0.00000000000E+00  0.20430384489E+02  0.20430384489E+02  0.00000000000E+00 0. -1.
          1   -1    0    0  501    0  0.00000000000E+00 -0.00000000000E+00 -0.76250333893E+03  0.76250333893E+03  0.00000000000E+00 0.  1.
         25    2    1    2    0    0  0.55067564001E+01 -0.39606674600E+02 -0.56401654008E+03  0.57910390146E+03  0.12509059979E+03 0.  0.
          5    1    3    3  502    0 -0.14832872299E+02  0.18328157131E+02 -0.18851427282E+02  0.30475960280E+02  0.41800000000E+01 0.  1.
         -5    1    3    3    0  502  0.20339628699E+02 -0.57934831731E+02 -0.54516511280E+03  0.54862794118E+03  0.41800000000E+01 0.  1.
        -11    1    1    2    0    0  0.32198940532E+02  0.32579704648E+02 -0.40890331166E+02  0.61402183261E+02  0.00000000000E+00 0. -1.
         11    1    1    2    0    0 -0.37705696932E+02  0.70269699520E+01 -0.13716608319E+03  0.14242763870E+03  0.00000000000E+00 0.  1.
</event>
<event>
 7    1  0.3056346E-009  0.3592668E+03  0.7561462E-02  0.1058875E+00
         -2   -1    0    0    0  501 -0.00000000000E+00  0.00000000000E+00  0.20039128656E+03  0.20039128656E+03  0.00000000000E+00 0.  1.
          2   -1    0    0  501    0  0.00000000000E+00 -0.00000000000E+00 -0.86109233776E+03  0.86109233776E+03  0.00000000000E+00 0. -1.
         25    2    1    2    0    0 -0.13035078795E+03  0.33068798515E+03 -0.56992276682E+03  0.68323172172E+03  0.12509098286E+03 0.  0.
          5    1    3    3  502    0 -0.52930310526E+02  0.71314445932E+02 -0.24311476864E+03  0.25886218553E+03  0.41800000000E+01 0.  1.
         -5    1    3    3    0  502 -0.77420477423E+02  0.25937353921E+03 -0.32680799818E+03  0.42436953619E+03  0.41800000000E+01 0.  1.
        -11    1    1    2    0    0  0.10188599051E+03 -0.19228122806E+03 -0.93688458428E+02  0.23691845215E+03  0.00000000000E+00 0.  1.
         11    1    1    2    0    0  0.28464797438E+02 -0.13840675708E+03  0.29101740500E+01  0.14133345044E+03  0.00000000000E+00 0. -1.
</event>
<event>
 7    1  0.3056346E-009  0.9637525E+02  0.7561462E-02  0.1288108E+00
          1   -1    0    0  501    0  0.00000000000E+00  0.00000000000E+00  0.47468971405E+03  0.47468971405E+03  0.00000000000E+00 0. -1.
         -1   -1    0    0    0  501 -0.00000000000E+00 -0.00000000000E+00 -0.26472857295E+02  0.26472857295E+02  0.00000000000E+00 0.  1.
         25    2    1    2    0    0  0.23685332921E+01 -0.29011632789E+02  0.27133653658E+03  0.30019740144E+03  0.12509068295E+03 0.  0.
          5    1    3    3  502    0 -0.41686227129E+02 -0.38957773002E+02  0.55713519117E+02  0.79855608582E+02  0.41800000000E+01 0. -1.
         -5    1    3    3    0  502  0.44054760421E+02  0.99461402137E+01  0.21562301746E+03  0.22034179286E+03  0.41800000000E+01 0. -1.
        -11    1    1    2    0    0 -0.14522197486E+02  0.57450449332E+02  0.81991264215E+02  0.10116331230E+03  0.00000000000E+00 0.  1.
         11    1    1    2    0    0  0.12153664194E+02 -0.28438816543E+02  0.94889055968E+02  0.99801857609E+02  0.00000000000E+00 0. -1.
</event>
<event>
 7    1  0.3056346E-009  0.9885978E+02  0.7561462E-02  0.1282712E+00
         -1   -1    0    0    0  501 -0.00000000000E+00  0.00000000000E+00  0.30858876415E+02  0.30858876415E+02  0.00000000000E+00 0.  1.
          1   -1    0    0  501    0  0.00000000000E+00 -0.00000000000E+00 -0.51768527482E+03  0.51768527482E+03  0.00000000000E+00 0. -1.
         25    2    1    2    0    0 -0.34089066279E+02 -0.11069124414E+02 -0.19459428616E+03  0.23409332088E+03  0.12509259258E+03 0.  0.
          5    1    3    3  502    0 -0.61216383271E+02  0.80254974844E+01 -0.35122838939E+02  0.71154342143E+02  0.41800000000E+01 0.  1.
         -5    1    3    3    0  502  0.27127316992E+02 -0.19094621898E+02 -0.15947144722E+03  0.16293897874E+03  0.41800000000E+01 0.  1.
        -11    1    1    2    0    0 -0.31324767211E+02 -0.11252460095E+02 -0.35865598991E+02  0.48930563966E+02  0.00000000000E+00 0.  1.
         11    1    1    2    0    0  0.65413833490E+02  0.22321584509E+02 -0.25636651326E+03  0.26552026639E+03  0.00000000000E+00 0. -1.
</event>
<event>
 7    1  0.3056346E-009  0.1245457E+03  0.7561462E-02  0.1235781E+00
          2   -1    0    0  501    0  0.00000000000E+00  0.00000000000E+00  0.58932210345E+03  0.58932210345E+03  0.00000000000E+00 0. -1.
         -2   -1    0    0    0  501 -0.00000000000E+00 -0.00000000000E+00 -0.28125156165E+02  0.28125156165E+02  0.00000000000E+00 0.  1.
         25    2    1    2    0    0  0.38301493754E+02  0.57765872691E+02  0.31777986194E+03  0.34847521979E+03  0.12508811968E+03 0.  0.
          5    1    3    3  502    0 -0.42159256004E+02  0.26848576446E+02  0.17101876468E+03  0.17822216247E+03  0.41800000000E+01 0.  1.
         -5    1    3    3    0  502  0.80460749757E+02  0.30917296245E+02  0.14676109726E+03  0.17025305732E+03  0.41800000000E+01 0.  1.
        -11    1    1    2    0    0 -0.39202294567E+02  0.13427197850E+02  0.67655183053E+02  0.79336834670E+02  0.00000000000E+00 0. -1.
         11    1    1    2    0    0  0.90080081331E+00 -0.71193070541E+02  0.17576190229E+03  0.18963520515E+03  0.00000000000E+00 0.  1.
</event>
<event>
 7    1  0.3056346E-009  0.9505087E+02  0.7561462E-02  0.1291062E+00
          2   -1    0    0  501    0  0.00000000000E+00  0.00000000000E+00  0.45561720075E+03  0.45561720075E+03  0.00000000000E+00 0. -1.
         -2   -1    0    0    0  501 -0.00000000000E+00 -0.00000000000E+00 -0.34162585429E+02  0.34162585429E+02  0.00000000000E+00 0.  1.
         25    2    1    2    0    0 -0.38245392172E+02  0.29187428332E+02  0.15875864359E+03  0.20776648739E+03  0.12509192770E+03 0.  0.
          5    1    3    3  502    0 -0.60888962353E+02  0.22384664655E+02  0.16944385310E+03  0.18148617220E+03  0.41800000000E+01 0.  1.
         -5    1    3    3    0  502  0.22643570181E+02  0.68027636768E+01 -0.10685209513E+02  0.26280315190E+02  0.41800000000E+01 0.  1.
        -11    1    1    2    0    0  0.10122233673E+01 -0.55488820205E+02  0.16772486147E+03  0.17666822838E+03  0.00000000000E+00 0. -1.
         11    1    1    2    0    0  0.37233168805E+02  0.26301391873E+02  0.94971110267E+02  0.10534507041E+03  0.00000000000E+00 0.  1.
</event>
<event>
 7    1  0.3056346E-009  0.1309850E+03  0.7561462E-02  0.1226002E+00
          2   -1    0    0  501    0  0.00000000000E+00  0.00000000000E+00  0.65770605325E+02  0.65770605325E+02  0.00000000000E+00 0.  1.
         -2   -1    0    0    0  501 -0.00000000000E+00 -0.00000000000E+00 -0.28661787012E+03  0.28661787012E+03  0.00000000000E+00 0. -1.
         25    2    1    2    0    0 -0.76289013715E+02 -0.23666331687E+02 -0.14890528765E+03  0.21023460681E+03  0.12508275796E+03 0.  0.
          5    1    3    3  502    0  0.23633624417E+02 -0.40206170453E+02 -0.52423133804E+02  0.70290409754E+02  0.41800000000E+01 0. -1.
         -5    1    3    3    0  502 -0.99922638132E+02  0.16539838766E+02 -0.96482153848E+02  0.13994419705E+03  0.41800000000E+01 0. -1.
        -11    1    1    2    0    0 -0.14138069759E+02  0.18389029152E+02  0.45002678524E+01  0.23628242009E+02  0.00000000000E+00 0.  1.
         11    1    1    2    0    0  0.90427083475E+02  0.52773025346E+01 -0.76442244993E+02  0.11852562663E+03  0.00000000000E+00 0. -1.
</event>
<event>
 7    1  0.3056346E-009  0.1043804E+03  0.7561462E-02  0.1271345E+00
          2   -1    0    0  501    0  0.00000000000E+00  0.00000000000E+00  0.45988206647E+02  0.45988206647E+02  0.00000000000E+00 0. -1.
         -2   -1    0    0    0  501 -0.00000000000E+00 -0.00000000000E+00 -0.32524359491E+03  0.32524359491E+03  0.00000000000E+00 0.  1.
         25    2    1    2    0    0 -0.52674856308E+02 -0.34235145900E+01 -0.18604812596E+03  0.23032149034E+03  0.12509085819E+03 0.  0.
          5    1    3    3  502    0 -0.25236218998E+02  0.45740945203E+02 -0.22014489109E+02  0.56843741503E+02  0.41800000000E+01 0.  1.
         -5    1    3    3    0  502 -0.27438637310E+02 -0.49164459793E+02 -0.16403363685E+03  0.17347774884E+03  0.41800000000E+01 0.  1.
        -11    1    1    2    0    0  0.73853307781E+02 -0.10432811494E+02 -0.46808234441E+02  0.88057739225E+02  0.00000000000E+00 0. -1.
         11    1    1    2    0    0 -0.21178451473E+02  0.13856326084E+02 -0.46399027867E+02  0.52852571993E+02  0.00000000000E+00 0.  1.
</event>
<event>
 7    1  0.3056346E-009  0.9394806E+02  0.7561462E-02  0.1293563E+00
          1   -1    0    0  501    0  0.00000000000E+00  0.00000000000E+00  0.13550104800E+04  0.13550104800E+04  0.00000000000E+00 0. -1.
         -1   -1    0    0    0  501 -0.00000000000E+00 -0.00000000000E+00 -0.20991131644E+02  0.20991131644E+02  0.00000000000E+00 0.  1.
         25    2    1    2    0    0  0.23157624151E+02  0.72452980123E+02  0.11563226460E+04  0.11655533807E+04  0.12508761613E+03 0.  0.
          5    1    3    3  502    0 -0.10972126028E+02  0.19612442225E+02  0.93882540403E+03  0.93910364023E+03  0.41800000000E+01 0.  1.
         -5    1    3    3    0  502  0.34129750178E+02  0.52840537899E+02  0.21749724201E+03  0.22644974050E+03  0.41800000000E+01 0.  1.
        -11    1    1    2    0    0  0.21029344477E+02 -0.54343872829E+01  0.85434733894E+02  0.88152479545E+02  0.00000000000E+00 0. -1.
         11    1    1    2    0    0 -0.44186968627E+02 -0.67018592840E+02  0.92261968382E+02  0.12229575133E+03  0.00000000000E+00 0.  1.
</event>
<event>
 7    1  0.3056346E-009  0.1128104E+03  0.7561462E-02  0.1255452E+00
         -2   -1    0    0    0  501 -0.00000000000E+00  0.00000000000E+00  0.15814285578E+02  0.15814285578E+02  0.00000000000E+00 0. -1.
          2   -1    0    0  501    0  0.00000000000E+00 -0.00000000000E+00 -0.87077361867E+03  0.87077361867E+03  0.00000000000E+00 0.  1.
         25    2    1    2    0    0 -0.43657117576E+02 -0.23194367081E+02 -0.50775767661E+03  0.52527062206E+03  0.12508975040E+03 0.  0.
          5    1    3    3  502    0 -0.59582026937E+02 -0.60398289518E+02 -0.24330488072E+03  0.25770663300E+03  0.41800000000E+01 0.  1.
         -5    1    3    3    0  502  0.15924909362E+02  0.37203922437E+02 -0.26445279590E+03  0.26756398906E+03  0.41800000000E+01 0.  1.
        -11    1    1    2    0    0  0.57127498067E+02  0.46107897765E+02 -0.25747102557E+03  0.26773273666E+03  0.00000000000E+00 0. -1.
         11    1    1    2    0    0 -0.13470380491E+02 -0.22913530684E+02 -0.89730630902E+02  0.93584545525E+02  0.00000000000E+00 0.  1.
</event>
<event>
 7    1  0.3056346E-009  0.1149597E+03  0.7561462E-02  0.1251651E+00
          1   -1    0    0  501    0  0.00000000000E+00  0.00000000000E+00  0.21446435412E+03  0.21446435412E+03  0.00000000000E+00 0. -1.
         -1   -1    0    0    0  501 -0.00000000000E+00 -0.00000000000E+00 -0.71052381650E+02  0.71052381650E+02  0.00000000000E+00 0.  1.
         25    2    1    2    0    0 -0.11609726583E+02  0.60627799541E+02  0.77305881142E+02  0.15948369928E+03  0.12509330617E+03 0.  0.
          5    1    3    3  502    0 -0.29083215878E+02  0.87120118878E+02  0.20376665970E+02  0.94172339226E+02  0.41800000000E+01 0.  1.
         -5    1    3    3    0  502  0.17473489295E+02 -0.26492319337E+02  0.56929215172E+02  0.65311360054E+02  0.41800000000E+01 0.  1.
        -11    1    1    2    0    0 -0.24626688657E+02 -0.64962106277E+02  0.33649272562E+02  0.77193410276E+02  0.00000000000E+00 0.  1.
         11    1    1    2    0    0  0.36236415240E+02  0.43343067358E+01  0.32456818770E+02  0.48839626216E+02  0.00000000000E+00 0. -1.
</event>
<event>
 7    1  0.3056346E-009  0.9515290E+02  0.7561462E-02  0.1290832E+00
         -2   -1    0    0    0  501 -0.00000000000E+00  0.00000000000E+00  0.11975675245E+03  0.11975675245E+03  0.00000000000E+00 0.  1.
          2   -1    0    0  501    0  0.00000000000E+00 -0.00000000000E+00 -0.12281994568E+03  0.12281994568E+03  0.00000000000E+00 0. -1.
         25    2    1    2    0    0 -0.58719258117E+02 -0.16264256338E+02  0.98013269107E+01  0.13948553433E+03  0.12509065101E+03 0.  0.
          5    1    3    3  502    0 -0.17558223534E+02  0.47316327100E+02 -0.24473174798E+02  0.56245308325E+02  0.41800000000E+01 0.  1.
         -5    1    3    3    0  502 -0.41161034583E+02 -0.63580583438E+02  0.34274501709E+02  0.83240226007E+02  0.41800000000E+01 0.  1.
        -11    1    1    2    0    0  0.49366444877E+02  0.56943578127E+01  0.29942503984E+02  0.58017455438E+02  0.00000000000E+00 0.  1.
         11    1    1    2    0    0  0.93528132400E+01  0.10569898526E+02 -0.42807024127E+02  0.45073708356E+02  0.00000000000E+00 0. -1.
</event>
<event>
 6    1  0.3056346E-009  0.1338599E+03  0.7561462E-02  0.1221838E+00
          1   -1    0    0  501    0  0.00000000000E+00  0.00000000000E+00  0.37770130003E+02  0.37770130003E+02  0.00000000000E+00 0. -1.
         -1   -1    0    0    0  501 -0.00000000000E+00 -0.00000000000E+00 -0.91423381770E+03  0.91423381770E+03  0.00000000000E+00 0.  1.
          5    1    1    2  502    0 -0.15106651635E+02  0.20402042735E+02 -0.35919988743E+02  0.44183393517E+02  0.41800000000E+01 0.  1.
         -5    1    1    2    0  502  0.12480371997E+03  0.95647614439E+01 -0.67685024470E+03  0.68833943613E+03  0.41800000000E+01 0.  1.
        -11    1    1    2    0    0 -0.10664782289E+02 -0.12086524479E+02  0.98360471804E+01  0.18883047407E+02  0.00000000000E+00 0. -1.
         11    1    1    2    0    0 -0.99032286042E+02 -0.17880279699E+02 -0.17352950144E+03  0.20059807065E+03  0.00000000000E+00 0.  1.
</event>
<event>
 7    1  0.3056346E-009  0.1008015E+03  0.7561462E-02  0.1278619E+00
          1   -1    0    0  501    0  0.00000000000E+00  0.00000000000E+00  0.31929448331E+02  0.31929448331E+02  0.00000000000E+00 0. -1.
         -1   -1    0    0    0  501 -0.00000000000E+00 -0.00000000000E+00 -0.49443584470E+03  0.49443584470E+03  0.00000000000E+00 0.  1.
         25    2    1    2    0    0  0.13814069705E+02  0.38030419639E+02 -0.33994695663E+03  0.36447816911E+03  0.12507302306E+03 0.  0.
          5    1    3    3  502    0  0.58259935865E+02 -0.11391944524E+02 -0.10981544129E+03  0.12490356309E+03  0.41800000000E+01 0.  1.
         -5    1    3    3    0  502 -0.44445866159E+02  0.49422364163E+02 -0.23013151534E+03  0.23957460603E+03  0.41800000000E+01 0.  1.
        -11    1    1    2    0    0 -0.37903226851E+02 -0.11391560775E+02 -0.61373430630E+01  0.40051082912E+02  0.00000000000E+00 0. -1.
         11    1    1    2    0    0  0.24089157145E+02 -0.26638858864E+02 -0.11642209668E+03  0.12183604101E+03  0.00000000000E+00 0.  1.
</event>
<event>
 7    1  0.3056346E-009  0.1371882E+03  0.7561462E-02  0.1217163E+00
          3   -1    0    0  501    0  0.00000000000E+00  0.00000000000E+00  0.33773146139E+03  0.33773146139E+03  0.00000000000E+00 0. -1.
         -3   -1    0    0    0  501 -0.00000000000E+00 -0.00000000000E+00 -0.82132295506E+02  0.82132295506E+02  0.00000000000E+00 0.  1.
         25    2    1    2    0    0 -0.83999324359E+02 -0.51028019958E+02  0.36342403462E+02  0.16317865923E+03  0.12508700662E+03 0.  0.
          5    1    3    3  502    0 -0.52299990649E+02 -0.83435311834E+02  0.56259476415E+02  0.11348718592E+03  0.41800000000E+01 0.  1.
         -5    1    3    3    0  502 -0.31699333710E+02  0.32407291876E+02 -0.19917072952E+02  0.49691473307E+02  0.41800000000E+01 0.  1.
        -11    1    1    2    0    0  0.10192423794E+03  0.44477232863E+02  0.16334996007E+03  0.19761068791E+03  0.00000000000E+00 0.  1.
         11    1    1    2    0    0 -0.17924913580E+02  0.65507870947E+01  0.55906802355E+02  0.59074409756E+02  0.00000000000E+00 0. -1.
</event>
<event>
 7    1  0.3056346E-009  0.1206972E+03  0.7561462E-02  0.1241951E+00
         -4   -1    0    0    0  501 -0.00000000000E+00  0.00000000000E+00  0.47930920006E+03  0.47930920006E+03  0.00000000000E+00 0.  1.
          4   -1    0    0  501    0  0.00000000000E+00 -0.00000000000E+00 -0.41228025294E+02  0.41228025294E+02  0.00000000000E+00 0. -1.
         25    2    1    2    0    0 -0.86367398041E+02 -0.15961442534E+02  0.21013728794E+03  0.25984497423E+03  0.12509051026E+03 0.  0.
          5    1    3    3  502    0 -0.78401665862E+02 -0.65626093032E+02  0.13775999440E+03  0.17160679985E+03  0.41800000000E+01 0.  1.
         -5    1    3    3    0  502 -0.79657321794E+01  0.49664650498E+02  0.72377293534E+02  0.88238174378E+02  0.41800000000E+01 0.  1.
        -11    1    1    2    0    0  0.33620746972E+02  0.48955639709E+00  0.19221098760E+03  0.19512984920E+03  0.00000000000E+00 0.  1.
         11    1    1    2    0    0  0.52746651069E+02  0.15471886137E+02  0.35732899225E+02  0.65562401929E+02  0.00000000000E+00 0. -1.
</event>
<event>
 7    1  0.3056346E-009  0.1119848E+03  0.7561462E-02  0.1256938E+00
          1   -1    0    0  501    0  0.00000000000E+00  0.00000000000E+00  0.49016289219E+03  0.49016289219E+03  0.00000000000E+00 0. -1.
         -1   -1    0    0    0  501 -0.00000000000E+00 -0.00000000000E+00 -0.42055427472E+02  0.42055427472E+02  0.00000000000E+00 0.  1.
         25    2    1    2    0    0 -0.50562929373E+02 -0.65065603632E+02  0.31447159246E+03  0.34832559771E+03  0.12509275340E+03 0.  0.
          5    1    3    3  502    0 -0.87033458235E+02 -0.34648658864E+02  0.25748100309E+03  0.27402425397E+03  0.41800000000E+01 0.  1.
         -5    1    3    3    0  502  0.36470528862E+02 -0.30416944768E+02  0.56990589371E+02  0.74301343739E+02  0.41800000000E+01 0.  1.
        -11    1    1    2    0    0  0.32866848139E+02  0.45721085957E+02  0.96057779709E+01  0.57121960559E+02  0.00000000000E+00 0.  1.
         11    1    1    2    0    0  0.17696081234E+02  0.19344517675E+02  0.12403009429E+03  0.12677076140E+03  0.00000000000E+00 0. -1.
</event>
<event>
 7    1  0.3056346E-009  0.1260520E+03  0.7561462E-02  0.1233434E+00
          1   -1    0    0  501    0  0.00000000000E+00  0.00000000000E+00  0.88895962421E+03  0.88895962421E+03  0.00000000000E+00 0. -1.
         -1   -1    0    0    0  501 -0.00000000000E+00 -0.00000000000E+00 -0.23271953070E+02  0.23271953070E+02  0.00000000000E+00 0.  1.
         25    2    1    2    0    0 -0.15656550530E+02 -0.63547358670E+02  0.68775869210E+03  0.70209902558E+03  0.12509048242E+03 0.  0.
          5    1    3    3  502    0 -0.43376586152E+02 -0.91206774194E+02  0.46171584034E+03  0.47265123877E+03  0.41800000000E+01 0. -1.
         -5    1    3    3    0  502  0.27720035622E+02  0.27659415524E+02  0.22604285176E+03  0.22944778681E+03  0.41800000000E+01 0. -1.
        -11    1    1    2    0    0 -0.34273181888E+02  0.48696370768E+02  0.89460206212E+02  0.10746681357E+03  0.00000000000E+00 0.  1.
         11    1    1    2    0    0  0.49929732418E+02  0.14850987902E+02  0.88468772832E+02  0.10266573814E+03  0.00000000000E+00 0. -1.
</event>
<event>
 7    1  0.3056346E-009  0.5679516E+02  0.7561462E-02  0.1411795E+00
         -1   -1    0    0    0  501 -0.00000000000E+00  0.00000000000E+00  0.13437844937E+03  0.13437844937E+03  0.00000000000E+00 0.  1.
          1   -1    0    0  501    0  0.00000000000E+00 -0.00000000000E+00 -0.94376381713E+02  0.94376381713E+02  0.00000000000E+00 0. -1.
         25    2    1    2    0    0  0.26270953476E+01  0.71897589486E+01  0.53320880501E+02  0.13619506377E+03  0.12508950729E+03 0.  0.
          5    1    3    3  502    0 -0.36905647488E+02 -0.84438602511E+01 -0.25990374852E+02  0.46111794342E+02  0.41800000000E+01 0.  1.
         -5    1    3    3    0  502  0.39532742836E+02  0.15633619200E+02  0.79311255353E+02  0.90083269429E+02  0.41800000000E+01 0.  1.
        -11    1    1    2    0    0  0.92415202739E+01  0.88735344020E+01  0.36608621160E+02  0.38785776427E+02  0.00000000000E+00 0.  1.
         11    1    1    2    0    0 -0.11868615622E+02 -0.16063293351E+02 -0.49927434001E+02  0.53773990888E+02  0.00000000000E+00 0. -1.
</event>
<event>
 7    1  0.3056346E-009  0.1199208E+03  0.7561462E-02  0.1243228E+00
         -3   -1    0    0    0  501 -0.00000000000E+00  0.00000000000E+00  0.47257979038E+02  0.47257979038E+02  0.00000000000E+00 0.  1.
          3   -1    0    0  501    0  0.00000000000E+00 -0.00000000000E+00 -0.36936916619E+03  0.36936916619E+03  0.00000000000E+00 0. -1.
         25    2    1    2    0    0 -0.58025870434E+02 -0.40827040035E+02 -0.21634069158E+03  0.25977940587E+03  0.12509274977E+03 0.  0.
          5    1    3    3  502    0  0.30959197324E+02 -0.37387489300E+02 -0.43558408560E+02  0.65353680932E+02  0.41800000000E+01 0.  1.
         -5    1    3    3    0  502 -0.88985067758E+02 -0.34395507351E+01 -0.17278228302E+03  0.19442572494E+03  0.41800000000E+01 0.  1.
        -11    1    1    2    0    0  0.57395486423E+02  0.59858213480E+02 -0.10958604344E+03  0.13742761185E+03  0.00000000000E+00 0. -1.
         11    1    1    2    0    0  0.63038401077E+00 -0.19031173445E+02  0.38155478676E+01  0.19420127503E+02  0.00000000000E+00 0.  1.
</event>
<event>
 7    1  0.3056346E-009  0.2431549E+03  0.7561462E-02  0.1117709E+00
          1   -1    0    0  501    0  0.00000000000E+00  0.00000000000E+00  0.10960565404E+03  0.10960565404E+03  0.00000000000E+00 0. -1.
         -1   -1    0    0    0  501 -0.00000000000E+00 -0.00000000000E+00 -0.60908867561E+03  0.60908867561E+03  0.00000000000E+00 0.  1.
         25    2    1    2    0    0  0.18901772978E+02  0.22584283289E+03 -0.33931928181E+03  0.42678732998E+03  0.12509031871E+03 0.  0.
          5    1    3    3  502    0 -0.27938030770E+02  0.17553362956E+03 -0.17894491486E+03  0.25225253939E+03  0.41800000000E+01 0.  1.
         -5    1    3    3    0  502  0.46839803748E+02  0.50309203328E+02 -0.16037436694E+03  0.17453479059E+03  0.41800000000E+01 0.  1.
        -11    1    1    2    0    0  0.22513031253E+02 -0.21415288241E+02 -0.41796817218E+02  0.52080947344E+02  0.00000000000E+00 0.  1.
         11    1    1    2    0    0 -0.41414804231E+02 -0.20442754465E+03 -0.11836692255E+03  0.23982605233E+03  0.00000000000E+00 0. -1.
</event>
<event>
 7    1  0.3056346E-009  0.1724862E+03  0.7561462E-02  0.1175280E+00
         -2   -1    0    0    0  501 -0.00000000000E+00  0.00000000000E+00  0.12541183538E+03  0.12541183538E+03  0.00000000000E+00 0.  1.
          2   -1    0    0  501    0  0.00000000000E+00 -0.00000000000E+00 -0.30096120838E+03  0.30096120838E+03  0.00000000000E+00 0. -1.
         25    2    1    2    0    0  0.13047445407E+03 -0.92868328020E+02 -0.11604620337E+03  0.23401440765E+03  0.12509161506E+03 0.  0.
          5    1    3    3  502    0  0.14327854867E+03 -0.92086288299E+02 -0.66874608779E+02  0.18302544277E+03  0.41800000000E+01 0.  1.
         -5    1    3    3    0  502 -0.12804094607E+02 -0.78203972028E+00 -0.49171594586E+02  0.50988964875E+02  0.41800000000E+01 0.  1.
        -11    1    1    2    0    0 -0.77329119935E+02  0.44325396956E+02  0.13139331459E+02  0.90095369673E+02  0.00000000000E+00 0.  1.
         11    1    1    2    0    0 -0.53145334132E+02  0.48542931063E+02 -0.72642501098E+02  0.10226326644E+03  0.00000000000E+00 0. -1.
</event>
<event>
 7    1  0.3056346E-009  0.1526315E+03  0.7561462E-02  0.1197276E+00
         -1   -1    0    0    0  501 -0.00000000000E+00  0.00000000000E+00  0.76261734772E+03  0.76261734772E+03  0.00000000000E+00 0. -1.
          1   -1    0    0  501    0  0.00000000000E+00 -0.00000000000E+00 -0.41258248533E+02  0.41258248533E+02  0.00000000000E+00 0.  1.
         25    2    1    2    0    0  0.10320469168E+03  0.69370958190E+02  0.23557344873E+03  0.29428874985E+03  0.12508988894E+03 0.  0.
          5    1    3    3  502    0  0.77229421825E+02 -0.22697131420E+02  0.11017197389E+03  0.13650963190E+03  0.41800000000E+01 0. -1.
         -5    1    3    3    0  502  0.25975269852E+02  0.92068089610E+02  0.12540147484E+03  0.15777911795E+03  0.41800000000E+01 0. -1.
        -11    1    1    2    0    0 -0.15340463027E+02  0.23069953302E+01  0.60805767288E+01  0.16662096107E+02  0.00000000000E+00 0.  1.
         11    1    1    2    0    0 -0.87864228651E+02 -0.71677953520E+02  0.47970507373E+03  0.49292475030E+03  0.00000000000E+00 0. -1.
</event>
<event>
 7    1  0.3056346E-009  0.9922039E+02  0.7561462E-02  0.1281944E+00
          3   -1    0    0  501    0  0.00000000000E+00  0.00000000000E+00  0.29768154517E+02  0.29768154517E+02  0.00000000000E+00 0. -1.
         -3   -1    0    0    0  501 -0.00000000000E+00 -0.00000000000E+00 -0.46967473850E+03  0.46967473850E+03  0.00000000000E+00 0.  1.
         25    2    1    2    0    0 -0.14530731378E+02  0.18267905320E+02 -0.15958140648E+03  0.20410444693E+03  0.12509013327E+03 0.  0.
          5    1    3    3  502    0  0.49502350529E+02 -0.57607595608E+01 -0.10570688608E+03  0.11694052857E+03  0.41800000000E+01 0. -1.
         -5    1    3    3    0  502 -0.64033081907E+02  0.24028664880E+02 -0.53874520399E+02  0.87163918353E+02  0.41800000000E+01 0. -1.
        -11    1    1    2    0    0 -0.21447481766E+02  0.18604018485E+02 -0.37100274078E+02  0.46717601764E+02  0.00000000000E+00 0. -1.
         11    1    1    2    0    0  0.35978213143E+02 -0.36871923805E+02 -0.24322490343E+03  0.24862084433E+03  0.00000000000E+00 0.  1.
</event>
<event>
 7    1  0.3056346E-009  0.9616006E+02  0.7561462E-02  0.1288585E+00
         -1   -1    0    0    0  501 -0.00000000000E+00  0.00000000000E+00  0.39808642967E+02  0.39808642967E+02  0.00000000000E+00 0.  1.
          1   -1    0    0  501    0  0.00000000000E+00 -0.00000000000E+00 -0.31637099299E+03  0.31637099299E+03  0.00000000000E+00 0. -1.
         25    2    1    2    0    0  0.20388623614E+02  0.12782557109E+02 -0.12276792363E+03  0.17691391472E+03  0.12508988932E+03 0.  0.
          5    1    3    3  502    0  0.56621550965E+02 -0.96526474727E+01 -0.12929821638E+02  0.59023947043E+02  0.41800000000E+01 0.  1.
         -5    1    3    3    0  502 -0.36232927352E+02  0.22435204581E+02 -0.10983810199E+03  0.11788996767E+03  0.41800000000E+01 0.  1.
        -11    1    1    2    0    0 -0.23317057668E+02  0.36079931183E+02 -0.66059706971E+02  0.78799311530E+02  0.00000000000E+00 0. -1.
         11    1    1    2    0    0  0.29284340544E+01 -0.48862488292E+02 -0.87734719426E+02  0.10046640971E+03  0.00000000000E+00 0.  1.
</event>
<event>
 7    1  0.3056346E-009  0.7347278E+02  0.7561462E-02  0.1348667E+00
         -1   -1    0    0    0  501 -0.00000000000E+00  0.00000000000E+00  0.12541014661E+03  0.12541014661E+03  0.00000000000E+00 0.  1.
          1   -1    0    0  501    0  0.00000000000E+00 -0.00000000000E+00 -0.10465513420E+03  0.10465513420E+03  0.00000000000E+00 0. -1.
         25    2    1    2    0    0 -0.25970780372E+02 -0.20747624403E+02  0.31260677128E+02  0.13315295956E+03  0.12509010894E+03 0.  0.
          5    1    3    3  502    0 -0.11360468560E+02 -0.64343167545E+02 -0.15668762365E+02  0.67320769229E+02  0.41800000000E+01 0.  1.
         -5    1    3    3    0  502 -0.14610311812E+02  0.43595543141E+02  0.46929439493E+02  0.65832190334E+02  0.41800000000E+01 0.  1.
        -11    1    1    2    0    0  0.14255567577E+02  0.18534984999E+02  0.39283243547E+02  0.45715862667E+02  0.00000000000E+00 0.  1.
         11    1    1    2    0    0  0.11715212795E+02  0.22126394044E+01 -0.49788908270E+02  0.51196458576E+02  0.00000000000E+00 0. -1.
</event>
<event>
 7    1  0.3056346E-009  0.9574376E+02  0.7561462E-02  0.1289510E+00
          2   -1    0    0  501    0  0.00000000000E+00  0.00000000000E+00  0.12922391408E+03  0.12922391408E+03  0.00000000000E+00 0. -1.
         -2   -1    0    0    0  501 -0.00000000000E+00 -0.00000000000E+00 -0.10496191757E+03  0.10496191757E+03  0.00000000000E+00 0.  1.
         25    2    1    2    0    0 -0.35147433584E+02 -0.24781916349E+02  0.84273024477E+01  0.13254253670E+03  0.12508804557E+03 0.  0.
          5    1    3    3  502    0  0.21125490009E+02 -0.31263606397E+02  0.49549146577E+02  0.62420267058E+02  0.41800000000E+01 0.  1.
         -5    1    3    3    0  502 -0.56272923593E+02  0.64816900481E+01 -0.41121844130E+02  0.70122269645E+02  0.41800000000E+01 0.  1.
        -11    1    1    2    0    0  0.63524536082E+02  0.25213521283E+02 -0.15474792898E+01  0.68362877588E+02  0.00000000000E+00 0.  1.
         11    1    1    2    0    0 -0.28377102498E+02 -0.43160493405E+00  0.17382173356E+02  0.33280417359E+02  0.00000000000E+00 0. -1.
</event>
<event>
 7    1  0.3056346E-009  0.6619261E+02  0.7561462E-02  0.1373541E+00
         -2   -1    0    0    0  501 -0.00000000000E+00  0.00000000000E+00  0.19594280852E+03  0.19594280852E+03  0.00000000000E+00 0.  1.
          2   -1    0    0  501    0  0.00000000000E+00 -0.00000000000E+00 -0.27535214720E+03  0.27535214720E+03  0.00000000000E+00 0. -1.
         25    2    1    2    0    0  0.40565943882E+01  0.36913618038E+02  0.16337474558E+03  0.20909779256E+03  0.12510598789E+03 0.  0.
          5    1    3    3  502    0  0.16289555360E+02  0.26155955590E+02 -0.11694760649E+02  0.33222333652E+02  0.41800000000E+01 0. -1.
         -5    1    3    3    0  502 -0.12232960971E+02  0.10757662448E+02  0.17506950622E+03  0.17587545891E+03  0.41800000000E+01 0. -1.
        -11    1    1    2    0    0 -0.33143719166E+02  0.49327407863E+01 -0.17045459916E+03  0.17371703551E+03  0.00000000000E+00 0. -1.
         11    1    1    2    0    0  0.29087124778E+02 -0.41846358824E+02 -0.72329485095E+02  0.88480127649E+02  0.00000000000E+00 0.  1.
</event>
<event>
 7    1  0.3056346E-009  0.8548956E+02  0.7561462E-02  0.1314157E+00
         -2   -1    0    0    0  501 -0.00000000000E+00  0.00000000000E+00  0.65125293321E+02  0.65125293321E+02  0.00000000000E+00 0. -1.
          2   -1    0    0  501    0  0.00000000000E+00 -0.00000000000E+00 -0.22701465568E+03  0.22701465568E+03  0.00000000000E+00 0.  1.
         25    2    1    2    0    0  0.47287149901E+01 -0.31297424261E+02 -0.14395364378E+03  0.19331491262E+03  0.12508442897E+03 0.  0.
          5    1    3    3  502    0 -0.28485055477E+02  0.10041829312E+02  0.86595922286E+01  0.31696966086E+02  0.41800000000E+01 0.  1.
         -5    1    3    3    0  502  0.33213770468E+02 -0.41339253573E+02 -0.15261323601E+03  0.16161794653E+03  0.41800000000E+01 0.  1.
        -11    1    1    2    0    0 -0.41141358340E+02  0.31329318033E+01  0.13118691170E+02  0.43295804482E+02  0.00000000000E+00 0. -1.
         11    1    1    2    0    0  0.36412643350E+02  0.28164492457E+02 -0.31054409748E+02  0.55529231905E+02  0.00000000000E+00 0.  1.
</event>
<event>
 7    1  0.3056346E-009  0.1996577E+03  0.7561462E-02  0.1150028E+00
          1   -1    0    0  501    0  0.00000000000E+00  0.00000000000E+00  0.36013632035E+02  0.36013632035E+02  0.00000000000E+00 0. -1.
         -1   -1    0    0    0  501 -0.00000000000E+00 -0.00000000000E+00 -0.14251961158E+04  0.14251961158E+04  0.00000000000E+00 0.  1.
         25    2    1    2    0    0 -0.37645100450E+02 -0.17493532738E+03 -0.98727725517E+03  0.10111296868E+04  0.12508933833E+03 0.  0.
          5    1    3    3  502    0 -0.37907029378E+02 -0.90020348642E+01 -0.36492508245E+03  0.36702284358E+03  0.41800000000E+01 0. -1.
         -5    1    3    3    0  502  0.26192892871E+00 -0.16593329251E+03 -0.62235217271E+03  0.64410684320E+03  0.41800000000E+01 0. -1.
        -11    1    1    2    0    0  0.60573622809E+02  0.13740767323E+03 -0.35665912659E+03  0.38698290017E+03  0.00000000000E+00 0.  1.
         11    1    1    2    0    0 -0.22928522359E+02  0.37527654150E+02 -0.45246101957E+02  0.63097160838E+02  0.00000000000E+00 0. -1.
</event>
<event>
 7    1  0.3056346E-009  0.1092742E+03  0.7561462E-02  0.1261920E+00
          2   -1    0    0  501    0  0.00000000000E+00  0.00000000000E+00  0.24194370542E+03  0.24194370542E+03  0.00000000000E+00 0. -1.
         -2   -1    0    0    0  501 -0.00000000000E+00 -0.00000000000E+00 -0.54988551211E+02  0.54988551211E+02  0.00000000000E+00 0.  1.
         25    2    1    2    0    0  0.36087550981E+02  0.16134742361E+02  0.93193557059E+02  0.16091634640E+03  0.12508553160E+03 0.  0.
          5    1    3    3  502    0  0.74312609864E+02  0.41277426839E+02  0.57074155608E+02  0.10247498031E+03  0.41800000000E+01 0.  1.
         -5    1    3    3    0  502 -0.38225058883E+02 -0.25142684478E+02  0.36119401451E+02  0.58441366091E+02  0.41800000000E+01 0.  1.
        -11    1    1    2    0    0 -0.13277614668E+02 -0.47156633252E+02  0.20210522072E+02  0.52995361244E+02  0.00000000000E+00 0.  1.
         11    1    1    2    0    0 -0.22809936313E+02  0.31021890891E+02  0.73551075080E+02  0.83020548989E+02  0.00000000000E+00 0. -1.
</event>
<event>
 7    1  0.3056346E-009  0.9328395E+02  0.7561462E-02  0.1295089E+00
         -2   -1    0    0    0  501 -0.00000000000E+00  0.00000000000E+00  0.64289621410E+02  0.64289621410E+02  0.00000000000E+00 0.  1.
          2   -1    0    0  501    0  0.00000000000E+00 -0.00000000000E+00 -0.19058672006E+03  0.19058672006E+03  0.00000000000E+00 0. -1.
         25    2    1    2    0    0 -0.72731601783E-01 -0.72644753619E+00 -0.54719827428E+02  0.13653461572E+03  0.12508760434E+03 0.  0.
          5    1    3    3  502    0  0.52981534485E+02  0.13052805756E+02 -0.60118559399E+02  0.81296570154E+02  0.41800000000E+01 0.  1.
         -5    1    3    3    0  502 -0.53054266087E+02 -0.13779253292E+02  0.53987319719E+01  0.55238045568E+02  0.41800000000E+01 0.  1.
        -11    1    1    2    0    0  0.35427009463E+02  0.15349866694E+02 -0.70129362338E+02  0.80055098956E+02  0.00000000000E+00 0.  1.
         11    1    1    2    0    0 -0.35354277861E+02 -0.14623419157E+02 -0.14479088842E+01  0.38286626792E+02  0.00000000000E+00 0. -1.
</event>
<event>
 7    1  0.3056346E-009  0.1084060E+03  0.7561462E-02  0.1263550E+00
          3   -1    0    0  501    0  0.00000000000E+00  0.00000000000E+00  0.40789602403E+02  0.40789602403E+02  0.00000000000E+00 0. -1.
         -3   -1    0    0    0  501 -0.00000000000E+00 -0.00000000000E+00 -0.37977712966E+03  0.37977712966E+03  0.00000000000E+00 0.  1.
         25    2    1    2    0    0  0.36293029800E+02 -0.31600188987E+02 -0.13781757949E+03  0.19224059328E+03  0.12508798715E+03 0.  0.
          5    1    3    3  502    0  0.11378681029E+02  0.38965658699E+02 -0.69015407232E+01  0.41387203387E+02  0.41800000000E+01 0. -1.
         -5    1    3    3    0  502  0.24914348771E+02 -0.70565847687E+02 -0.13091603877E+03  0.15085338989E+03  0.41800000000E+01 0. -1.
        -11    1    1    2    0    0  0.29401671323E+02  0.35314161146E+01 -0.26999684125E+02  0.40073833348E+02  0.00000000000E+00 0.  1.
         11    1    1    2    0    0 -0.65694701123E+02  0.28068772873E+02 -0.17417026363E+03  0.18825230543E+03  0.00000000000E+00 0. -1.
</event>
<event>
 7    1  0.3056346E-009  0.1077288E+03  0.7561462E-02  0.1264835E+00
         -1   -1    0    0    0  501 -0.00000000000E+00  0.00000000000E+00  0.10233524069E+02  0.10233524069E+02  0.00000000000E+00 0.  1.
          1   -1    0    0  501    0  0.00000000000E+00 -0.00000000000E+00 -0.16037825931E+04  0.16037825931E+04  0.00000000000E+00 0. -1.
         25    2    1    2    0    0 -0.35082376593E+02 -0.17362763821E+02 -0.12423163678E+04  0.12492118736E+04  0.12509240070E+03 0.  0.
          5    1    3    3  502    0  0.11146653585E+02 -0.55829520281E+02 -0.32960560644E+03  0.33451234867E+03  0.41800000000E+01 0. -1.
         -5    1    3    3    0  502 -0.46229030178E+02  0.38466756460E+02 -0.91271076135E+03  0.91469952491E+03  0.41800000000E+01 0. -1.
        -11    1    1    2    0    0 -0.20930435297E+01 -0.34342099129E+02 -0.10636486006E+03  0.11179107325E+03  0.00000000000E+00 0.  1.
         11    1    1    2    0    0  0.37175420123E+02  0.51704862950E+02 -0.24486784114E+03  0.25301317028E+03  0.00000000000E+00 0. -1.
</event>
<event>
 7    1  0.3056346E-009  0.3027317E+03  0.7561462E-02  0.1083883E+00
         -1   -1    0    0    0  501 -0.00000000000E+00  0.00000000000E+00  0.87441130862E+03  0.87441130862E+03  0.00000000000E+00 0.  1.
          1   -1    0    0  501    0  0.00000000000E+00 -0.00000000000E+00 -0.12537468084E+03  0.12537468084E+03  0.00000000000E+00 0. -1.
         25    2    1    2    0    0  0.15542043010E+03  0.25737283373E+03  0.25918852577E+03  0.41620263232E+03  0.12509857563E+03 0.  0.
          5    1    3    3  502    0  0.20453874428E+02  0.39075025070E+02 -0.87435535516E+01  0.45156845461E+02  0.41800000000E+01 0.  1.
         -5    1    3    3    0  502  0.13496655567E+03  0.21829780866E+03  0.26793207932E+03  0.37104578686E+03  0.41800000000E+01 0.  1.
        -11    1    1    2    0    0 -0.60129971096E+02 -0.14602138615E+03  0.17156730383E+03  0.23318061322E+03  0.00000000000E+00 0.  1.
         11    1    1    2    0    0 -0.95290459005E+02 -0.11135144758E+03  0.31828079818E+03  0.35040274392E+03  0.00000000000E+00 0. -1.
</event>
<event>
 7    1  0.3056346E-009  0.1624228E+03  0.7561462E-02  0.1185988E+00
         -2   -1    0    0    0  501 -0.00000000000E+00  0.00000000000E+00  0.13639873895E+02  0.13639873895E+02  0.00000000000E+00 0.  1.
          2   -1    0    0  501    0  0.00000000000E+00 -0.00000000000E+00 -0.26248144906E+04  0.26248144906E+04  0.00000000000E+00 0. -1.
         25    2    1    2    0    0 -0.29626522363E+02 -0.12764494902E+03 -0.19316320565E+04  0.19401083135E+04  0.12508758015E+03 0.  0.
          5    1    3    3  502    0 -0.61251813830E+02 -0.11358519378E+03 -0.17727935016E+04  0.17774891427E+04  0.41800000000E+01 0. -1.
         -5    1    3    3    0  502  0.31625291467E+02 -0.14059755239E+02 -0.15883855490E+03  0.16261917077E+03  0.41800000000E+01 0. -1.
        -11    1    1    2    0    0  0.52069244350E+02  0.28790447579E+02 -0.23989769540E+03  0.24716593685E+03  0.00000000000E+00 0. -1.
         11    1    1    2    0    0 -0.22442721987E+02  0.98854501441E+02 -0.43964486488E+03  0.45118011419E+03  0.00000000000E+00 0.  1.
</event>
<event>
 7    1  0.3056346E-009  0.1376400E+03  0.7561462E-02  0.1216540E+00
          2   -1    0    0  501    0  0.00000000000E+00  0.00000000000E+00  0.29233374161E+02  0.29233374161E+02  0.00000000000E+00 0. -1.
         -2   -1    0    0    0  501 -0.00000000000E+00 -0.00000000000E+00 -0.84696366976E+03  0.84696366976E+03  0.00000000000E+00 0.  1.
         25    2    1    2    0    0 -0.10290866958E+02 -0.95388017112E+02 -0.61041299409E+03  0.63044118037E+03  0.12508909942E+03 0.  0.
          5    1    3    3  502    0 -0.62425470257E+02 -0.40558227980E+02 -0.20809705327E+03  0.22105149892E+03  0.41800000000E+01 0. -1.
         -5    1    3    3    0  502  0.52134603299E+02 -0.54829789132E+02 -0.40231594082E+03  0.40938968145E+03  0.41800000000E+01 0. -1.
        -11    1    1    2    0    0  0.44034390083E+02  0.70073365660E+02 -0.17147163809E+03  0.19039912488E+03  0.00000000000E+00 0.  1.
         11    1    1    2    0    0 -0.33743523125E+02  0.25314651451E+02 -0.35845663409E+02  0.55356738670E+02  0.00000000000E+00 0. -1.
</event>
<event>
 7    1  0.3056346E-009  0.8525228E+02  0.7561462E-02  0.1314774E+00
         -2   -1    0    0    0  501 -0.00000000000E+00  0.00000000000E+00  0.22611842915E+03  0.22611842915E+03  0.00000000000E+00 0.  1.
          2   -1    0    0  501    0  0.00000000000E+00 -0.00000000000E+00 -0.65777597210E+02  0.65777597210E+02  0.00000000000E+00 0. -1.
         25    2    1    2    0    0 -0.12487356120E+02 -0.35409813614E+01  0.26055017696E+02  0.12842959251E+03  0.12508726424E+03 0.  0.
          5    1    3    3  502    0  0.33643136867E+02  0.25962925548E+01 -0.36804717897E+02  0.50106497112E+02  0.41800000000E+01 0.  1.
         -5    1    3    3    0  502 -0.46130492988E+02 -0.61372739162E+01  0.62859735593E+02  0.78323095401E+02  0.41800000000E+01 0.  1.
        -11    1    1    2    0    0 -0.15626823306E+01 -0.42046579450E+02  0.85177124477E+02  0.95002628141E+02  0.00000000000E+00 0. -1.
         11    1    1    2    0    0  0.14050038451E+02  0.45587560811E+02  0.49108689771E+02  0.68463805709E+02  0.00000000000E+00 0.  1.
</event>
<event>
 7    1  0.3056346E-009  0.6752237E+02  0.7561462E-02  0.1368727E+00
         -2   -1    0    0    0  501 -0.00000000000E+00  0.00000000000E+00  0.19997505645E+02  0.19997505645E+02  0.00000000000E+00 0.  1.
          2   -1    0    0  501    0  0.00000000000E+00 -0.00000000000E+00 -0.79609836812E+03  0.79609836812E+03  0.00000000000E+00 0. -1.
         25    2    1    2    0    0  0.46078877592E+02 -0.48591296351E+01 -0.58087114343E+03  0.59599187335E+03  0.12509258063E+03 0.  0.
          5    1    3    3  502    0  0.18982351527E+02  0.15288252049E+02 -0.14636678960E+02  0.28736128674E+02  0.41800000000E+01 0. -1.
         -5    1    3    3    0  502  0.27096526065E+02 -0.20147381684E+02 -0.56623446447E+03  0.56725574467E+03  0.41800000000E+01 0. -1.
        -11    1    1    2    0    0 -0.58371360767E+02 -0.75110701489E+01 -0.19387658727E+03  0.20261234667E+03  0.00000000000E+00 0. -1.
         11    1    1    2    0    0  0.12292483174E+02  0.12370199784E+02 -0.13531317812E+01  0.17491653750E+02  0.00000000000E+00 0.  1.
</event>
<event>
 7    1  0.3056346E-009  0.8187474E+02  0.7561462E-02  0.1323814E+00
         -1   -1    0    0    0  501 -0.00000000000E+00  0.00000000000E+00  0.21505076029E+03  0.21505076029E+03  0.00000000000E+00 0.  1.
          1   -1    0    0  501    0  0.00000000000E+00 -0.00000000000E+00 -0.74192799052E+02  0.74192799052E+02  0.00000000000E+00 0. -1.
         25    2    1    2    0    0 -0.35329703117E+02  0.33988277329E+01  0.18070723820E+02  0.13126756215E+03  0.12507950216E+03 0.  0.
          5    1    3    3  502    0 -0.80227173722E+02 -0.98185378737E+01  0.28110521366E-01  0.80933777124E+02  0.41800000000E+01 0. -1.
         -5    1    3    3    0  502  0.44897470605E+02  0.13217365607E+02  0.18042613299E+02  0.50333785025E+02  0.41800000000E+01 0. -1.
        -11    1    1    2    0    0  0.12063008955E+02 -0.34979418689E+01 -0.14239914495E+02  0.18987547161E+02  0.00000000000E+00 0. -1.
         11    1    1    2    0    0  0.23266694162E+02  0.99114135965E-01  0.13702715191E+03  0.13898845003E+03  0.00000000000E+00 0.  1.
</event>
<event>
 7    1  0.3056346E-009  0.1230225E+03  0.7561462E-02  0.1238193E+00
          1   -1    0    0  501    0  0.00000000000E+00  0.00000000000E+00  0.64030911651E+03  0.64030911651E+03  0.00000000000E+00 0. -1.
         -1   -1    0    0    0  501 -0.00000000000E+00 -0.00000000000E+00 -0.41473675189E+02  0.41473675189E+02  0.00000000000E+00 0.  1.
         25    2    1    2    0    0  0.58364985789E+02 -0.28153768913E+02  0.53330892475E+03  0.55160327609E+03  0.12509459904E+03 0.  0.
          5    1    3    3  502    0  0.68005943707E+02  0.34388838877E+02  0.25597738255E+03  0.26711288512E+03  0.41800000000E+01 0.  1.
         -5    1    3    3    0  502 -0.96409579179E+01 -0.62542607790E+02  0.27733154220E+03  0.28449039098E+03  0.41800000000E+01 0.  1.
        -11    1    1    2    0    0 -0.18060344940E+02 -0.30317025217E+02  0.27520805263E+01  0.35395932317E+02  0.00000000000E+00 0.  1.
         11    1    1    2    0    0 -0.40304640850E+02  0.58470794130E+02  0.62774436046E+02  0.94783583289E+02  0.00000000000E+00 0. -1.
</event>
<event>
 7    1  0.3056346E-009  0.1075049E+03  0.7561462E-02  0.1265261E+00
          2   -1    0    0  501    0  0.00000000000E+00  0.00000000000E+00  0.11727848516E+03  0.11727848516E+03  0.00000000000E+00 0. -1.
         -2   -1    0    0    0  501 -0.00000000000E+00 -0.00000000000E+00 -0.10666081438E+03  0.10666081438E+03  0.00000000000E+00 0.  1.
         25    2    1    2    0    0  0.30457680544E+01  0.22135943660E+02  0.20162887527E+02  0.12865521233E+03  0.12508535055E+03 0.  0.
          5    1    3    3  502    0  0.35136791212E+01 -0.52249443211E+02  0.96495777935E+01  0.53412891781E+02  0.41800000000E+01 0.  1.
         -5    1    3    3    0  502 -0.46791106685E+00  0.74385386871E+02  0.10513309733E+02  0.75242320553E+02  0.41800000000E+01 0.  1.
        -11    1    1    2    0    0 -0.43848787691E+02 -0.16167242535E+02 -0.22759079893E+02  0.51981454681E+02  0.00000000000E+00 0.  1.
         11    1    1    2    0    0  0.40803019637E+02 -0.59687011252E+01  0.13213863142E+02  0.43302632526E+02  0.00000000000E+00 0. -1.
</event>
<event>
 7    1  0.3056346E-009  0.1445673E+03  0.7561462E-02  0.1207312E+00
         -1   -1    0    0    0  501 -0.00000000000E+00  0.00000000000E+00  0.14457962480E+03  0.14457962480E+03  0.00000000000E+00 0.  1.
          1   -1    0    0  501    0  0.00000000000E+00 -0.00000000000E+00 -0.14740330464E+03  0.14740330464E+03  0.00000000000E+00 0. -1.
         25    2    1    2    0    0  0.72727331513E+02  0.65181982668E+02  0.22780651366E+01  0.15871564678E+03  0.12509001295E+03 0.  0.
          5    1    3    3  502    0  0.26623009349E+02  0.97054223989E+02 -0.98856285273E+01  0.10121020241E+03  0.41800000000E+01 0. -1.
         -5    1    3    3    0  502  0.46104322164E+02 -0.31872241320E+02  0.12163693664E+02  0.57505444372E+02  0.41800000000E+01 0. -1.
        -11    1    1    2    0    0 -0.93631732620E+02 -0.48427300505E+02 -0.10510197168E+02  0.10593662743E+03  0.00000000000E+00 0.  1.
         11    1    1    2    0    0  0.20904401108E+02 -0.16754682163E+02  0.54084521859E+01  0.27330655226E+02  0.00000000000E+00 0. -1.
</event>
<event>
 7    1  0.3056346E-009  0.1638865E+03  0.7561462E-02  0.1184377E+00
          2   -1    0    0  501    0  0.00000000000E+00  0.00000000000E+00  0.35549711617E+03  0.35549711617E+03  0.00000000000E+00 0. -1.
         -2   -1    0    0    0  501 -0.00000000000E+00 -0.00000000000E+00 -0.10905938838E+03  0.10905938838E+03  0.00000000000E+00 0.  1.
         25    2    1    2    0    0 -0.17097534350E+02  0.15882271637E+03  0.86000153186E+02  0.22036328427E+03  0.12508784829E+03 0.  0.
          5    1    3    3  502    0  0.15786259235E+02  0.91488164859E+02  0.10768453574E+03  0.14224177280E+03  0.41800000000E+01 0. -1.
         -5    1    3    3    0  502 -0.32883793585E+02  0.67334551511E+02 -0.21684382558E+02  0.78121511472E+02  0.41800000000E+01 0. -1.
        -11    1    1    2    0    0  0.15325001745E+02 -0.12810616229E+03  0.16865666081E+03  0.21234668288E+03  0.00000000000E+00 0. -1.
         11    1    1    2    0    0  0.17725326050E+01 -0.30716554076E+02 -0.82190862034E+01  0.31846537396E+02  0.00000000000E+00 0.  1.
</event>
<event>
 7    1  0.3056346E-009  0.1614934E+03  0.7561462E-02  0.1187021E+00
         -1   -1    0    0    0  501 -0.00000000000E+00  0.00000000000E+00  0.29167683536E+02  0.29167683536E+02  0.00000000000E+00 0.  1.
          1   -1    0    0  501    0  0.00000000000E+00 -0.00000000000E+00 -0.12766627991E+04  0.12766627991E+04  0.00000000000E+00 0. -1.
         25    2    1    2    0    0 -0.11893840721E+02 -0.12257889670E+03 -0.10011842691E+04  0.10164566759E+04  0.12508870394E+03 0.  0.
          5    1    3    3  502    0  0.53072853644E+02 -0.40510243152E+02 -0.29115355467E+03  0.29874014191E+03  0.41800000000E+01 0.  1.
         -5    1    3    3    0  502 -0.64966694365E+02 -0.82068653545E+02 -0.71003071443E+03  0.71771653395E+03  0.41800000000E+01 0.  1.
        -11    1    1    2    0    0  0.46462845887E+02  0.38201999615E+02 -0.86073913984E+02  0.10500908290E+03  0.00000000000E+00 0.  1.
         11    1    1    2    0    0 -0.34569005166E+02  0.84376897082E+02 -0.16023693250E+03  0.18436472389E+03  0.00000000000E+00 0. -1.
</event>
<event>
 7    1  0.3056346E-009  0.1102618E+03  0.7561462E-02  0.1260086E+00
          2   -1    0    0  501    0  0.00000000000E+00  0.00000000000E+00  0.39391537312E+03  0.39391537312E+03  0.00000000000E+00 0. -1.
         -2   -1    0    0    0  501 -0.00000000000E+00 -0.00000000000E+00 -0.42722647904E+02  0.42722647904E+02  0.00000000000E+00 0.  1.
         25    2    1    2    0    0  0.29231985832E+02  0.15277844397E+02  0.92365952196E+02  0.15895339506E+03  0.12508713424E+03 0.  0.
          5    1    3    3  502    0  0.75522076017E+02  0.92132933547E+01  0.32292109135E+02  0.82757002439E+02  0.41800000000E+01 0. -1.
         -5    1    3    3    0  502 -0.46290090184E+02  0.60645510421E+01  0.60073843061E+02  0.76196392623E+02  0.41800000000E+01 0. -1.
        -11    1    1    2    0    0 -0.16893992833E+02  0.38624770898E+02  0.14711326163E+03  0.15303460938E+03  0.00000000000E+00 0. -1.
         11    1    1    2    0    0 -0.12337993000E+02 -0.53902615295E+02  0.11171351139E+03  0.12465001658E+03  0.00000000000E+00 0.  1.
</event>
<event>
 7    1  0.3056346E-009  0.4836341E+02  0.7561462E-02  0.1454374E+00
          2   -1    0    0  501    0  0.00000000000E+00  0.00000000000E+00  0.44893280475E+03  0.44893280475E+03  0.00000000000E+00 0. -1.
         -2   -1    0    0    0  501 -0.00000000000E+00 -0.00000000000E+00 -0.24922878841E+02  0.24922878841E+02  0.00000000000E+00 0.  1.
         25    2    1    2    0    0  0.51656401507E+00  0.80686802132E+01  0.26740301652E+03  0.29532486485E+03  0.12508809743E+03 0.  0.
          5    1    3    3  502    0  0.10587785907E+02  0.11306763275E+02  0.27877741450E+03  0.27923872107E+03  0.41800000000E+01 0.  1.
         -5    1    3    3    0  502 -0.10071221892E+02 -0.32380830622E+01 -0.11374397985E+02  0.16086143784E+02  0.41800000000E+01 0.  1.
        -11    1    1    2    0    0 -0.28032709444E+02  0.16407065369E+02  0.12755147263E+03  0.13162219707E+03  0.00000000000E+00 0. -1.
         11    1    1    2    0    0  0.27516145429E+02 -0.24475745582E+02  0.29055436760E+02  0.46908621664E+02  0.00000000000E+00 0.  1.
</event>
<event>
 7    1  0.3056346E-009  0.3252835E+03  0.7561462E-02  0.1073243E+00
          1   -1    0    0  501    0  0.00000000000E+00  0.00000000000E+00  0.79969927442E+03  0.79969927442E+03  0.00000000000E+00 0. -1.
         -1   -1    0    0    0  501 -0.00000000000E+00 -0.00000000000E+00 -0.14047420925E+03  0.14047420925E+03  0.00000000000E+00 0.  1.
         25    2    1    2    0    0  0.16545012714E+03 -0.26930056183E+03  0.37923949783E+03  0.50928045013E+03  0.12508973978E+03 0.  0.
          5    1    3    3  502    0 -0.65437459283E+01 -0.20249586959E+02 -0.27906026949E+01  0.21866098102E+02  0.41800000000E+01 0.  1.
         -5    1    3    3    0  502  0.17199387307E+03 -0.24905097487E+03  0.38203010052E+03  0.48741435203E+03  0.41800000000E+01 0.  1.
        -11    1    1    2    0    0 -0.46745339992E+01  0.69822146754E+02  0.44654426058E+02  0.83012054619E+02  0.00000000000E+00 0. -1.
         11    1    1    2    0    0 -0.16077559314E+03  0.19947841508E+03  0.23533114129E+03  0.34788097892E+03  0.00000000000E+00 0.  1.
</event>
<event>
 7    1  0.3056346E-009  0.2558820E+03  0.7561462E-02  0.1109643E+00
         -1   -1    0    0    0  501 -0.00000000000E+00  0.00000000000E+00  0.75736752635E+03  0.75736752635E+03  0.00000000000E+00 0.  1.
          1   -1    0    0  501    0  0.00000000000E+00 -0.00000000000E+00 -0.95155526812E+02  0.95155526812E+02  0.00000000000E+00 0. -1.
         25    2    1    2    0    0 -0.46303637770E+02  0.24065237826E+03  0.35279908149E+03  0.44740537216E+03  0.12508709407E+03 0.  0.
          5    1    3    3  502    0 -0.66702716067E+02  0.14323026243E+03  0.28812752212E+03  0.32863216794E+03  0.41800000000E+01 0. -1.
         -5    1    3    3    0  502  0.20399078297E+02  0.97422115826E+02  0.64671559377E+02  0.11877320422E+03  0.41800000000E+01 0. -1.
        -11    1    1    2    0    0 -0.16716478222E+02 -0.75244371794E+02  0.14153338742E+03  0.16116096266E+03  0.00000000000E+00 0.  1.
         11    1    1    2    0    0  0.63020115993E+02 -0.16540800646E+03  0.16787953063E+03  0.24395671834E+03  0.00000000000E+00 0. -1.
</event>
<event>
 7    1  0.3056346E-009  0.1028251E+03  0.7561462E-02  0.1274465E+00
          2   -1    0    0  501    0  0.00000000000E+00  0.00000000000E+00  0.20487160050E+03  0.20487160050E+03  0.00000000000E+00 0. -1.
         -2   -1    0    0    0  501 -0.00000000000E+00 -0.00000000000E+00 -0.71658254348E+02  0.71658254348E+02  0.00000000000E+00 0.  1.
         25    2    1    2    0    0 -0.37353887048E+02 -0.37595779355E+02  0.63542463612E+02  0.14998004142E+03  0.12509041785E+03 0.  0.
          5    1    3    3  502    0 -0.58212744642E+02 -0.18301236976E+01  0.85027649405E+02  0.10314672343E+03  0.41800000000E+01 0.  1.
         -5    1    3    3    0  502  0.20858857594E+02 -0.35765655657E+02 -0.21485185793E+02  0.46833317983E+02  0.41800000000E+01 0.  1.
        -11    1    1    2    0    0 -0.21095760082E+02 -0.15894596120E+02  0.17519895688E+02  0.31695678320E+02  0.00000000000E+00 0. -1.
         11    1    1    2    0    0  0.58449647130E+02  0.53490375475E+02  0.52150986848E+02  0.94854135109E+02  0.00000000000E+00 0.  1.
</event>
<event>
 7    1  0.3056346E-009  0.7757316E+02  0.7561462E-02  0.1336083E+00
         -1   -1    0    0    0  501 -0.00000000000E+00  0.00000000000E+00  0.55321611966E+02  0.55321611966E+02  0.00000000000E+00 0.  1.
          1   -1    0    0  501    0  0.00000000000E+00 -0.00000000000E+00 -0.31993526383E+03  0.31993526383E+03  0.00000000000E+00 0. -1.
         25    2    1    2    0    0  0.26569200263E+01  0.54792146291E+02 -0.63130749573E+02  0.15047487027E+03  0.12509179239E+03 0.  0.
          5    1    3    3  502    0  0.16346046656E+01  0.30164588071E+02 -0.10077310421E+03  0.10528658622E+03  0.41800000000E+01 0. -1.
         -5    1    3    3    0  502  0.10223153607E+01  0.24627558220E+02  0.37642354639E+02  0.45188284049E+02  0.41800000000E+01 0. -1.
        -11    1    1    2    0    0  0.80603407944E+01  0.21316467363E+02 -0.44863122370E+02  0.50319584888E+02  0.00000000000E+00 0.  1.
         11    1    1    2    0    0 -0.10717260821E+02 -0.76108613653E+02 -0.15661977992E+03  0.17446242064E+03  0.00000000000E+00 0. -1.
</event>
<event>
 7    1  0.3056346E-009  0.8138780E+02  0.7561462E-02  0.1325159E+00
         -1   -1    0    0    0  501 -0.00000000000E+00  0.00000000000E+00  0.12795003468E+03  0.12795003468E+03  0.00000000000E+00 0.  1.
          1   -1    0    0  501    0  0.00000000000E+00 -0.00000000000E+00 -0.17701306943E+03  0.17701306943E+03  0.00000000000E+00 0. -1.
         25    2    1    2    0    0 -0.65089190281E+02 -0.28045443053E+02 -0.10190710260E+03  0.17622602835E+03  0.12508959165E+03 0.  0.
          5    1    3    3  502    0 -0.13209904158E+02 -0.27508404895E+02  0.24606923089E+02  0.39423178102E+02  0.41800000000E+01 0. -1.
         -5    1    3    3    0  502 -0.51879286124E+02 -0.53703815801E+00 -0.12651402569E+03  0.13680285025E+03  0.41800000000E+01 0. -1.
        -11    1    1    2    0    0  0.15902382574E+02  0.26266992970E+02 -0.22970617950E+02  0.38346968332E+02  0.00000000000E+00 0. -1.
         11    1    1    2    0    0  0.49186807707E+02  0.17784500829E+01  0.75814685800E+02  0.90390107424E+02  0.00000000000E+00 0.  1.
</event>
<event>
 7    1  0.3056346E-009  0.8924646E+02  0.7561462E-02  0.1304687E+00
         -2   -1    0    0    0  501 -0.00000000000E+00  0.00000000000E+00  0.19905500033E+03  0.19905500033E+03  0.00000000000E+00 0.  1.
          2   -1    0    0  501    0  0.00000000000E+00 -0.00000000000E+00 -0.70745514408E+02  0.70745514408E+02  0.00000000000E+00 0. -1.
         25    2    1    2    0    0  0.33859249601E+02 -0.26241462754E+02  0.48074264232E+02  0.14069040462E+03  0.12509033504E+03 0.  0.
          5    1    3    3  502    0 -0.18074172215E+02 -0.18867351239E+02  0.76454953094E+02  0.80904171070E+02  0.41800000000E+01 0.  1.
         -5    1    3    3    0  502  0.51933421817E+02 -0.73741115150E+01 -0.28380688861E+02  0.59786233553E+02  0.41800000000E+01 0.  1.
        -11    1    1    2    0    0 -0.65737102442E+01  0.57526185742E+02  0.34742407123E+02  0.67524148015E+02  0.00000000000E+00 0. -1.
         11    1    1    2    0    0 -0.27285539357E+02 -0.31284722988E+02  0.45492814567E+02  0.61585962099E+02  0.00000000000E+00 0.  1.
</event>
<event>
 7    1  0.3209866E-009  0.1298734E+03  0.7561462E-02  0.1227644E+00
         -2   -1    0    0    0  501 -0.00000000000E+00  0.00000000000E+00  0.42508808617E+02  0.42508808617E+02  0.00000000000E+00 0.  1.
          2   -1    0    0  501    0  0.00000000000E+00 -0.00000000000E+00 -0.64882511127E+03  0.64882511127E+03  0.00000000000E+00 0. -1.
         25    2    1    2    0    0  0.94859312980E+02  0.76133365582E+02 -0.25980935140E+03  0.31295805589E+03  0.12508903652E+03 0.  0.
          5    1    3    3  502    0  0.44640046887E+02  0.44726648714E+02 -0.24318528911E+03  0.25129616816E+03  0.41800000000E+01 0.  1.
         -5    1    3    3    0  502  0.50219266093E+02  0.31406716868E+02 -0.16624062287E+02  0.61661887729E+02  0.41800000000E+01 0.  1.
        -11    1    1    2    0    0 -0.79003294932E+02 -0.24032095768E+02 -0.12173438029E+03  0.14709969946E+03  0.00000000000E+00 0.  1.
         11    1    1    2    0    0 -0.15856018047E+02 -0.52101269813E+02 -0.22477257097E+03  0.23127616454E+03  0.00000000000E+00 0. -1.
</event>
<event>
 7    1  0.3056346E-009  0.8672233E+02  0.7561462E-02  0.1310989E+00
         -4   -1    0    0    0  501 -0.00000000000E+00  0.00000000000E+00  0.21701562879E+02  0.21701562879E+02  0.00000000000E+00 0.  1.
          4   -1    0    0  501    0  0.00000000000E+00 -0.00000000000E+00 -0.84026345901E+03  0.84026345901E+03  0.00000000000E+00 0. -1.
         25    2    1    2    0    0  0.62147828447E+01  0.42657796881E+02 -0.67106855485E+03  0.68398795519E+03  0.12509279108E+03 0.  0.
          5    1    3    3  502    0  0.30639115762E+02  0.41001533523E+02 -0.10033277933E+03  0.11271211193E+03  0.41800000000E+01 0.  1.
         -5    1    3    3    0  502 -0.24424332917E+02  0.16562633571E+01 -0.57073577551E+03  0.57127584326E+03  0.41800000000E+01 0.  1.
        -11    1    1    2    0    0 -0.45555962698E+02 -0.11276993484E+02 -0.90507778655E+02  0.10195182351E+03  0.00000000000E+00 0.  1.
         11    1    1    2    0    0  0.39341179853E+02 -0.31380803396E+02 -0.56985562626E+02  0.76025243188E+02  0.00000000000E+00 0. -1.
</event>
<event>
 7    1  0.3056346E-009  0.1760608E+03  0.7561462E-02  0.1171671E+00
         -2   -1    0    0    0  501 -0.00000000000E+00  0.00000000000E+00  0.20879064678E+03  0.20879064678E+03  0.00000000000E+00 0.  1.
          2   -1    0    0  501    0  0.00000000000E+00 -0.00000000000E+00 -0.18515455240E+03  0.18515455240E+03  0.00000000000E+00 0. -1.
         25    2    1    2    0    0  0.84810033796E+02 -0.13421873265E+03 -0.30911070031E+02  0.20447674834E+03  0.12509131198E+03 0.  0.
          5    1    3    3  502    0  0.81927299144E+02 -0.30974388254E+02 -0.47593229039E+02  0.99770150461E+02  0.41800000000E+01 0. -1.
         -5    1    3    3    0  502  0.28827346522E+01 -0.10324434440E+03  0.16682159008E+02  0.10470659788E+03  0.41800000000E+01 0. -1.
        -11    1    1    2    0    0 -0.36268383718E+02  0.34014396542E+02  0.60081574599E+02  0.77988271144E+02  0.00000000000E+00 0.  1.
         11    1    1    2    0    0 -0.48541650078E+02  0.10020433611E+03 -0.55344101900E+01  0.11148017969E+03  0.00000000000E+00 0. -1.
</event>
<event>
 7    1  0.3056346E-009  0.2029447E+03  0.7561462E-02  0.1147278E+00
         -1   -1    0    0    0  501 -0.00000000000E+00  0.00000000000E+00  0.12702069371E+03  0.12702069371E+03  0.00000000000E+00 0.  1.
          1   -1    0    0  501    0  0.00000000000E+00 -0.00000000000E+00 -0.34060904151E+03  0.34060904151E+03  0.00000000000E+00 0. -1.
         25    2    1    2    0    0 -0.47479055371E+02  0.17146128668E+03 -0.95581816629E+02  0.23756197257E+03  0.12508626469E+03 0.  0.
          5    1    3    3  502    0  0.32706611571E+02  0.17929927322E+02 -0.41730549565E+02  0.56125893322E+02  0.41800000000E+01 0. -1.
         -5    1    3    3    0  502 -0.80185666942E+02  0.15353135936E+03 -0.53851267064E+02  0.18143607925E+03  0.41800000000E+01 0. -1.
        -11    1    1    2    0    0  0.29186849930E+02 -0.75224225050E+01 -0.61467287467E+01  0.30761035800E+02  0.00000000000E+00 0. -1.
         11    1    1    2    0    0  0.18292205441E+02 -0.16393886418E+03 -0.11185980242E+03  0.19930672684E+03  0.00000000000E+00 0.  1.
</event>
<event>
 7    1  0.3056346E-009  0.2565118E+03  0.7561462E-02  0.1109257E+00
          2   -1    0    0  501    0  0.00000000000E+00  0.00000000000E+00  0.33068229935E+04  0.33068229935E+04  0.00000000000E+00 0. -1.
         -2   -1    0    0    0  501 -0.00000000000E+00 -0.00000000000E+00 -0.26771603589E+02  0.26771603589E+02  0.00000000000E+00 0.  1.
         25    2    1    2    0    0  0.59291210191E+02  0.24610971297E+03  0.23264554484E+04  0.23435287890E+04  0.12508714117E+03 0.  0.
          5    1    3    3  502    0  0.23612494989E+02  0.19898165417E+03  0.12994524448E+04  0.13148176213E+04  0.41800000000E+01 0. -1.
         -5    1    3    3    0  502  0.35678715202E+02  0.47128058797E+02  0.10270030037E+04  0.10287111677E+04  0.41800000000E+01 0. -1.
        -11    1    1    2    0    0 -0.38734780350E+02 -0.13987844836E+03  0.69048752707E+03  0.70557734414E+03  0.00000000000E+00 0. -1.
         11    1    1    2    0    0 -0.20556429841E+02 -0.10623126462E+03  0.26310841439E+03  0.28448846394E+03  0.00000000000E+00 0.  1.
</event>
<event>
 7    1  0.3056346E-009  0.1592510E+03  0.7561462E-02  0.1189545E+00
          1   -1    0    0  501    0  0.00000000000E+00  0.00000000000E+00  0.20528011694E+03  0.20528011694E+03  0.00000000000E+00 0. -1.
         -1   -1    0    0    0  501 -0.00000000000E+00 -0.00000000000E+00 -0.15650813290E+03  0.15650813290E+03  0.00000000000E+00 0.  1.
         25    2    1    2    0    0 -0.11135611711E+02  0.13577965848E+03 -0.17271091198E+02  0.18575748089E+03  0.12508970226E+03 0.  0.
          5    1    3    3  502    0 -0.49472252554E+02  0.11452232695E+03 -0.46170465375E+02  0.13308663125E+03  0.41800000000E+01 0. -1.
         -5    1    3    3    0  502  0.38336640843E+02  0.21257331526E+02  0.28899374177E+02  0.52670849647E+02  0.41800000000E+01 0. -1.
        -11    1    1    2    0    0 -0.13410755472E+02 -0.11936759090E+03  0.79017465855E+02  0.14377840599E+03  0.00000000000E+00 0. -1.
         11    1    1    2    0    0  0.24546367183E+02 -0.16412067579E+02 -0.12974390613E+02  0.32252362950E+02  0.00000000000E+00 0.  1.
</event>
<event>
 7    1  0.3056346E-009  0.1069232E+03  0.7561462E-02  0.1266376E+00
          2   -1    0    0  501    0  0.00000000000E+00  0.00000000000E+00  0.40699343459E+03  0.40699343459E+03  0.00000000000E+00 0. -1.
         -2   -1    0    0    0  501 -0.00000000000E+00 -0.00000000000E+00 -0.28921917406E+02  0.28921917406E+02  0.00000000000E+00 0.  1.
         25    2    1    2    0    0  0.13175688556E+01 -0.11408296247E+01  0.22105981430E+03  0.25400361565E+03  0.12508939918E+03 0.  0.
          5    1    3    3  502    0 -0.37587980262E+02  0.47688562986E+02  0.12967991083E+03  0.14325294751E+03  0.41800000000E+01 0.  1.
         -5    1    3    3    0  502  0.38905549118E+02 -0.48829392611E+02  0.91379903471E+02  0.11075066814E+03  0.41800000000E+01 0.  1.
        -11    1    1    2    0    0  0.42928859251E+02  0.12529015920E+02  0.93824478548E+02  0.10393698077E+03  0.00000000000E+00 0. -1.
         11    1    1    2    0    0 -0.44246428106E+02 -0.11388186295E+02  0.63187224338E+02  0.77974755574E+02  0.00000000000E+00 0.  1.
</event>
<event>
 7    1  0.3056346E-009  0.1111974E+03  0.7561462E-02  0.1258369E+00
          2   -1    0    0  501    0  0.00000000000E+00  0.00000000000E+00  0.32942774274E+03  0.32942774274E+03  0.00000000000E+00 0. -1.
         -2   -1    0    0    0  501 -0.00000000000E+00 -0.00000000000E+00 -0.41650059283E+02  0.41650059283E+02  0.00000000000E+00 0.  1.
         25    2    1    2    0    0  0.26297860934E+02 -0.82734707528E+01  0.11913955276E+03  0.17493695453E+03  0.12509467303E+03 0.  0.
          5    1    3    3  502    0  0.27661573439E+02 -0.65040929821E+02  0.59514379814E+02  0.92492805135E+02  0.41800000000E+01 0. -1.
         -5    1    3    3    0  502 -0.13637125043E+01  0.56767459068E+02  0.59625172942E+02  0.82444149393E+02  0.41800000000E+01 0. -1.
        -11    1    1    2    0    0  0.10286462307E+02  0.43000149355E+02  0.47355951730E+02  0.64787424054E+02  0.00000000000E+00 0.  1.
         11    1    1    2    0    0 -0.36584323241E+02 -0.34726678602E+02  0.12128217897E+03  0.13135342344E+03  0.00000000000E+00 0. -1.
</event>
<event>
 7    1  0.3056346E-009  0.1214349E+03  0.7561462E-02  0.1240749E+00
         -2   -1    0    0    0  501 -0.00000000000E+00  0.00000000000E+00  0.44989058094E+02  0.44989058094E+02  0.00000000000E+00 0. -1.
          2   -1    0    0  501    0  0.00000000000E+00 -0.00000000000E+00 -0.57168542051E+03  0.57168542051E+03  0.00000000000E+00 0.  1.
         25    2    1    2    0    0 -0.60347262132E+01  0.84517831805E+02 -0.12437853240E+03  0.19569616284E+03  0.12508911629E+03 0.  0.
          5    1    3    3  502    0 -0.55014694504E+02  0.73152385442E+02 -0.46109587487E+02  0.10257414180E+03  0.41800000000E+01 0.  1.
         -5    1    3    3    0  502  0.48979968291E+02  0.11365446363E+02 -0.78268944914E+02  0.93122021041E+02  0.41800000000E+01 0.  1.
        -11    1    1    2    0    0  0.26148882681E+02 -0.19190815269E+02 -0.36500001116E+02  0.48829310231E+02  0.00000000000E+00 0. -1.
         11    1    1    2    0    0 -0.20114156468E+02 -0.65327016536E+02 -0.36581782890E+03  0.37214900553E+03  0.00000000000E+00 0.  1.
</event>
<event>
 7    1  0.3056346E-009  0.9793816E+02  0.7561462E-02  0.1284692E+00
          2   -1    0    0  501    0  0.00000000000E+00  0.00000000000E+00  0.15935301603E+03  0.15935301603E+03  0.00000000000E+00 0. -1.
         -2   -1    0    0    0  501 -0.00000000000E+00 -0.00000000000E+00 -0.98549199621E+02  0.98549199621E+02  0.00000000000E+00 0.  1.
         25    2    1    2    0    0 -0.66108004706E+01  0.46216966255E+02  0.89971097441E+02  0.16100203501E+03  0.12508855363E+03 0.  0.
          5    1    3    3  502    0  0.46752883163E+02 -0.43594828374E+01  0.70535654315E+02  0.84838600320E+02  0.41800000000E+01 0.  1.
         -5    1    3    3    0  502 -0.53363683633E+02  0.50576449092E+02  0.19435443126E+02  0.76163434686E+02  0.41800000000E+01 0.  1.
        -11    1    1    2    0    0 -0.25985843031E+02 -0.15239983527E+02 -0.40548461737E+02  0.50514343361E+02  0.00000000000E+00 0.  1.
         11    1    1    2    0    0  0.32596643502E+02 -0.30976982727E+02  0.11381180707E+02  0.46385837286E+02  0.00000000000E+00 0. -1.
</event>
<event>
 7    1  0.3056346E-009  0.4344553E+02  0.7561462E-02  0.1484286E+00
          1   -1    0    0  501    0  0.00000000000E+00  0.00000000000E+00  0.13585172186E+03  0.13585172186E+03  0.00000000000E+00 0. -1.
         -1   -1    0    0    0  501 -0.00000000000E+00 -0.00000000000E+00 -0.11013277510E+03  0.11013277510E+03  0.00000000000E+00 0.  1.
         25    2    1    2    0    0  0.38024323705E+02  0.48546768966E+01  0.57178853518E+02  0.14278089716E+03  0.12509015238E+03 0.  0.
          5    1    3    3  502    0  0.31076141962E+02  0.24918928492E+01 -0.36806861580E+02  0.48416459894E+02  0.41800000000E+01 0. -1.
         -5    1    3    3    0  502  0.69481817431E+01  0.23627840474E+01  0.93985715098E+02  0.94364437266E+02  0.41800000000E+01 0. -1.
        -11    1    1    2    0    0 -0.20745267352E+02 -0.16198562331E+02 -0.61410269084E+02  0.66813027832E+02  0.00000000000E+00 0.  1.
         11    1    1    2    0    0 -0.17279056353E+02  0.11343885434E+02  0.29950362320E+02  0.36390571970E+02  0.00000000000E+00 0. -1.
</event>
<event>
 7    1  0.3056346E-009  0.7136518E+02  0.7561462E-02  0.1355511E+00
          4   -1    0    0  501    0  0.00000000000E+00  0.00000000000E+00  0.10842074096E+03  0.10842074096E+03  0.00000000000E+00 0. -1.
         -4   -1    0    0    0  501 -0.00000000000E+00 -0.00000000000E+00 -0.12493581284E+03  0.12493581284E+03  0.00000000000E+00 0.  1.
         25    2    1    2    0    0  0.16518954729E+02  0.35232845718E+02  0.99607763149E+01  0.13139943495E+03  0.12510941275E+03 0.  0.
          5    1    3    3  502    0  0.22405973475E+02  0.24315551061E+02  0.65954198370E+02  0.73896565234E+02  0.41800000000E+01 0.  1.
         -5    1    3    3    0  502 -0.58870187463E+01  0.10917294656E+02 -0.55993422055E+02  0.57502869717E+02  0.41800000000E+01 0.  1.
        -11    1    1    2    0    0  0.55713455440E+01  0.28407385588E+02 -0.17931502129E+02  0.34052286498E+02  0.00000000000E+00 0. -1.
         11    1    1    2    0    0 -0.22090300273E+02 -0.63640231306E+02 -0.85443460641E+01  0.67904832350E+02  0.00000000000E+00 0.  1.
</event>
<event>
 7    1  0.3171213E-009  0.1301817E+03  0.7561462E-02  0.1227186E+00
         -2   -1    0    0    0  501 -0.00000000000E+00  0.00000000000E+00  0.24078835048E+02  0.24078835048E+02  0.00000000000E+00 0. -1.
          2   -1    0    0  501    0  0.00000000000E+00 -0.00000000000E+00 -0.12227522667E+04  0.12227522667E+04  0.00000000000E+00 0.  1.
         25    2    1    2    0    0  0.87465582534E+02  0.49023449370E+02 -0.94983768128E+03  0.96327102239E+03  0.12508363241E+03 0.  0.
          5    1    3    3  502    0  0.92904328422E+02 -0.12642754700E+02 -0.45659106188E+03  0.46613723695E+03  0.41800000000E+01 0.  1.
         -5    1    3    3    0  502 -0.54387458884E+01  0.61666204070E+02 -0.49324661940E+03  0.49713378544E+03  0.41800000000E+01 0.  1.
        -11    1    1    2    0    0 -0.73588372366E+02 -0.26906464534E+02 -0.24493259782E+03  0.25715984106E+03  0.00000000000E+00 0.  1.
         11    1    1    2    0    0 -0.13877210167E+02 -0.22116984836E+02 -0.39031525215E+01  0.26400238254E+02  0.00000000000E+00 0. -1.
</event>
<event>
 7    1  0.3056346E-009  0.9553419E+02  0.7561462E-02  0.1289977E+00
          1   -1    0    0  501    0  0.00000000000E+00  0.00000000000E+00  0.54783378821E+02  0.54783378821E+02  0.00000000000E+00 0. -1.
         -1   -1    0    0    0  501 -0.00000000000E+00 -0.00000000000E+00 -0.28537572455E+03  0.28537572455E+03  0.00000000000E+00 0.  1.
         25    2    1    2    0    0 -0.18465482276E+02  0.29901106037E+02 -0.19574303974E+03  0.23494209702E+03  0.12508957258E+03 0.  0.
          5    1    3    3  502    0 -0.47430754955E+02 -0.19405681737E+02 -0.15835043166E+03  0.16648900446E+03  0.41800000000E+01 0.  1.
         -5    1    3    3    0  502  0.28965272678E+02  0.49306787774E+02 -0.37392608077E+02  0.68453092557E+02  0.41800000000E+01 0.  1.
        -11    1    1    2    0    0 -0.26763597891E+02 -0.25337222707E+02 -0.45473825160E+02  0.58533185470E+02  0.00000000000E+00 0.  1.
         11    1    1    2    0    0  0.45229080167E+02 -0.45638833302E+01  0.10624519175E+02  0.46683820875E+02  0.00000000000E+00 0. -1.
</event>
<event>
 7    1  0.3056346E-009  0.1045929E+03  0.7561462E-02  0.1270924E+00
         -1   -1    0    0    0  501 -0.00000000000E+00  0.00000000000E+00  0.61154753379E+02  0.61154753379E+02  0.00000000000E+00 0.  1.
          1   -1    0    0  501    0  0.00000000000E+00 -0.00000000000E+00 -0.54138176794E+03  0.54138176794E+03  0.00000000000E+00 0. -1.
         25    2    1    2    0    0 -0.91738346855E+02  0.27704639102E+02 -0.43315758971E+03  0.46092982855E+03  0.12508932015E+03 0.  0.
          5    1    3    3  502    0 -0.72377923956E+02  0.16007658544E+02 -0.43152938111E+03  0.43786971597E+03  0.41800000000E+01 0. -1.
         -5    1    3    3    0  502 -0.19360422899E+02  0.11696980558E+02 -0.16282086037E+01  0.23060112581E+02  0.41800000000E+01 0. -1.
        -11    1    1    2    0    0  0.17503336164E+02  0.17721124971E+02 -0.48546571476E+02  0.54563491908E+02  0.00000000000E+00 0. -1.
         11    1    1    2    0    0  0.74235010691E+02 -0.45425764073E+02  0.14771466222E+01  0.87043200861E+02  0.00000000000E+00 0.  1.
</event>
<event>
 7    1  0.3056346E-009  0.1007276E+03  0.7561462E-02  0.1278773E+00
         -2   -1    0    0    0  501 -0.00000000000E+00  0.00000000000E+00  0.14582746908E+03  0.14582746908E+03  0.00000000000E+00 0.  1.
          2   -1    0    0  501    0  0.00000000000E+00 -0.00000000000E+00 -0.82264507743E+02  0.82264507743E+02  0.00000000000E+00 0. -1.
         25    2    1    2    0    0 -0.97685073312E+01 -0.26106923963E+01  0.28253847013E+02  0.12863885050E+03  0.12508970595E+03 0.  0.
          5    1    3    3  502    0  0.24351200350E+02  0.52685065429E+02  0.13964536798E+01  0.58207555872E+02  0.41800000000E+01 0. -1.
         -5    1    3    3    0  502 -0.34119707681E+02 -0.55295757825E+02  0.26857393334E+02  0.70431294624E+02  0.41800000000E+01 0. -1.
        -11    1    1    2    0    0 -0.30530217354E+02  0.17504146992E+02 -0.10425509692E+02  0.36703958723E+02  0.00000000000E+00 0. -1.
         11    1    1    2    0    0  0.40298724685E+02 -0.14893454596E+02  0.45734624013E+02  0.62749167602E+02  0.00000000000E+00 0.  1.
</event>
<event>
 7    1  0.3056346E-009  0.7248719E+02  0.7561462E-02  0.1351834E+00
          1   -1    0    0  501    0  0.00000000000E+00  0.00000000000E+00  0.29252990381E+03  0.29252990381E+03  0.00000000000E+00 0. -1.
         -1   -1    0    0    0  501 -0.00000000000E+00 -0.00000000000E+00 -0.71868992835E+02  0.71868992835E+02  0.00000000000E+00 0.  1.
         25    2    1    2    0    0 -0.43576489851E+02 -0.34653213174E+02  0.20613404052E+03  0.24746400391E+03  0.12508970748E+03 0.  0.
          5    1    3    3  502    0 -0.14769719763E+01  0.56533335185E+01  0.18528246603E+03  0.18542169842E+03  0.41800000000E+01 0. -1.
         -5    1    3    3    0  502 -0.42099517875E+02 -0.40306546693E+02  0.20851574486E+02  0.62042305487E+02  0.41800000000E+01 0. -1.
        -11    1    1    2    0    0  0.71714688423E+01  0.41669177832E+02  0.50097725538E+02  0.65555567656E+02  0.00000000000E+00 0. -1.
         11    1    1    2    0    0  0.36405021009E+02 -0.70159646575E+01 -0.35570855080E+02  0.51379325082E+02  0.00000000000E+00 0.  1.
</event>
<event>
 7    1  0.3056346E-009  0.6598874E+02  0.7561462E-02  0.1374290E+00
         -2   -1    0    0    0  501 -0.00000000000E+00  0.00000000000E+00  0.99753418439E+02  0.99753418439E+02  0.00000000000E+00 0.  1.
          2   -1    0    0  501    0  0.00000000000E+00 -0.00000000000E+00 -0.13774889286E+03  0.13774889286E+03  0.00000000000E+00 0. -1.
         25    2    1    2    0    0 -0.24426629678E+02 -0.22351547571E+02 -0.53450133116E+02  0.14000268869E+03  0.12509030416E+03 0.  0.
          5    1    3    3  502    0 -0.62296806677E+01  0.23406051776E+02  0.32565905197E+02  0.40800278949E+02  0.41800000000E+01 0.  1.
         -5    1    3    3    0  502 -0.18196949011E+02 -0.45757599347E+02 -0.86016038313E+02  0.99202409741E+02  0.41800000000E+01 0.  1.
        -11    1    1    2    0    0  0.35951760995E+02  0.38185431106E+01  0.46903280872E+02  0.59220166722E+02  0.00000000000E+00 0.  1.
         11    1    1    2    0    0 -0.11525131316E+02  0.18533004460E+02 -0.31448622173E+02  0.38279455884E+02  0.00000000000E+00 0. -1.
</event>
<event>
 7    1  0.3056346E-009  0.1168499E+03  0.7561462E-02  0.1248386E+00
          2   -1    0    0  501    0  0.00000000000E+00  0.00000000000E+00  0.35036994162E+03  0.35036994162E+03  0.00000000000E+00 0. -1.
         -2   -1    0    0    0  501 -0.00000000000E+00 -0.00000000000E+00 -0.57091823684E+02  0.57091823684E+02  0.00000000000E+00 0.  1.
         25    2    1    2    0    0  0.71057551696E+02 -0.99024455081E+01  0.81166902327E+02  0.16547596780E+03  0.12508795229E+03 0.  0.
          5    1    3    3  502    0 -0.97199992734E+00 -0.43961568218E+02 -0.89992100547E+01  0.45077959643E+02  0.41800000000E+01 0.  1.
         -5    1    3    3    0  502  0.72029551624E+02  0.34059122709E+02  0.90166112381E+02  0.12039800816E+03  0.41800000000E+01 0.  1.
        -11    1    1    2    0    0 -0.39852034777E+02 -0.36355887586E+02  0.14498884365E+03  0.15469873956E+03  0.00000000000E+00 0.  1.
         11    1    1    2    0    0 -0.31205516920E+02  0.46258333094E+02  0.67122371961E+02  0.87287057944E+02  0.00000000000E+00 0. -1.
</event>
<event>
 7    1  0.3056346E-009  0.9707391E+02  0.7561462E-02  0.1286572E+00
          2   -1    0    0  501    0  0.00000000000E+00  0.00000000000E+00  0.27889125220E+03  0.27889125220E+03  0.00000000000E+00 0. -1.
         -2   -1    0    0    0  501 -0.00000000000E+00 -0.00000000000E+00 -0.11086757397E+03  0.11086757397E+03  0.00000000000E+00 0.  1.
         25    2    1    2    0    0  0.11125160533E+02 -0.10325193396E+02  0.23994513935E+03  0.27101948815E+03  0.12509002456E+03 0.  0.
          5    1    3    3  502    0 -0.12842402693E+02 -0.64120897719E+02  0.14646642747E+03  0.16045654741E+03  0.41800000000E+01 0.  1.
         -5    1    3    3    0  502  0.23967563225E+02  0.53795704324E+02  0.93478711873E+02  0.11056294074E+03  0.41800000000E+01 0.  1.
        -11    1    1    2    0    0 -0.15570296605E+02  0.38252373453E+02 -0.79390916906E+02  0.89490758731E+02  0.00000000000E+00 0.  1.
         11    1    1    2    0    0  0.44451360718E+01 -0.27927180057E+02  0.74694557957E+01  0.29248579291E+02  0.00000000000E+00 0. -1.
</event>
<event>
 7    1  0.3056346E-009  0.1336545E+03  0.7561462E-02  0.1222132E+00
          2   -1    0    0  501    0  0.00000000000E+00  0.00000000000E+00  0.26161457838E+03  0.26161457838E+03  0.00000000000E+00 0. -1.
         -2   -1    0    0    0  501 -0.00000000000E+00 -0.00000000000E+00 -0.14282786130E+03  0.14282786130E+03  0.00000000000E+00 0.  1.
         25    2    1    2    0    0 -0.45411535515E+01 -0.10505487951E+03  0.18824032057E+03  0.24927997145E+03  0.12509570775E+03 0.  0.
          5    1    3    3  502    0  0.28497199139E+02 -0.11869061299E+03  0.11537486279E+03  0.16801304513E+03  0.41800000000E+01 0.  1.
         -5    1    3    3    0  502 -0.33038352691E+02  0.13635733485E+02  0.72865457781E+02  0.81266926322E+02  0.41800000000E+01 0.  1.
        -11    1    1    2    0    0  0.15613578761E+02  0.83593816421E+02 -0.89733394152E+02  0.12362763450E+03  0.00000000000E+00 0.  1.
         11    1    1    2    0    0 -0.11072425209E+02  0.21461063087E+02  0.20279790670E+02  0.31534833731E+02  0.00000000000E+00 0. -1.
</event>
<event>
 7    1  0.3056346E-009  0.1251172E+03  0.7561462E-02  0.1234886E+00
         -4   -1    0    0    0  501 -0.00000000000E+00  0.00000000000E+00  0.48406540372E+03  0.48406540372E+03  0.00000000000E+00 0.  1.
          4   -1    0    0  501    0  0.00000000000E+00 -0.00000000000E+00 -0.36362006206E+02  0.36362006206E+02  0.00000000000E+00 0. -1.
         25    2    1    2    0    0  0.41010311931E+02  0.35282414591E+02  0.31304460138E+03  0.34142358889E+03  0.12508577110E+03 0.  0.
          5    1    3    3  502    0  0.74093134931E+02 -0.15123558906E+02  0.16728357210E+03  0.18362946542E+03  0.41800000000E+01 0.  1.
         -5    1    3    3    0  502 -0.33082823000E+02  0.50405973497E+02  0.14576102929E+03  0.15779412347E+03  0.41800000000E+01 0.  1.
        -11    1    1    2    0    0 -0.56588223076E+02 -0.61494235162E+02  0.11696062793E+03  0.14374823976E+03  0.00000000000E+00 0.  1.
         11    1    1    2    0    0  0.15577911145E+02  0.26211820571E+02  0.17698168200E+02  0.35255581273E+02  0.00000000000E+00 0. -1.
</event>
<event>
 7    1  0.3056346E-009  0.1102769E+03  0.7561462E-02  0.1260058E+00
          2   -1    0    0  501    0  0.00000000000E+00  0.00000000000E+00  0.15108449443E+03  0.15108449443E+03  0.00000000000E+00 0.  1.
         -2   -1    0    0    0  501 -0.00000000000E+00 -0.00000000000E+00 -0.11973163660E+03  0.11973163660E+03  0.00000000000E+00 0. -1.
         25    2    1    2    0    0  0.67940279170E+02 -0.40327923170E+02  0.44881282001E+02  0.15460942173E+03  0.12509005113E+03 0.  0.
          5    1    3    3  502    0  0.53415833051E+02 -0.77466184490E+02  0.60090795125E+02  0.11172572228E+03  0.41800000000E+01 0. -1.
         -5    1    3    3    0  502  0.14524446119E+02  0.37138261320E+02 -0.15209513123E+02  0.42883699449E+02  0.41800000000E+01 0. -1.
        -11    1    1    2    0    0 -0.38647836724E+02  0.29228726787E+01 -0.44868855229E+02  0.59290915305E+02  0.00000000000E+00 0. -1.
         11    1    1    2    0    0 -0.29292442446E+02  0.37405050491E+02  0.31340431056E+02  0.56915793990E+02  0.00000000000E+00 0.  1.
</event>
<event>
 7    1  0.3056346E-009  0.2917054E+03  0.7561462E-02  0.1089462E+00
          1   -1    0    0  501    0  0.00000000000E+00  0.00000000000E+00  0.21964206828E+04  0.21964206828E+04  0.00000000000E+00 0. -1.
         -1   -1    0    0    0  501 -0.00000000000E+00 -0.00000000000E+00 -0.40519645282E+02  0.40519645282E+02  0.00000000000E+00 0.  1.
         25    2    1    2    0    0  0.25868684235E+02  0.27636567181E+03  0.10771100019E+04  0.11193122719E+04  0.12508729985E+03 0.  0.
          5    1    3    3  502    0  0.61622964468E+02  0.20242474241E+03  0.62710347191E+03  0.66185300707E+03  0.41800000000E+01 0. -1.
         -5    1    3    3    0  502 -0.35754280234E+02  0.73940929396E+02  0.45000652997E+03  0.45745926486E+03  0.41800000000E+01 0. -1.
        -11    1    1    2    0    0 -0.34753529707E+02 -0.39945390118E+02  0.14610143727E+03  0.15539971684E+03  0.00000000000E+00 0.  1.
         11    1    1    2    0    0  0.88848454719E+01 -0.23642028169E+03  0.93268959835E+03  0.96222833930E+03  0.00000000000E+00 0. -1.
</event>
<event>
 7    1  0.3056346E-009  0.1002046E+03  0.7561462E-02  0.1279866E+00
         -3   -1    0    0    0  501 -0.00000000000E+00  0.00000000000E+00  0.20121636764E+03  0.20121636764E+03  0.00000000000E+00 0.  1.
          3   -1    0    0  501    0  0.00000000000E+00 -0.00000000000E+00 -0.11399774469E+03  0.11399774469E+03  0.00000000000E+00 0. -1.
         25    2    1    2    0    0  0.33354651353E+02  0.65511769349E+02 -0.31131131566E+02  0.14839368633E+03  0.12508882484E+03 0.  0.
          5    1    3    3  502    0  0.15439639699E+02  0.63882339116E+02  0.38549110333E+02  0.76307548987E+02  0.41800000000E+01 0. -1.
         -5    1    3    3    0  502  0.17915011654E+02  0.16294302331E+01 -0.69680241898E+02  0.72086137339E+02  0.41800000000E+01 0. -1.
        -11    1    1    2    0    0 -0.20618179434E+02  0.20536499333E+02  0.41898732922E+02  0.51013340887E+02  0.00000000000E+00 0. -1.
         11    1    1    2    0    0 -0.12736471919E+02 -0.86048268683E+02  0.76451021599E+02  0.11580708512E+03  0.00000000000E+00 0.  1.
</event>
<event>
 7    1  0.3056346E-009  0.9880364E+02  0.7561462E-02  0.1282832E+00
         -1   -1    0    0    0  501 -0.00000000000E+00  0.00000000000E+00  0.15044048480E+03  0.15044048480E+03  0.00000000000E+00 0.  1.
          1   -1    0    0  501    0  0.00000000000E+00 -0.00000000000E+00 -0.10609093930E+03  0.10609093930E+03  0.00000000000E+00 0. -1.
         25    2    1    2    0    0 -0.49999390457E+02 -0.27629834060E+01 -0.17693416334E+02  0.13589484094E+03  0.12508708043E+03 0.  0.
          5    1    3    3  502    0  0.20853946293E+02 -0.25199770462E+02  0.32353420519E+02  0.46196663587E+02  0.41800000000E+01 0. -1.
         -5    1    3    3    0  502 -0.70853336751E+02  0.22436787056E+02 -0.50046836853E+02  0.89698177356E+02  0.41800000000E+01 0. -1.
        -11    1    1    2    0    0 -0.17877082927E+02  0.12229485673E+02  0.45112527602E+02  0.50042887211E+02  0.00000000000E+00 0.  1.
         11    1    1    2    0    0  0.67876473384E+02 -0.94665022667E+01  0.16930434232E+02  0.70593695947E+02  0.00000000000E+00 0. -1.
</event>
<event>
 7    1  0.3056346E-009  0.9286052E+02  0.7561462E-02  0.1296069E+00
          2   -1    0    0  501    0  0.00000000000E+00  0.00000000000E+00  0.72977256382E+02  0.72977256382E+02  0.00000000000E+00 0. -1.
         -2   -1    0    0    0  501 -0.00000000000E+00 -0.00000000000E+00 -0.16346883321E+03  0.16346883321E+03  0.00000000000E+00 0.  1.
         25    2    1    2    0    0  0.91152265448E+01 -0.68643882608E+01 -0.58518524971E+02  0.13857173023E+03  0.12508996552E+03 0.  0.
          5    1    3    3  502    0 -0.29074716437E+02  0.30951114841E+02  0.16877085917E+02  0.45887025125E+02  0.41800000000E+01 0.  1.
         -5    1    3    3    0  502  0.38189942981E+02 -0.37815503102E+02 -0.75395610889E+02  0.92684705108E+02  0.41800000000E+01 0.  1.
        -11    1    1    2    0    0  0.39142675983E+02 -0.49665336813E+01 -0.27274421490E+02  0.47965712832E+02  0.00000000000E+00 0.  1.
         11    1    1    2    0    0 -0.48257902528E+02  0.11830921942E+02 -0.46986303632E+01  0.49908646522E+02  0.00000000000E+00 0. -1.
</event>
<event>
 7    1  0.3056346E-009  0.1373374E+03  0.7561462E-02  0.1216957E+00
          1   -1    0    0  501    0  0.00000000000E+00  0.00000000000E+00  0.85767295594E+03  0.85767295594E+03  0.00000000000E+00 0. -1.
         -1   -1    0    0    0  501 -0.00000000000E+00 -0.00000000000E+00 -0.35614370612E+02  0.35614370612E+02  0.00000000000E+00 0.  1.
         25    2    1    2    0    0 -0.90474711298E+02  0.81734223540E+02  0.57889088899E+03  0.60467213469E+03  0.12509025714E+03 0.  0.
          5    1    3    3  502    0  0.90286279937E+01  0.42372615969E+01  0.28032685279E+03  0.28053535838E+03  0.41800000000E+01 0. -1.
         -5    1    3    3    0  502 -0.99503339292E+02  0.77496961943E+02  0.29856403620E+03  0.32413677631E+03  0.41800000000E+01 0. -1.
        -11    1    1    2    0    0  0.91614212382E+02 -0.47091842241E+02  0.10871101418E+03  0.14976277949E+03  0.00000000000E+00 0.  1.
         11    1    1    2    0    0 -0.11395010842E+01 -0.34642381299E+02  0.13445668216E+03  0.13885241238E+03  0.00000000000E+00 0. -1.
</event>
<event>
 7    1  0.3056346E-009  0.1394989E+03  0.7561462E-02  0.1214005E+00
         -1   -1    0    0    0  501 -0.00000000000E+00  0.00000000000E+00  0.15232892505E+03  0.15232892505E+03  0.00000000000E+00 0.  1.
          1   -1    0    0  501    0  0.00000000000E+00 -0.00000000000E+00 -0.16776971478E+03  0.16776971478E+03  0.00000000000E+00 0. -1.
         25    2    1    2    0    0  0.84037785139E+02 -0.59457259060E+02 -0.63611802075E+02  0.17404363103E+03  0.12508880507E+03 0.  0.
          5    1    3    3  502    0  0.10778452047E+03 -0.45094216691E+02 -0.14944194315E+02  0.11786344885E+03  0.41800000000E+01 0.  1.
         -5    1    3    3    0  502 -0.23746735327E+02 -0.14363042369E+02 -0.48667607760E+02  0.56180182181E+02  0.41800000000E+01 0.  1.
        -11    1    1    2    0    0 -0.84566374734E+02  0.10677848069E+02  0.46828446760E+02  0.97254262637E+02  0.00000000000E+00 0.  1.
         11    1    1    2    0    0  0.52858959478E+00  0.48779410991E+02  0.13425655849E+01  0.48800746161E+02  0.00000000000E+00 0. -1.
</event>
<event>
 6    1  0.3056346E-009  0.2512725E+03  0.7561462E-02  0.1112503E+00
         -2   -1    0    0    0  501 -0.00000000000E+00  0.00000000000E+00  0.59116880922E+03  0.59116880922E+03  0.00000000000E+00 0.  1.
          2   -1    0    0  501    0  0.00000000000E+00 -0.00000000000E+00 -0.11391654818E+03  0.11391654818E+03  0.00000000000E+00 0. -1.
          5    1    1    2  502    0  0.29928491581E+02  0.44355987224E+02  0.66593141922E+02  0.85529452015E+02  0.41800000000E+01 0. -1.
         -5    1    1    2    0  502 -0.12929576553E+03  0.16036096538E+03  0.25941020775E+03  0.33127656495E+03  0.41800000000E+01 0. -1.
        -11    1    1    2    0    0  0.11131436794E+03 -0.14976374853E+03  0.13302602605E+03  0.22916368056E+03  0.00000000000E+00 0.  1.
         11    1    1    2    0    0 -0.11947093994E+02 -0.54953204076E+02  0.18222885323E+02  0.59115659876E+02  0.00000000000E+00 0. -1.
</event>
<event>
 7    1  0.3056346E-009  0.1892007E+03  0.7561462E-02  0.1159184E+00
         -1   -1    0    0    0  501 -0.00000000000E+00  0.00000000000E+00  0.16664516824E+03  0.16664516824E+03  0.00000000000E+00 0.  1.
          1   -1    0    0  501    0  0.00000000000E+00 -0.00000000000E+00 -0.22257756747E+03  0.22257756747E+03  0.00000000000E+00 0. -1.
         25    2    1    2    0    0  0.69723164827E+02  0.14040989744E+03 -0.98326696189E+01  0.20079995411E+03  0.12509069177E+03 0.  0.
          5    1    3    3  502    0  0.22665484554E+02 -0.18818626765E+02 -0.17526201324E+02  0.34532666219E+02  0.41800000000E+01 0.  1.
         -5    1    3    3    0  502  0.47057680274E+02  0.15922852420E+03  0.76935317049E+01  0.16626728789E+03  0.41800000000E+01 0.  1.
        -11    1    1    2    0    0 -0.47336690818E+02 -0.76832408600E+01 -0.15359686998E+02  0.50355878231E+02  0.00000000000E+00 0.  1.
         11    1    1    2    0    0 -0.22386474009E+02 -0.13272665658E+03 -0.30740042612E+02  0.13806690336E+03  0.00000000000E+00 0. -1.
</event>
<event>
 7    1  0.3056346E-009  0.2467024E+03  0.7561462E-02  0.1115407E+00
         -2   -1    0    0    0  501 -0.00000000000E+00  0.00000000000E+00  0.45424835964E+02  0.45424835964E+02  0.00000000000E+00 0.  1.
          2   -1    0    0  501    0  0.00000000000E+00 -0.00000000000E+00 -0.13751358732E+04  0.13751358732E+04  0.00000000000E+00 0. -1.
         25    2    1    2    0    0  0.18798704420E+03  0.11773122797E+03 -0.59091111100E+03  0.64345491217E+03  0.12513397649E+03 0.  0.
          5    1    3    3  502    0 -0.91741948688E+01 -0.13949356820E+02 -0.32354701715E+02  0.36647640173E+02  0.41800000000E+01 0. -1.
         -5    1    3    3    0  502  0.19716123907E+03  0.13168058479E+03 -0.55855640928E+03  0.60680727200E+03  0.41800000000E+01 0. -1.
        -11    1    1    2    0    0 -0.12347945703E+03 -0.24809016982E+02 -0.34018337792E+03  0.36274976809E+03  0.00000000000E+00 0.  1.
         11    1    1    2    0    0 -0.64507587170E+02 -0.92922210985E+02 -0.39861654828E+03  0.41435602887E+03  0.00000000000E+00 0. -1.
</event>
<event>
 7    1  0.3056346E-009  0.1323940E+03  0.7561462E-02  0.1223946E+00
          2   -1    0    0  501    0  0.00000000000E+00  0.00000000000E+00  0.99228708350E+02  0.99228708350E+02  0.00000000000E+00 0. -1.
         -2   -1    0    0    0  501 -0.00000000000E+00 -0.00000000000E+00 -0.35172449424E+03  0.35172449424E+03  0.00000000000E+00 0.  1.
         25    2    1    2    0    0  0.50673926994E+02 -0.98464351528E+02 -0.73593978539E+01  0.16722963287E+03  0.12509402054E+03 0.  0.
          5    1    3    3  502    0  0.60962342665E+02 -0.82917353691E+02  0.44320221424E+02  0.11213139254E+03  0.41800000000E+01 0. -1.
         -5    1    3    3    0  502 -0.10288415671E+02 -0.15546997837E+02 -0.51679619278E+02  0.55098240330E+02  0.41800000000E+01 0. -1.
        -11    1    1    2    0    0  0.23081021218E+02  0.48158355863E+02 -0.85079682973E+02  0.10045154670E+03  0.00000000000E+00 0.  1.
         11    1    1    2    0    0 -0.73754948212E+02  0.50305995665E+02 -0.16005670507E+03  0.18327202302E+03  0.00000000000E+00 0. -1.
</event>
<event>
 6    1  0.3056346E-009  0.9702337E+02  0.7561462E-02  0.1286683E+00
          3   -1    0    0  501    0  0.00000000000E+00  0.00000000000E+00  0.24966851228E+03  0.24966851228E+03  0.00000000000E+00 0. -1.
         -3   -1    0    0    0  501 -0.00000000000E+00 -0.00000000000E+00 -0.72420938902E+02  0.72420938902E+02  0.00000000000E+00 0.  1.
          5    1    1    2  502    0 -0.47202718957E+02  0.25936677963E+02  0.99920319274E+01  0.54937428432E+02  0.41800000000E+01 0. -1.
         -5    1    1    2    0  502  0.25137422777E+02  0.93278104236E+01  0.15035416822E+03  0.15278333146E+03  0.41800000000E+01 0. -1.
        -11    1    1    2    0    0 -0.35001536943E+00  0.37115965040E+02  0.21920199102E+01  0.37182285068E+02  0.00000000000E+00 0.  1.
         11    1    1    2    0    0  0.22415311550E+02 -0.72380453427E+02  0.14709353321E+02  0.77186406220E+02  0.00000000000E+00 0. -1.
</event>
<event>
 7    1  0.3056346E-009  0.1640521E+03  0.7561462E-02  0.1184196E+00
          1   -1    0    0  501    0  0.00000000000E+00  0.00000000000E+00  0.15445121902E+03  0.15445121902E+03  0.00000000000E+00 0. -1.
         -1   -1    0    0    0  501 -0.00000000000E+00 -0.00000000000E+00 -0.21011854307E+03  0.21011854307E+03  0.00000000000E+00 0.  1.
         25    2    1    2    0    0  0.73930648610E+02  0.11646288764E+03 -0.66232665614E+02  0.19764490538E+03  0.12508955843E+03 0.  0.
          5    1    3    3  502    0  0.10917995447E+03  0.81242180928E+02 -0.46252151632E+02  0.14379599560E+03  0.41800000000E+01 0.  1.
         -5    1    3    3    0  502 -0.35249305864E+02  0.35220706716E+02 -0.19980513982E+02  0.53848909780E+02  0.41800000000E+01 0.  1.
        -11    1    1    2    0    0 -0.39436180581E+02 -0.90665634489E+02 -0.34374176742E+02  0.10467594587E+03  0.00000000000E+00 0.  1.
         11    1    1    2    0    0 -0.34494468028E+02 -0.25797253155E+02  0.44939518307E+02  0.62248910838E+02  0.00000000000E+00 0. -1.
</event>
<event>
 7    1  0.3056346E-009  0.2214173E+03  0.7561462E-02  0.1132831E+00
          1   -1    0    0  501    0  0.00000000000E+00  0.00000000000E+00  0.39853851733E+03  0.39853851733E+03  0.00000000000E+00 0. -1.
         -1   -1    0    0    0  501 -0.00000000000E+00 -0.00000000000E+00 -0.13537158977E+03  0.13537158977E+03  0.00000000000E+00 0.  1.
         25    2    1    2    0    0 -0.19620055654E+03 -0.43266141053E+02  0.91223910380E+02  0.25364362343E+03  0.12508664409E+03 0.  0.
          5    1    3    3  502    0 -0.95016099995E+02  0.26418163829E+02  0.85485343823E+02  0.13058022456E+03  0.41800000000E+01 0. -1.
         -5    1    3    3    0  502 -0.10118445655E+03 -0.69684304882E+02  0.57385665572E+01  0.12306339886E+03  0.41800000000E+01 0. -1.
        -11    1    1    2    0    0  0.17896232931E+03  0.47803406646E+01  0.13533957873E+03  0.22442630982E+03  0.00000000000E+00 0.  1.
         11    1    1    2    0    0  0.17238227234E+02  0.38485800388E+02  0.36603438446E+02  0.55840173851E+02  0.00000000000E+00 0. -1.
</event>
<event>
 7    1  0.3056346E-009  0.7718221E+02  0.7561462E-02  0.1337244E+00
          1   -1    0    0  501    0  0.00000000000E+00  0.00000000000E+00  0.19872381223E+03  0.19872381223E+03  0.00000000000E+00 0. -1.
         -1   -1    0    0    0  501 -0.00000000000E+00 -0.00000000000E+00 -0.76772730910E+02  0.76772730910E+02  0.00000000000E+00 0.  1.
         25    2    1    2    0    0  0.17005717698E+02  0.25794791314E+02  0.11554513463E+02  0.12932940218E+03  0.12505207632E+03 0.  0.
          5    1    3    3  502    0 -0.20197497211E+02 -0.18264364121E+01  0.59212092406E+02  0.62728136037E+02  0.41800000000E+01 0. -1.
         -5    1    3    3    0  502  0.37203214910E+02  0.27621227727E+02 -0.47657578943E+02  0.66601266140E+02  0.41800000000E+01 0. -1.
        -11    1    1    2    0    0  0.92331802043E+01 -0.50354812564E+02  0.93177857777E+02  0.10631543606E+03  0.00000000000E+00 0. -1.
         11    1    1    2    0    0 -0.26238897902E+02  0.24560021249E+02  0.17218710083E+02  0.39851704905E+02  0.00000000000E+00 0.  1.
</event>
<event>
 7    1  0.3056346E-009  0.1109333E+03  0.7561462E-02  0.1258851E+00
          1   -1    0    0  501    0  0.00000000000E+00  0.00000000000E+00  0.37276771922E+03  0.37276771922E+03  0.00000000000E+00 0. -1.
         -1   -1    0    0    0  501 -0.00000000000E+00 -0.00000000000E+00 -0.99693003916E+02  0.99693003916E+02  0.00000000000E+00 0.  1.
         25    2    1    2    0    0  0.42577670471E+02  0.13203903977E+02  0.32934020845E+03  0.35510599039E+03  0.12509232755E+03 0.  0.
          5    1    3    3  502    0  0.54172390242E+02  0.57003193626E+02  0.14256904134E+03  0.16287239145E+03  0.41800000000E+01 0.  1.
         -5    1    3    3    0  502 -0.11594719770E+02 -0.43799289649E+02  0.18677116711E+03  0.19223359894E+03  0.41800000000E+01 0.  1.
        -11    1    1    2    0    0 -0.48572574797E+02  0.27942143870E+02 -0.50391236926E+02  0.75361364009E+02  0.00000000000E+00 0.  1.
         11    1    1    2    0    0  0.59949043254E+01 -0.41146047847E+02 -0.58742562194E+01  0.41993368731E+02  0.00000000000E+00 0. -1.
</event>
<event>
 7    1  0.3056346E-009  0.1324766E+03  0.7561462E-02  0.1223826E+00
          2   -1    0    0  501    0  0.00000000000E+00  0.00000000000E+00  0.56414802321E+03  0.56414802321E+03  0.00000000000E+00 0. -1.
         -2   -1    0    0    0  501 -0.00000000000E+00 -0.00000000000E+00 -0.47506058305E+02  0.47506058305E+02  0.00000000000E+00 0.  1.
         25    2    1    2    0    0 -0.80312428474E+01  0.11875922027E+03  0.23202106706E+03  0.28921814023E+03  0.12508038941E+03 0.  0.
          5    1    3    3  502    0 -0.40904448726E+02  0.93899738540E+02  0.22493379970E+03  0.24719025359E+03  0.41800000000E+01 0. -1.
         -5    1    3    3    0  502  0.32873205879E+02  0.24859481729E+02  0.70872673654E+01  0.42027886638E+02  0.41800000000E+01 0. -1.
        -11    1    1    2    0    0 -0.67774283341E+01 -0.19112939387E+02 -0.24614871908E+00  0.20280497430E+02  0.00000000000E+00 0.  1.
         11    1    1    2    0    0  0.14808671181E+02 -0.99646280882E+02  0.28486704656E+03  0.30215544385E+03  0.00000000000E+00 0. -1.
</event>
<event>
 7    1  0.3056346E-009  0.3013134E+02  0.7561462E-02  0.1596641E+00
          2   -1    0    0  501    0  0.00000000000E+00  0.00000000000E+00  0.15473616081E+03  0.15473616081E+03  0.00000000000E+00 0. -1.
         -2   -1    0    0    0  501 -0.00000000000E+00 -0.00000000000E+00 -0.41380169775E+02  0.41380169775E+02  0.00000000000E+00 0.  1.
         25    2    1    2    0    0  0.46467341085E+01  0.26623908953E+02  0.95976864477E+02  0.15996741920E+03  0.12509033545E+03 0.  0.
          5    1    3    3  502    0  0.55087016268E+01  0.17977082191E+02 -0.28893639695E+02  0.34725150720E+02  0.41800000000E+01 0. -1.
         -5    1    3    3    0  502 -0.86196751831E+00  0.86468267614E+01  0.12487050417E+03  0.12524226848E+03  0.41800000000E+01 0. -1.
        -11    1    1    2    0    0 -0.88531424720E+01 -0.69920329970E+01  0.37731389982E+01  0.11895513228E+02  0.00000000000E+00 0.  1.
         11    1    1    2    0    0  0.42064083635E+01 -0.19631875956E+02  0.13605987560E+02  0.24253398161E+02  0.00000000000E+00 0. -1.
</event>
<event>
 7    1  0.3056346E-009  0.1306420E+03  0.7561462E-02  0.1226506E+00
          1   -1    0    0  501    0  0.00000000000E+00  0.00000000000E+00  0.74316260382E+03  0.74316260382E+03  0.00000000000E+00 0. -1.
         -1   -1    0    0    0  501 -0.00000000000E+00 -0.00000000000E+00 -0.37690243927E+02  0.37690243927E+02  0.00000000000E+00 0.  1.
         25    2    1    2    0    0  0.91946745379E+02 -0.42706400854E+02  0.20158872334E+03  0.25799910759E+03  0.12508990959E+03 0.  0.
          5    1    3    3  502    0  0.67755499106E+02  0.70748611863E+01  0.18919114796E+03  0.20112589138E+03  0.41800000000E+01 0.  1.
         -5    1    3    3    0  502  0.24191246273E+02 -0.49781262040E+02  0.12397575382E+02  0.56873216209E+02  0.41800000000E+01 0.  1.
        -11    1    1    2    0    0 -0.56287066101E+02  0.71990829581E+02  0.37449653201E+03  0.38548484515E+03  0.00000000000E+00 0.  1.
         11    1    1    2    0    0 -0.35659679277E+02 -0.29284428727E+02  0.12938710454E+03  0.13736889500E+03  0.00000000000E+00 0. -1.
</event>
<event>
 7    1  0.3056346E-009  0.1166446E+03  0.7561462E-02  0.1248737E+00
          2   -1    0    0  501    0  0.00000000000E+00  0.00000000000E+00  0.65980715749E+02  0.65980715749E+02  0.00000000000E+00 0. -1.
         -2   -1    0    0    0  501 -0.00000000000E+00 -0.00000000000E+00 -0.36279585154E+03  0.36279585154E+03  0.00000000000E+00 0.  1.
         25    2    1    2    0    0  0.29447697248E+02  0.49911965345E+02 -0.37840612691E+02  0.14296046017E+03  0.12508960807E+03 0.  0.
          5    1    3    3  502    0  0.12843318503E+02 -0.40760389579E+02  0.73659150097E+00  0.42946189072E+02  0.41800000000E+01 0.  1.
         -5    1    3    3    0  502  0.16604378745E+02  0.90672354923E+02 -0.38577204192E+02  0.10001427110E+03  0.41800000000E+01 0.  1.
        -11    1    1    2    0    0 -0.27637536802E+02  0.16134932744E+02 -0.18011547145E+03  0.18293647135E+03  0.00000000000E+00 0.  1.
         11    1    1    2    0    0 -0.18101604466E+01 -0.66046898088E+02 -0.78859051654E+02  0.10287963577E+03  0.00000000000E+00 0. -1.
</event>
<event>
 7    1  0.3056346E-009  0.1472461E+03  0.7561462E-02  0.1203898E+00
          1   -1    0    0  501    0  0.00000000000E+00  0.00000000000E+00  0.27848699493E+03  0.27848699493E+03  0.00000000000E+00 0. -1.
         -1   -1    0    0    0  501 -0.00000000000E+00 -0.00000000000E+00 -0.10045292471E+03  0.10045292471E+03  0.00000000000E+00 0.  1.
         25    2    1    2    0    0 -0.51168317571E+02  0.11077509385E+03  0.54279570661E+02  0.18298136454E+03  0.12508632953E+03 0.  0.
          5    1    3    3  502    0 -0.82217110855E+02  0.11437458790E+03  0.55417609022E+02  0.15142583486E+03  0.41800000000E+01 0.  1.
         -5    1    3    3    0  502  0.31048793284E+02 -0.35994940445E+01 -0.11380383606E+01  0.31555529675E+02  0.41800000000E+01 0.  1.
        -11    1    1    2    0    0  0.42168586042E+02 -0.89522668308E+02  0.13726429519E+03  0.16921579277E+03  0.00000000000E+00 0. -1.
         11    1    1    2    0    0  0.89997315285E+01 -0.21252425545E+02 -0.13509795628E+02  0.26742762330E+02  0.00000000000E+00 0.  1.
</event>
<event>
 7    1  0.3675085E-009  0.1580342E+03  0.7561462E-02  0.1190934E+00
          2   -1    0    0  501    0  0.00000000000E+00  0.00000000000E+00  0.57545479230E+03  0.57545479230E+03  0.00000000000E+00 0. -1.
         -2   -1    0    0    0  501 -0.00000000000E+00 -0.00000000000E+00 -0.55045179147E+02  0.55045179147E+02  0.00000000000E+00 0.  1.
         25    2    1    2    0    0  0.84630643469E+02  0.11234386060E+03  0.26624505385E+03  0.32606269954E+03  0.12508783513E+03 0.  0.
          5    1    3    3  502    0  0.44338089727E+02  0.11493699568E+03  0.25610353655E+03  0.28422328021E+03  0.41800000000E+01 0. -1.
         -5    1    3    3    0  502  0.40292553742E+02 -0.25931350756E+01  0.10141517300E+02  0.41839419328E+02  0.41800000000E+01 0. -1.
        -11    1    1    2    0    0 -0.35212361393E+02 -0.70668605236E+01  0.15843924265E+02  0.39254055187E+02  0.00000000000E+00 0.  1.
         11    1    1    2    0    0 -0.49418282076E+02 -0.10527700008E+03  0.23832063503E+03  0.26518321672E+03  0.00000000000E+00 0. -1.
</event>
<event>
 7    1  0.3056346E-009  0.7253488E+02  0.7561462E-02  0.1351679E+00
         -2   -1    0    0    0  501 -0.00000000000E+00  0.00000000000E+00  0.83168597269E+03  0.83168597269E+03  0.00000000000E+00 0. -1.
          2   -1    0    0  501    0  0.00000000000E+00 -0.00000000000E+00 -0.15060023703E+02  0.15060023703E+02  0.00000000000E+00 0.  1.
         25    2    1    2    0    0 -0.18246420355E+02 -0.18393433375E+02  0.52787245944E+03  0.54310968586E+03  0.12509015625E+03 0.  0.
          5    1    3    3  502    0  0.17188653454E+02 -0.11594212103E+02  0.49063509594E+03  0.49109077097E+03  0.41800000000E+01 0. -1.
         -5    1    3    3    0  502 -0.35435073809E+02 -0.67992212719E+01  0.37237363495E+02  0.52018914886E+02  0.41800000000E+01 0. -1.
        -11    1    1    2    0    0  0.50441256025E+02  0.22327736629E+02  0.23002438959E+03  0.23654612222E+03  0.00000000000E+00 0. -1.
         11    1    1    2    0    0 -0.32194835670E+02 -0.39343032543E+01  0.58729099960E+02  0.67090188314E+02  0.00000000000E+00 0.  1.
</event>
<event>
 7    1  0.3056346E-009  0.1754513E+03  0.7561462E-02  0.1172279E+00
         -1   -1    0    0    0  501 -0.00000000000E+00  0.00000000000E+00  0.21717277522E+03  0.21717277522E+03  0.00000000000E+00 0.  1.
          1   -1    0    0  501    0  0.00000000000E+00 -0.00000000000E+00 -0.34303826024E+03  0.34303826024E+03  0.00000000000E+00 0. -1.
         25    2    1    2    0    0  0.24306827026E+02  0.16094282988E+03  0.13058447066E+03  0.24329692941E+03  0.12509066934E+03 0.  0.
          5    1    3    3  502    0  0.27761262042E+02  0.99564815183E+02  0.14679504732E+03  0.17958312396E+03  0.41800000000E+01 0.  1.
         -5    1    3    3    0  502 -0.34544350162E+01  0.61378014695E+02 -0.16210576669E+02  0.63713805451E+02  0.41800000000E+01 0.  1.
        -11    1    1    2    0    0  0.44953652723E+01 -0.15665423773E+03 -0.20880874224E+03  0.26107824372E+03  0.00000000000E+00 0. -1.
         11    1    1    2    0    0 -0.28802192298E+02 -0.42885921501E+01 -0.47641213441E+02  0.55835862328E+02  0.00000000000E+00 0.  1.
</event>
<event>
 7    1  0.3056346E-009  0.1116263E+03  0.7561462E-02  0.1257587E+00
         -2   -1    0    0    0  501 -0.00000000000E+00  0.00000000000E+00  0.30508206310E+02  0.30508206310E+02  0.00000000000E+00 0. -1.
          2   -1    0    0  501    0  0.00000000000E+00 -0.00000000000E+00 -0.52035405459E+03  0.52035405459E+03  0.00000000000E+00 0.  1.
         25    2    1    2    0    0 -0.24524284242E+02 -0.56474124208E+02 -0.28061382648E+03  0.31333871276E+03  0.12508501940E+03 0.  0.
          5    1    3    3  502    0 -0.11998413292E+02 -0.96399097041E+02 -0.18953048445E+03  0.21301648943E+03  0.41800000000E+01 0.  1.
         -5    1    3    3    0  502 -0.12525870950E+02  0.39924972833E+02 -0.91083342032E+02  0.10032222333E+03  0.41800000000E+01 0.  1.
        -11    1    1    2    0    0 -0.14880493759E+02 -0.27075512133E+00  0.22422220596E+01  0.15050912351E+02  0.00000000000E+00 0. -1.
         11    1    1    2    0    0  0.39404778000E+02  0.56744879329E+02 -0.21147424386E+03  0.22247263579E+03  0.00000000000E+00 0.  1.
</event>
<event>
 7    1  0.3056346E-009  0.1117498E+03  0.7561462E-02  0.1257363E+00
          1   -1    0    0  501    0  0.00000000000E+00  0.00000000000E+00  0.46670243768E+03  0.46670243768E+03  0.00000000000E+00 0. -1.
         -1   -1    0    0    0  501 -0.00000000000E+00 -0.00000000000E+00 -0.36473165820E+02  0.36473165820E+02  0.00000000000E+00 0.  1.
         25    2    1    2    0    0 -0.57432320612E+02 -0.11009661421E+02  0.30304578646E+03  0.33302184618E+03  0.12508843770E+03 0.  0.
          5    1    3    3  502    0 -0.78996915290E+02 -0.27385612841E+02  0.11098503735E+03  0.13901667285E+03  0.41800000000E+01 0.  1.
         -5    1    3    3    0  502  0.21564594678E+02  0.16375951420E+02  0.19206074911E+03  0.19400517333E+03  0.41800000000E+01 0.  1.
        -11    1    1    2    0    0  0.23497831326E+02  0.53250332224E+02  0.56761883724E+02  0.81299799525E+02  0.00000000000E+00 0. -1.
         11    1    1    2    0    0  0.33934489285E+02 -0.42240670802E+02  0.70421601669E+02  0.88853957787E+02  0.00000000000E+00 0.  1.
</event>
<event>
 7    1  0.3056346E-009  0.1082451E+03  0.7561462E-02  0.1263855E+00
         -1   -1    0    0    0  501 -0.00000000000E+00  0.00000000000E+00  0.87378962429E+01  0.87378962429E+01  0.00000000000E+00 0.  1.
          1   -1    0    0  501    0  0.00000000000E+00 -0.00000000000E+00 -0.13893766478E+04  0.13893766478E+04  0.00000000000E+00 0. -1.
         25    2    1    2    0    0  0.18150068809E+02  0.11936718301E+02 -0.86338650081E+03  0.87267152034E+03  0.12508965742E+03 0.  0.
          5    1    3    3  502    0 -0.51175668375E+02  0.18034310057E+02 -0.29001555648E+03  0.29507741488E+03  0.41800000000E+01 0. -1.
         -5    1    3    3    0  502  0.69325737184E+02 -0.60975917554E+01 -0.57337094433E+03  0.57759410546E+03  0.41800000000E+01 0. -1.
        -11    1    1    2    0    0 -0.48802802522E+02 -0.29496528490E+02 -0.32883682124E+03  0.33374453363E+03  0.00000000000E+00 0. -1.
         11    1    1    2    0    0  0.30652733713E+02  0.17559810188E+02 -0.18841542954E+03  0.19169849010E+03  0.00000000000E+00 0.  1.
</event>
<event>
 7    1  0.3056346E-009  0.9219672E+02  0.7561462E-02  0.1297618E+00
          1   -1    0    0  501    0  0.00000000000E+00  0.00000000000E+00  0.54417280821E+03  0.54417280821E+03  0.00000000000E+00 0. -1.
         -1   -1    0    0    0  501 -0.00000000000E+00 -0.00000000000E+00 -0.36985002558E+02  0.36985002558E+02  0.00000000000E+00 0.  1.
         25    2    1    2    0    0  0.81022796460E+01  0.65934202546E+02  0.40308080604E+03  0.42724074970E+03  0.12509019150E+03 0.  0.
          5    1    3    3  502    0 -0.22137227082E+02  0.99270114239E+00  0.30436552698E+03  0.30519975212E+03  0.41800000000E+01 0.  1.
         -5    1    3    3    0  502  0.30239506728E+02  0.64941501404E+02  0.98715279054E+02  0.12204099758E+03  0.41800000000E+01 0.  1.
        -11    1    1    2    0    0 -0.34660010403E+02 -0.40583705118E+02  0.10434503335E+03  0.11720170402E+03  0.00000000000E+00 0. -1.
         11    1    1    2    0    0  0.26557730757E+02 -0.25350497428E+02 -0.23803373020E+00  0.36715357044E+02  0.00000000000E+00 0.  1.
</event>
<event>
 7    1  0.3056346E-009  0.9214281E+02  0.7561462E-02  0.1297744E+00
          3   -1    0    0  501    0  0.00000000000E+00  0.00000000000E+00  0.25447098015E+03  0.25447098015E+03  0.00000000000E+00 0. -1.
         -3   -1    0    0    0  501 -0.00000000000E+00 -0.00000000000E+00 -0.88251752953E+02  0.88251752953E+02  0.00000000000E+00 0.  1.
         25    2    1    2    0    0  0.42976462971E+02 -0.41524159595E+02  0.18647871473E+03  0.23236383643E+03  0.12508960482E+03 0.  0.
          5    1    3    3  502    0 -0.18547880361E+02 -0.43618983682E+02  0.14640991110E+02  0.49784240720E+02  0.41800000000E+01 0.  1.
         -5    1    3    3    0  502  0.61524343332E+02  0.20948240874E+01  0.17183772362E+03  0.18257959571E+03  0.41800000000E+01 0.  1.
        -11    1    1    2    0    0  0.22462252321E+01  0.27588810019E+02  0.30347010934E+02  0.41074676367E+02  0.00000000000E+00 0. -1.
         11    1    1    2    0    0 -0.45222688203E+02  0.13935349576E+02 -0.50606498468E+02  0.69284220305E+02  0.00000000000E+00 0.  1.
</event>
<event>
 7    1  0.3279333E-009  0.1037880E+03  0.7561462E-02  0.1272526E+00
         -1   -1    0    0    0  501 -0.00000000000E+00  0.00000000000E+00  0.60877538355E+02  0.60877538355E+02  0.00000000000E+00 0.  1.
          1   -1    0    0  501    0  0.00000000000E+00 -0.00000000000E+00 -0.29807120283E+03  0.29807120283E+03  0.00000000000E+00 0. -1.
         25    2    1    2    0    0 -0.52571989739E+02 -0.52506273958E+02 -0.16983141249E+03  0.22362932517E+03  0.12508654404E+03 0.  0.
          5    1    3    3  502    0  0.22767036148E+02 -0.23215616993E+02 -0.12875326385E+03  0.13286149991E+03  0.41800000000E+01 0.  1.
         -5    1    3    3    0  502 -0.75339025887E+02 -0.29290656965E+02 -0.41078148639E+02  0.90767825261E+02  0.41800000000E+01 0.  1.
        -11    1    1    2    0    0  0.35780469828E+01  0.43975089468E+02 -0.72971627953E+02  0.85272911291E+02  0.00000000000E+00 0. -1.
         11    1    1    2    0    0  0.48993942756E+02  0.85311844898E+01  0.56093759699E+01  0.50046504717E+02  0.00000000000E+00 0.  1.
</event>
<event>
 7    1  0.3056346E-009  0.2258851E+03  0.7561462E-02  0.1129570E+00
          1   -1    0    0  501    0  0.00000000000E+00  0.00000000000E+00  0.11106505853E+04  0.11106505853E+04  0.00000000000E+00 0. -1.
         -1   -1    0    0    0  501 -0.00000000000E+00 -0.00000000000E+00 -0.53549315313E+02  0.53549315313E+02  0.00000000000E+00 0.  1.
         25    2    1    2    0    0  0.92341221362E+02  0.19296823555E+03  0.64701647532E+03  0.69285020144E+03  0.12508973262E+03 0.  0.
          5    1    3    3  502    0  0.11348012633E+03  0.15255523139E+03  0.41702240291E+03  0.45834047893E+03  0.41800000000E+01 0. -1.
         -5    1    3    3    0  502 -0.21138904966E+02  0.40413004156E+02  0.22999407241E+03  0.23450972251E+03  0.41800000000E+01 0. -1.
        -11    1    1    2    0    0 -0.32582767163E+02 -0.40166738825E+02  0.36437730576E+02  0.63266988497E+02  0.00000000000E+00 0. -1.
         11    1    1    2    0    0 -0.59758454199E+02 -0.15280149672E+03  0.37364706408E+03  0.40808271066E+03  0.00000000000E+00 0.  1.
</event>
<event>
 7    1  0.3056346E-009  0.1803188E+03  0.7561462E-02  0.1167495E+00
         -3   -1    0    0    0  501 -0.00000000000E+00  0.00000000000E+00  0.47917994871E+02  0.47917994871E+02  0.00000000000E+00 0.  1.
          3   -1    0    0  501    0  0.00000000000E+00 -0.00000000000E+00 -0.89318796603E+03  0.89318796603E+03  0.00000000000E+00 0. -1.
         25    2    1    2    0    0 -0.15253851393E+03 -0.34248524081E+02 -0.62336600070E+03  0.65473020343E+03  0.12508200835E+03 0.  0.
          5    1    3    3  502    0  0.20073542362E+02  0.12276351150E+01 -0.11116668712E+03  0.11304848038E+03  0.41800000000E+01 0.  1.
         -5    1    3    3    0  502 -0.17261205630E+03 -0.35476159196E+02 -0.51219931358E+03  0.54168172305E+03  0.41800000000E+01 0.  1.
        -11    1    1    2    0    0  0.13084350012E+03  0.99029319479E+01 -0.11456623275E+03  0.17419388988E+03  0.00000000000E+00 0.  1.
         11    1    1    2    0    0  0.21695013812E+02  0.24345592133E+02 -0.10733773771E+03  0.11218186759E+03  0.00000000000E+00 0. -1.
</event>
<event>
 7    1  0.3450643E-009  0.1169290E+03  0.7561462E-02  0.1248251E+00
         -1   -1    0    0    0  501 -0.00000000000E+00  0.00000000000E+00  0.37941200526E+02  0.37941200526E+02  0.00000000000E+00 0.  1.
          1   -1    0    0  501    0  0.00000000000E+00 -0.00000000000E+00 -0.54430298189E+03  0.54430298189E+03  0.00000000000E+00 0. -1.
         25    2    1    2    0    0  0.82266475749E+02  0.45654170925E+02 -0.27708627691E+03  0.31823966053E+03  0.12509036863E+03 0.  0.
          5    1    3    3  502    0  0.10069388097E+03  0.46584719696E+02 -0.27794712652E+03  0.29930163935E+03  0.41800000000E+01 0. -1.
         -5    1    3    3    0  502 -0.18427405218E+02 -0.93054877194E+00  0.86084961128E+00  0.18938021178E+02  0.41800000000E+01 0. -1.
        -11    1    1    2    0    0 -0.33786320452E+02  0.45860949646E+01 -0.16701205435E+03  0.17045695648E+03  0.00000000000E+00 0. -1.
         11    1    1    2    0    0 -0.48480155297E+02 -0.50240265889E+02 -0.62263450101E+02  0.93547565403E+02  0.00000000000E+00 0.  1.
</event>
<event>
 7    1  0.3056346E-009  0.1393852E+03  0.7561462E-02  0.1214159E+00
         -2   -1    0    0    0  501 -0.00000000000E+00  0.00000000000E+00  0.16139036677E+03  0.16139036677E+03  0.00000000000E+00 0.  1.
          2   -1    0    0  501    0  0.00000000000E+00 -0.00000000000E+00 -0.12927612926E+03  0.12927612926E+03  0.00000000000E+00 0. -1.
         25    2    1    2    0    0 -0.87226159821E+01  0.91673076306E+02  0.43069104735E+02  0.16119391264E+03  0.12509393566E+03 0.  0.
          5    1    3    3  502    0  0.34966314176E+02  0.10270637835E+03  0.40443780584E+02  0.11586377807E+03  0.41800000000E+01 0.  1.
         -5    1    3    3    0  502 -0.43688930158E+02 -0.11033302049E+02  0.26253241510E+01  0.45330134561E+02  0.41800000000E+01 0.  1.
        -11    1    1    2    0    0  0.43907436958E+02 -0.27655567975E+02 -0.20517015993E+02  0.55800012594E+02  0.00000000000E+00 0.  1.
         11    1    1    2    0    0 -0.35184820976E+02 -0.64017508330E+02  0.95621487678E+01  0.73672570805E+02  0.00000000000E+00 0. -1.
</event>
<event>
 7    1  0.3056346E-009  0.1521931E+03  0.7561462E-02  0.1197804E+00
         -1   -1    0    0    0  501 -0.00000000000E+00  0.00000000000E+00  0.16320344312E+03  0.16320344312E+03  0.00000000000E+00 0.  1.
          1   -1    0    0  501    0  0.00000000000E+00 -0.00000000000E+00 -0.18615263125E+03  0.18615263125E+03  0.00000000000E+00 0. -1.
         25    2    1    2    0    0  0.83470849815E+02  0.95833617000E+02  0.37187313847E+02  0.18215903017E+03  0.12509017165E+03 0.  0.
          5    1    3    3  502    0  0.59280280590E+02  0.12281584007E+03  0.10269575552E+02  0.13682404328E+03  0.41800000000E+01 0.  1.
         -5    1    3    3    0  502  0.24190569226E+02 -0.26982223067E+02  0.26917738294E+02  0.45334986886E+02  0.41800000000E+01 0.  1.
        -11    1    1    2    0    0 -0.46361007659E+02 -0.28033134362E+02 -0.70823966778E+02  0.89169691732E+02  0.00000000000E+00 0. -1.
         11    1    1    2    0    0 -0.37109842156E+02 -0.67800482638E+02  0.10687464801E+02  0.78027352478E+02  0.00000000000E+00 0.  1.
</event>
<event>
 7    1  0.3056346E-009  0.1272181E+03  0.7561462E-02  0.1231643E+00
         -1   -1    0    0    0  501 -0.00000000000E+00  0.00000000000E+00  0.84729079292E+02  0.84729079292E+02  0.00000000000E+00 0.  1.
          1   -1    0    0  501    0  0.00000000000E+00 -0.00000000000E+00 -0.22335400010E+03  0.22335400010E+03  0.00000000000E+00 0. -1.
         25    2    1    2    0    0  0.21546996586E+02  0.73597507888E+02 -0.11026347292E+03  0.18353969582E+03  0.12509164741E+03 0.  0.
          5    1    3    3  502    0 -0.29716619758E+02  0.88183008584E+02 -0.66523307989E+02  0.11446459452E+03  0.41800000000E+01 0. -1.
         -5    1    3    3    0  502  0.51263616344E+02 -0.14585500696E+02 -0.43740164933E+02  0.69075101299E+02  0.41800000000E+01 0. -1.
        -11    1    1    2    0    0  0.27514819818E+02 -0.39255997869E+02  0.15422503897E+02  0.50358239691E+02  0.00000000000E+00 0.  1.
         11    1    1    2    0    0 -0.49061816404E+02 -0.34341510019E+02 -0.43783951783E+02  0.74185143883E+02  0.00000000000E+00 0. -1.
</event>
<event>
 7    1  0.3056346E-009  0.1022184E+03  0.7561462E-02  0.1275699E+00
         -3   -1    0    0    0  501 -0.00000000000E+00  0.00000000000E+00  0.11585522795E+03  0.11585522795E+03  0.00000000000E+00 0. -1.
          3   -1    0    0  501    0  0.00000000000E+00 -0.00000000000E+00 -0.15345093562E+03  0.15345093562E+03  0.00000000000E+00 0.  1.
         25    2    1    2    0    0  0.94940858585E+01  0.47939700334E+02  0.39325273327E+02  0.13993787789E+03  0.12509108685E+03 0.  0.
          5    1    3    3  502    0  0.14016222130E+02  0.88970225630E+02  0.13772187244E+02  0.91210202681E+02  0.41800000000E+01 0. -1.
         -5    1    3    3    0  502 -0.45221362718E+01 -0.41030525296E+02  0.25553086082E+02  0.48727675205E+02  0.41800000000E+01 0. -1.
        -11    1    1    2    0    0  0.12832814454E+02  0.61760826170E+01  0.14811722247E+02  0.20547803757E+02  0.00000000000E+00 0. -1.
         11    1    1    2    0    0 -0.22326900312E+02 -0.54115782951E+02 -0.91732703243E+02  0.10882048192E+03  0.00000000000E+00 0.  1.
</event>
<event>
 7    1  0.3056346E-009  0.1169362E+03  0.7561462E-02  0.1248239E+00
         -2   -1    0    0    0  501 -0.00000000000E+00  0.00000000000E+00  0.15328710446E+02  0.15328710446E+02  0.00000000000E+00 0. -1.
          2   -1    0    0  501    0  0.00000000000E+00 -0.00000000000E+00 -0.10404305483E+04  0.10404305483E+04  0.00000000000E+00 0.  1.
         25    2    1    2    0    0 -0.14250067802E+02 -0.51454030849E+02 -0.72379903950E+03  0.73646471795E+03  0.12507857323E+03 0.  0.
          5    1    3    3  502    0 -0.65584058019E+02 -0.63080051671E+01 -0.40972011875E+03  0.41500494901E+03  0.41800000000E+01 0. -1.
         -5    1    3    3    0  502  0.51333990216E+02 -0.45146025682E+02 -0.31407892075E+03  0.32145976894E+03  0.41800000000E+01 0. -1.
        -11    1    1    2    0    0 -0.12938832752E+02 -0.19486704979E+02 -0.12727214830E+03  0.12940380519E+03  0.00000000000E+00 0.  1.
         11    1    1    2    0    0  0.27188900554E+02  0.70940735828E+02 -0.17403065008E+03  0.18989073563E+03  0.00000000000E+00 0. -1.
</event>
<event>
 7    1  0.3056346E-009  0.1161217E+03  0.7561462E-02  0.1249636E+00
         -3   -1    0    0    0  501 -0.00000000000E+00  0.00000000000E+00  0.33971199592E+03  0.33971199592E+03  0.00000000000E+00 0.  1.
          3   -1    0    0  501    0  0.00000000000E+00 -0.00000000000E+00 -0.68225247899E+02  0.68225247899E+02  0.00000000000E+00 0. -1.
         25    2    1    2    0    0  0.52770424476E+02 -0.19612207284E+02  0.27114261362E+03  0.30386775044E+03  0.12509171221E+03 0.  0.
          5    1    3    3  502    0  0.67452566832E+02  0.37152595549E+02  0.13305779856E+03  0.15379211387E+03  0.41800000000E+01 0. -1.
         -5    1    3    3    0  502 -0.14682142355E+02 -0.56764802833E+02  0.13808481505E+03  0.15007563657E+03  0.41800000000E+01 0. -1.
        -11    1    1    2    0    0  0.15700904830E+02 -0.13107869051E+02  0.16740680529E+02  0.26430759129E+02  0.00000000000E+00 0.  1.
         11    1    1    2    0    0 -0.68471329307E+02  0.32720076335E+02 -0.16396546120E+02  0.77638734257E+02  0.00000000000E+00 0. -1.
</event>
<event>
 7    1  0.3056346E-009  0.1027159E+03  0.7561462E-02  0.1274686E+00
         -4   -1    0    0    0  501 -0.00000000000E+00  0.00000000000E+00  0.13455315318E+03  0.13455315318E+03  0.00000000000E+00 0.  1.
          4   -1    0    0  501    0  0.00000000000E+00 -0.00000000000E+00 -0.13292846512E+03  0.13292846512E+03  0.00000000000E+00 0. -1.
         25    2    1    2    0    0 -0.17749714809E+02  0.65568822766E+01  0.79946822851E+02  0.14965419480E+03  0.12508732333E+03 0.  0.
          5    1    3    3  502    0  0.26248326290E+02 -0.45790764729E+02  0.56033853981E+02  0.77091075744E+02  0.41800000000E+01 0.  1.
         -5    1    3    3    0  502 -0.43998041099E+02  0.52347647006E+02  0.23912968870E+02  0.72563119060E+02  0.41800000000E+01 0.  1.
        -11    1    1    2    0    0  0.13377867034E+01  0.37209776397E+02 -0.52689978437E+02  0.64518144428E+02  0.00000000000E+00 0. -1.
         11    1    1    2    0    0  0.16411928105E+02 -0.43766658674E+02 -0.25632156358E+02  0.53309279072E+02  0.00000000000E+00 0.  1.
</event>
<event>
 7    1  0.3740675E-009  0.1315365E+03  0.7561462E-02  0.1225193E+00
         -1   -1    0    0    0  501 -0.00000000000E+00  0.00000000000E+00  0.23229410957E+02  0.23229410957E+02  0.00000000000E+00 0.  1.
          1   -1    0    0  501    0  0.00000000000E+00 -0.00000000000E+00 -0.85861061152E+03  0.85861061152E+03  0.00000000000E+00 0. -1.
         25    2    1    2    0    0 -0.82716304528E+02 -0.35423621623E+02 -0.47299256573E+03  0.49745908375E+03  0.12508698082E+03 0.  0.
          5    1    3    3  502    0 -0.10205097815E+03 -0.55385286365E+02 -0.43470828251E+03  0.44996743812E+03  0.41800000000E+01 0. -1.
         -5    1    3    3    0  502  0.19334673617E+02  0.19961664742E+02 -0.38284283215E+02  0.47491645628E+02  0.41800000000E+01 0. -1.
        -11    1    1    2    0    0  0.44953524290E+02 -0.22005766300E+02 -0.85344938358E+02  0.98938524347E+02  0.00000000000E+00 0.  1.
         11    1    1    2    0    0  0.37762780237E+02  0.57429387923E+02 -0.27704369648E+03  0.28544241438E+03  0.00000000000E+00 0. -1.
</event>
<event>
 7    1  0.3056346E-009  0.8231388E+02  0.7561462E-02  0.1322610E+00
         -3   -1    0    0    0  501 -0.00000000000E+00  0.00000000000E+00  0.31682105544E+03  0.31682105544E+03  0.00000000000E+00 0.  1.
          3   -1    0    0  501    0  0.00000000000E+00 -0.00000000000E+00 -0.38213988165E+02  0.38213988165E+02  0.00000000000E+00 0. -1.
         25    2    1    2    0    0 -0.70170883597E+01  0.10394883056E+02  0.22109983066E+03  0.25433715522E+03  0.12507981566E+03 0.  0.
          5    1    3    3  502    0 -0.35570702006E+02 -0.19451369981E+02  0.13964996017E+02  0.43082759302E+02  0.41800000000E+01 0. -1.
         -5    1    3    3    0  502  0.28553613646E+02  0.29846253036E+02  0.20713483464E+03  0.21125439592E+03  0.41800000000E+01 0. -1.
        -11    1    1    2    0    0 -0.16306944383E+02 -0.40855874486E+02  0.26379469910E+02  0.51293229065E+02  0.00000000000E+00 0.  1.
         11    1    1    2    0    0  0.23324032743E+02  0.30460991431E+02  0.31127766703E+02  0.49404659317E+02  0.00000000000E+00 0. -1.
</event>
<event>
 7    1  0.3056346E-009  0.1879601E+03  0.7561462E-02  0.1160314E+00
         -2   -1    0    0    0  501 -0.00000000000E+00  0.00000000000E+00  0.41684959218E+02  0.41684959218E+02  0.00000000000E+00 0.  1.
          2   -1    0    0  501    0  0.00000000000E+00 -0.00000000000E+00 -0.10598637913E+04  0.10598637913E+04  0.00000000000E+00 0. -1.
         25    2    1    2    0    0  0.15825366705E+03  0.80691026689E+02 -0.46442772086E+03  0.51273352238E+03  0.12508913678E+03 0.  0.
          5    1    3    3  502    0  0.20371544901E+02  0.43361423196E+02 -0.25306007904E+03  0.25758899213E+03  0.41800000000E+01 0.  1.
         -5    1    3    3    0  502  0.13788212215E+03  0.37329603493E+02 -0.21136764183E+03  0.25514453025E+03  0.41800000000E+01 0.  1.
        -11    1    1    2    0    0 -0.31870541524E+02 -0.42052521436E+02 -0.27883153185E+03  0.28378014224E+03  0.00000000000E+00 0. -1.
         11    1    1    2    0    0 -0.12638312553E+03 -0.38638505254E+02 -0.27491957932E+03  0.30503508585E+03  0.00000000000E+00 0.  1.
</event>
<event>
 7    1  0.3056346E-009  0.1178211E+03  0.7561462E-02  0.1246735E+00
          2   -1    0    0  501    0  0.00000000000E+00  0.00000000000E+00  0.15846830166E+03  0.15846830166E+03  0.00000000000E+00 0.  1.
         -2   -1    0    0    0  501 -0.00000000000E+00 -0.00000000000E+00 -0.11190955064E+03  0.11190955064E+03  0.00000000000E+00 0. -1.
         25    2    1    2    0    0  0.42958063088E+02 -0.14754568189E+02 -0.35511198247E+02  0.13774226693E+03  0.12509514152E+03 0.  0.
          5    1    3    3  502    0  0.81202374777E+02  0.17036036532E+02 -0.24804172936E+02  0.86699317213E+02  0.41800000000E+01 0. -1.
         -5    1    3    3    0  502 -0.38244311690E+02 -0.31790604721E+02 -0.10707025312E+02  0.51042949721E+02  0.41800000000E+01 0. -1.
        -11    1    1    2    0    0 -0.38119818779E+02  0.52347539159E+02  0.62417213894E+02  0.89940502723E+02  0.00000000000E+00 0.  1.
         11    1    1    2    0    0 -0.48382443089E+01 -0.37592970970E+02  0.19652735377E+02  0.42695082646E+02  0.00000000000E+00 0. -1.
</event>
<event>
 7    1  0.3056346E-009  0.9068239E+02  0.7561462E-02  0.1301208E+00
          2   -1    0    0  501    0  0.00000000000E+00  0.00000000000E+00  0.26626171869E+03  0.26626171869E+03  0.00000000000E+00 0. -1.
         -2   -1    0    0    0  501 -0.00000000000E+00 -0.00000000000E+00 -0.45147781269E+02  0.45147781269E+02  0.00000000000E+00 0.  1.
         25    2    1    2    0    0  0.70324820186E+01  0.13417250682E+02  0.11016464976E+03  0.16736796717E+03  0.12508520279E+03 0.  0.
          5    1    3    3  502    0 -0.10066334927E+02  0.55960837144E+02  0.10697161238E+03  0.12121610721E+03  0.41800000000E+01 0.  1.
         -5    1    3    3    0  502  0.17098816946E+02 -0.42543586462E+02  0.31930373883E+01  0.46151859960E+02  0.41800000000E+01 0.  1.
        -11    1    1    2    0    0 -0.11803738329E+02  0.31242100993E+02  0.12196407619E+02  0.35554879719E+02  0.00000000000E+00 0.  1.
         11    1    1    2    0    0  0.47712563105E+01 -0.44659351675E+02  0.98752880035E+02  0.10848665307E+03  0.00000000000E+00 0. -1.
</event>
<event>
 7    1  0.3056346E-009  0.1055156E+03  0.7561462E-02  0.1269107E+00
         -1   -1    0    0    0  501 -0.00000000000E+00  0.00000000000E+00  0.85040330812E+02  0.85040330812E+02  0.00000000000E+00 0.  1.
          1   -1    0    0  501    0  0.00000000000E+00 -0.00000000000E+00 -0.21111266068E+03  0.21111266068E+03  0.00000000000E+00 0. -1.
         25    2    1    2    0    0  0.75815474877E+02  0.12344841800E+02 -0.37252478797E+02  0.15144247967E+03  0.12508675439E+03 0.  0.
          5    1    3    3  502    0  0.64149016895E+02 -0.28314147936E+02 -0.68942106308E+02  0.98423949139E+02  0.41800000000E+01 0. -1.
         -5    1    3    3    0  502  0.11666457982E+02  0.40658989736E+02  0.31689627510E+02  0.53018530534E+02  0.41800000000E+01 0. -1.
        -11    1    1    2    0    0 -0.65764577719E+02  0.16443241341E+02 -0.22012498702E+02  0.71273487129E+02  0.00000000000E+00 0.  1.
         11    1    1    2    0    0 -0.10050897158E+02 -0.28788083142E+02 -0.66807352369E+02  0.73437024689E+02  0.00000000000E+00 0. -1.
</event>
<event>
 7    1  0.3056346E-009  0.1064568E+03  0.7561462E-02  0.1267276E+00
          1   -1    0    0  501    0  0.00000000000E+00  0.00000000000E+00  0.51842647368E+03  0.51842647368E+03  0.00000000000E+00 0. -1.
         -1   -1    0    0    0  501 -0.00000000000E+00 -0.00000000000E+00 -0.34124530547E+02  0.34124530547E+02  0.00000000000E+00 0.  1.
         25    2    1    2    0    0  0.20625591710E+02  0.72993010854E+02  0.30425492126E+03  0.33759724072E+03  0.12508974844E+03 0.  0.
          5    1    3    3  502    0 -0.25905767443E+02 -0.18086479716E+02  0.14366604646E+03  0.14715853642E+03  0.41800000000E+01 0.  1.
         -5    1    3    3    0  502  0.46531359153E+02  0.91079490570E+02  0.16058887480E+03  0.19043870430E+03  0.41800000000E+01 0.  1.
        -11    1    1    2    0    0 -0.19606379743E+02 -0.31028783211E+02  0.76148253703E+01  0.37485745019E+02  0.00000000000E+00 0.  1.
         11    1    1    2    0    0 -0.10192119669E+01 -0.41964227643E+02  0.17243219650E+03  0.17746801848E+03  0.00000000000E+00 0. -1.
</event>
<event>
 7    1  0.3056346E-009  0.1263996E+03  0.7561462E-02  0.1232898E+00
         -2   -1    0    0    0  501 -0.00000000000E+00  0.00000000000E+00  0.13951561691E+02  0.13951561691E+02  0.00000000000E+00 0.  1.
          2   -1    0    0  501    0  0.00000000000E+00 -0.00000000000E+00 -0.23389739599E+04  0.23389739599E+04  0.00000000000E+00 0. -1.
         25    2    1    2    0    0  0.64997565799E+02 -0.75575168735E+02 -0.19087230809E+04  0.19154132814E+04  0.12509176299E+03 0.  0.
          5    1    3    3  502    0  0.20260338809E+02  0.21121365884E+02 -0.10029849417E+04  0.10034205794E+04  0.41800000000E+01 0.  1.
         -5    1    3    3    0  502  0.44737226989E+02 -0.96696534619E+02 -0.90573813921E+03  0.91199270200E+03  0.41800000000E+01 0.  1.
        -11    1    1    2    0    0 -0.12437349405E+02 -0.10149831825E+02 -0.99065371260E+01  0.18863886771E+02  0.00000000000E+00 0. -1.
         11    1    1    2    0    0 -0.52560216394E+02  0.85725000560E+02 -0.40639278018E+03  0.41864835345E+03  0.00000000000E+00 0.  1.
</event>
<event>
 7    1  0.3056346E-009  0.1544364E+03  0.7561462E-02  0.1195125E+00
         -1   -1    0    0    0  501 -0.00000000000E+00  0.00000000000E+00  0.23768206473E+02  0.23768206473E+02  0.00000000000E+00 0.  1.
          1   -1    0    0  501    0  0.00000000000E+00 -0.00000000000E+00 -0.12000654465E+04  0.12000654465E+04  0.00000000000E+00 0. -1.
         25    2    1    2    0    0  0.12364409318E+03  0.14282728972E+01 -0.76224180026E+03  0.78227224319E+03  0.12508956258E+03 0.  0.
          5    1    3    3  502    0  0.12181724829E+03  0.34927145512E+02 -0.42970941325E+03  0.44802566858E+03  0.41800000000E+01 0.  1.
         -5    1    3    3    0  502  0.18268448952E+01 -0.33498872615E+02 -0.33253238701E+03  0.33424657461E+03  0.41800000000E+01 0.  1.
        -11    1    1    2    0    0 -0.31578300901E+02  0.36880214792E+02 -0.86868914541E+02  0.99516569697E+02  0.00000000000E+00 0. -1.
         11    1    1    2    0    0 -0.92065792281E+02 -0.38308487689E+02 -0.32718652524E+03  0.34204484010E+03  0.00000000000E+00 0.  1.
</event>
<event>
 7    1  0.4017524E-009  0.1506257E+03  0.7561462E-02  0.1199706E+00
          1   -1    0    0  501    0  0.00000000000E+00  0.00000000000E+00  0.29573800404E+03  0.29573800404E+03  0.00000000000E+00 0. -1.
         -1   -1    0    0    0  501 -0.00000000000E+00 -0.00000000000E+00 -0.87333735578E+02  0.87333735578E+02  0.00000000000E+00 0.  1.
         25    2    1    2    0    0  0.99565446264E+02  0.63775989879E+02  0.11772369691E+03  0.20853471901E+03  0.12508878944E+03 0.  0.
          5    1    3    3  502    0 -0.21554241282E+02 -0.95555619529E+01 -0.62071790489E+00  0.23953116127E+02  0.41800000000E+01 0. -1.
         -5    1    3    3    0  502  0.12111968755E+03  0.73331551832E+02  0.11834441482E+03  0.18458160289E+03  0.41800000000E+01 0. -1.
        -11    1    1    2    0    0 -0.60871924177E+02  0.21876750050E+00  0.77586905902E+02  0.98616261234E+02  0.00000000000E+00 0. -1.
         11    1    1    2    0    0 -0.38693522087E+02 -0.63994757380E+02  0.13093665650E+02  0.75920759373E+02  0.00000000000E+00 0.  1.
</event>
<event>
 7    1  0.3056346E-009  0.1007649E+03  0.7561462E-02  0.1278696E+00
          2   -1    0    0  501    0  0.00000000000E+00  0.00000000000E+00  0.11621151588E+02  0.11621151588E+02  0.00000000000E+00 0. -1.
         -2   -1    0    0    0  501 -0.00000000000E+00 -0.00000000000E+00 -0.13860318567E+04  0.13860318567E+04  0.00000000000E+00 0.  1.
         25    2    1    2    0    0  0.49779536323E+02  0.52251465025E+01 -0.10016978746E+04  0.10107183001E+04  0.12509015036E+03 0.  0.
          5    1    3    3  502    0 -0.34985823635E+02  0.16077675124E+02 -0.15733862530E+03  0.16203522736E+03  0.41800000000E+01 0. -1.
         -5    1    3    3    0  502  0.84765359958E+02 -0.10852528622E+02 -0.84435924934E+03  0.84868307275E+03  0.41800000000E+01 0. -1.
        -11    1    1    2    0    0 -0.63382431028E+02 -0.29671044853E+01 -0.36625082478E+03  0.37170660866E+03  0.00000000000E+00 0.  1.
         11    1    1    2    0    0  0.13602894705E+02 -0.22580420172E+01 -0.64620057309E+01  0.15228099559E+02  0.00000000000E+00 0. -1.
</event>
<event>
 7    1  0.3056346E-009  0.9559354E+02  0.7561462E-02  0.1289845E+00
         -1   -1    0    0    0  501 -0.00000000000E+00  0.00000000000E+00  0.20308276133E+02  0.20308276133E+02  0.00000000000E+00 0.  1.
          1   -1    0    0  501    0  0.00000000000E+00 -0.00000000000E+00 -0.92679710970E+03  0.92679710970E+03  0.00000000000E+00 0. -1.
         25    2    1    2    0    0 -0.24137605795E+02 -0.76344725339E+02 -0.59340199528E+03  0.61170716911E+03  0.12509433096E+03 0.  0.
          5    1    3    3  502    0 -0.32610976031E+02 -0.51227292087E+02 -0.96584592720E+02  0.11416552528E+03  0.41800000000E+01 0.  1.
         -5    1    3    3    0  502  0.84733702353E+01 -0.25117433252E+02 -0.49681740256E+03  0.49754164383E+03  0.41800000000E+01 0.  1.
        -11    1    1    2    0    0  0.40882509942E+02  0.21610413415E+02 -0.22936656227E+03  0.23398164346E+03  0.00000000000E+00 0.  1.
         11    1    1    2    0    0 -0.16744904147E+02  0.54734311924E+02 -0.83720276016E+02  0.10141657327E+03  0.00000000000E+00 0. -1.
</event>
<event>
 7    1  0.3056346E-009  0.1321099E+03  0.7561462E-02  0.1224358E+00
         -1   -1    0    0    0  501 -0.00000000000E+00  0.00000000000E+00  0.95654394877E+02  0.95654394877E+02  0.00000000000E+00 0.  1.
          1   -1    0    0  501    0  0.00000000000E+00 -0.00000000000E+00 -0.24838530632E+03  0.24838530632E+03  0.00000000000E+00 0. -1.
         25    2    1    2    0    0  0.98985886197E+02 -0.19526104939E+02 -0.29522612598E+02  0.16339536796E+03  0.12508791778E+03 0.  0.
          5    1    3    3  502    0  0.16002913279E+02  0.34868521735E+02 -0.48816439709E+02  0.62228805446E+02  0.41800000000E+01 0. -1.
         -5    1    3    3    0  502  0.82982972917E+02 -0.54394626674E+02  0.19293827111E+02  0.10116656251E+03  0.41800000000E+01 0. -1.
        -11    1    1    2    0    0 -0.45080490478E+02  0.47583710497E+02 -0.90161051598E+02  0.11146961627E+03  0.00000000000E+00 0. -1.
         11    1    1    2    0    0 -0.53905395718E+02 -0.28057605558E+02 -0.33047247244E+02  0.69174716968E+02  0.00000000000E+00 0.  1.
</event>
<event>
 7    1  0.3056346E-009  0.1283419E+03  0.7561462E-02  0.1229937E+00
          2   -1    0    0  501    0  0.00000000000E+00  0.00000000000E+00  0.75999358094E+03  0.75999358094E+03  0.00000000000E+00 0. -1.
         -2   -1    0    0    0  501 -0.00000000000E+00 -0.00000000000E+00 -0.21893777788E+02  0.21893777788E+02  0.00000000000E+00 0.  1.
         25    2    1    2    0    0  0.20893652750E+02  0.85137756040E+02  0.44064230789E+03  0.46636657829E+03  0.12508860706E+03 0.  0.
          5    1    3    3  502    0  0.45890524265E+02 -0.15383052073E+02  0.12351333366E+03  0.13272375259E+03  0.41800000000E+01 0.  1.
         -5    1    3    3    0  502 -0.24996871515E+02  0.10052080811E+03  0.31712897423E+03  0.33364282570E+03  0.41800000000E+01 0.  1.
        -11    1    1    2    0    0 -0.24090267249E+01 -0.85902626081E+02  0.25812951431E+03  0.27205865311E+03  0.00000000000E+00 0. -1.
         11    1    1    2    0    0 -0.18484626025E+02  0.76487004195E+00  0.39327980957E+02  0.43462127325E+02  0.00000000000E+00 0.  1.
</event>
<event>
 7    1  0.3056346E-009  0.1235306E+03  0.7561462E-02  0.1237384E+00
          1   -1    0    0  501    0  0.00000000000E+00  0.00000000000E+00  0.64403374326E+03  0.64403374326E+03  0.00000000000E+00 0. -1.
         -1   -1    0    0    0  501 -0.00000000000E+00 -0.00000000000E+00 -0.26476518817E+02  0.26476518817E+02  0.00000000000E+00 0.  1.
         25    2    1    2    0    0  0.56208722304E+02  0.53596335866E+02  0.32683532062E+03  0.35847030487E+03  0.12509054716E+03 0.  0.
          5    1    3    3  502    0 -0.17110045457E+02 -0.30378360003E+02  0.92352129557E+02  0.98802766387E+02  0.41800000000E+01 0. -1.
         -5    1    3    3    0  502  0.73318767761E+02  0.83974695869E+02  0.23448319106E+03  0.25966753848E+03  0.41800000000E+01 0. -1.
        -11    1    1    2    0    0 -0.15187566441E+02 -0.57226930715E+02  0.94293807486E+02  0.11134139349E+03  0.00000000000E+00 0.  1.
         11    1    1    2    0    0 -0.41021155863E+02  0.36305948484E+01  0.19642809634E+03  0.20069856372E+03  0.00000000000E+00 0. -1.
</event>
<event>
 7    1  0.4957295E-009  0.1391212E+03  0.7561462E-02  0.1214516E+00
          1   -1    0    0  501    0  0.00000000000E+00  0.00000000000E+00  0.33028251281E+03  0.33028251281E+03  0.00000000000E+00 0. -1.
         -1   -1    0    0    0  501 -0.00000000000E+00 -0.00000000000E+00 -0.69504062211E+02  0.69504062211E+02  0.00000000000E+00 0.  1.
         25    2    1    2    0    0  0.20377748750E+02  0.99443088895E+02  0.10303790156E+03  0.19122662288E+03  0.12508649634E+03 0.  0.
          5    1    3    3  502    0 -0.40224561550E+02  0.88487404841E+02  0.77667070101E+02  0.12448968771E+03  0.41800000000E+01 0.  1.
         -5    1    3    3    0  502  0.60602310300E+02  0.10955684054E+02  0.25370831462E+02  0.66736935170E+02  0.41800000000E+01 0.  1.
        -11    1    1    2    0    0  0.19226038464E+02 -0.61283947554E+02  0.13411934071E+03  0.14870561636E+03  0.00000000000E+00 0. -1.
         11    1    1    2    0    0 -0.39603787214E+02 -0.38159141341E+02  0.23621208322E+02  0.59854335785E+02  0.00000000000E+00 0.  1.
</event>
<event>
 7    1  0.3056346E-009  0.9043477E+02  0.7561462E-02  0.1301802E+00
         -1   -1    0    0    0  501 -0.00000000000E+00  0.00000000000E+00  0.23214971257E+02  0.23214971257E+02  0.00000000000E+00 0.  1.
          1   -1    0    0  501    0  0.00000000000E+00 -0.00000000000E+00 -0.67285195914E+03  0.67285195914E+03  0.00000000000E+00 0. -1.
         25    2    1    2    0    0 -0.54261863083E+02 -0.30494978214E+02 -0.34548119269E+03  0.37266478696E+03  0.12508994947E+03 0.  0.
          5    1    3    3  502    0 -0.69435759416E+02 -0.16511943147E+02 -0.34422803125E+03  0.35157414417E+03  0.41800000000E+01 0. -1.
         -5    1    3    3    0  502  0.15173896334E+02 -0.13983035066E+02 -0.12531614377E+01  0.21090642788E+02  0.41800000000E+01 0. -1.
        -11    1    1    2    0    0  0.36095240518E+02 -0.15187061554E+02 -0.23678476074E+03  0.24000111697E+03  0.00000000000E+00 0. -1.
         11    1    1    2    0    0  0.18166622565E+02  0.45682039768E+02 -0.67371034454E+02  0.83401026469E+02  0.00000000000E+00 0.  1.
</event>
<event>
 7    1  0.3056346E-009  0.8546443E+02  0.7561462E-02  0.1314222E+00
         -2   -1    0    0    0  501 -0.00000000000E+00  0.00000000000E+00  0.14452502256E+03  0.14452502256E+03  0.00000000000E+00 0.  1.
          2   -1    0    0  501    0  0.00000000000E+00 -0.00000000000E+00 -0.10090751005E+03  0.10090751005E+03  0.00000000000E+00 0. -1.
         25    2    1    2    0    0 -0.11392544305E+02 -0.43994996037E+02 -0.23826893565E+01  0.13311393674E+03  0.12509313811E+03 0.  0.
          5    1    3    3  502    0  0.11685454159E+02 -0.44145996987E+02  0.54712753174E+02  0.71388911245E+02  0.41800000000E+01 0. -1.
         -5    1    3    3    0  502 -0.23077998464E+02  0.15100094972E+00 -0.57095442531E+02  0.61725025493E+02  0.41800000000E+01 0. -1.
        -11    1    1    2    0    0  0.29181359132E+02 -0.19881455820E+02  0.92228169640E+01  0.36494990877E+02  0.00000000000E+00 0.  1.
         11    1    1    2    0    0 -0.17788814828E+02  0.63876451858E+02  0.36777384903E+02  0.75823605000E+02  0.00000000000E+00 0. -1.
</event>
<event>
 7    1  0.3056346E-009  0.1520747E+03  0.7561462E-02  0.1197947E+00
          2   -1    0    0  501    0  0.00000000000E+00  0.00000000000E+00  0.86274509212E+03  0.86274509212E+03  0.00000000000E+00 0. -1.
         -2   -1    0    0    0  501 -0.00000000000E+00 -0.00000000000E+00 -0.37288580191E+02  0.37288580191E+02  0.00000000000E+00 0.  1.
         25    2    1    2    0    0  0.65909449954E+02  0.87130773756E+02  0.66271021851E+03  0.68320407882E+03  0.12508857774E+03 0.  0.
          5    1    3    3  502    0  0.61778025097E+02 -0.13942861937E+02  0.29920507642E+03  0.30586284171E+03  0.41800000000E+01 0.  1.
         -5    1    3    3    0  502  0.41314248562E+01  0.10107363569E+03  0.36350514209E+03  0.37734123712E+03  0.41800000000E+01 0.  1.
        -11    1    1    2    0    0  0.10459757220E+02  0.10940687680E+02  0.37193176131E+02  0.40155168020E+02  0.00000000000E+00 0.  1.
         11    1    1    2    0    0 -0.76369207174E+02 -0.98071461435E+02  0.12555311729E+03  0.17667442547E+03  0.00000000000E+00 0. -1.
</event>
<event>
 7    1  0.3056346E-009  0.1420462E+03  0.7561462E-02  0.1210602E+00
         -2   -1    0    0    0  501 -0.00000000000E+00  0.00000000000E+00  0.41463399863E+02  0.41463399863E+02  0.00000000000E+00 0.  1.
          2   -1    0    0  501    0  0.00000000000E+00 -0.00000000000E+00 -0.78667232187E+03  0.78667232187E+03  0.00000000000E+00 0. -1.
         25    2    1    2    0    0 -0.10493549170E+03  0.72857124701E+02 -0.54725888903E+03  0.57572060298E+03  0.12506919299E+03 0.  0.
          5    1    3    3  502    0 -0.75353881131E+02  0.52699558985E+02 -0.14433775109E+03  0.17119085755E+03  0.41800000000E+01 0. -1.
         -5    1    3    3    0  502 -0.29581610570E+02  0.20157565716E+02 -0.40292113794E+03  0.40452974543E+03  0.41800000000E+01 0. -1.
        -11    1    1    2    0    0  0.11745061135E+03 -0.45565425181E+02 -0.16819968723E+03  0.21014754070E+03  0.00000000000E+00 0.  1.
         11    1    1    2    0    0 -0.12515119648E+02 -0.27291699520E+02 -0.29750345754E+02  0.42267578059E+02  0.00000000000E+00 0. -1.
</event>
<event>
 7    1  0.3056346E-009  0.7402058E+02  0.7561462E-02  0.1346931E+00
         -2   -1    0    0    0  501 -0.00000000000E+00  0.00000000000E+00  0.68222392371E+02  0.68222392371E+02  0.00000000000E+00 0.  1.
          2   -1    0    0  501    0  0.00000000000E+00 -0.00000000000E+00 -0.18726282446E+03  0.18726282446E+03  0.00000000000E+00 0. -1.
         25    2    1    2    0    0  0.86310607708E+01 -0.69660222504E+01 -0.10191033328E+03  0.16172852752E+03  0.12508948760E+03 0.  0.
          5    1    3    3  502    0  0.31731356966E+01  0.32348148986E+02 -0.11511603148E+03  0.11968978502E+03  0.41800000000E+01 0.  1.
         -5    1    3    3    0  502  0.54579250741E+01 -0.39314171236E+02  0.13205698200E+02  0.42038742501E+02  0.41800000000E+01 0.  1.
        -11    1    1    2    0    0 -0.36536514730E+02 -0.15348149696E+02  0.18110678344E+02  0.43571542063E+02  0.00000000000E+00 0.  1.
         11    1    1    2    0    0  0.27905453959E+02  0.22314171947E+02 -0.35240777149E+02  0.50185147249E+02  0.00000000000E+00 0. -1.
</event>
<event>
 7    1  0.3056346E-009  0.2052984E+03  0.7561462E-02  0.1145344E+00
          3   -1    0    0  501    0  0.00000000000E+00  0.00000000000E+00  0.26238560495E+03  0.26238560495E+03  0.00000000000E+00 0. -1.
         -3   -1    0    0    0  501 -0.00000000000E+00 -0.00000000000E+00 -0.16252243154E+03  0.16252243154E+03  0.00000000000E+00 0.  1.
         25    2    1    2    0    0  0.12707030963E+03  0.12185702274E+03  0.59610319208E+02  0.22404832677E+03  0.12509302535E+03 0.  0.
          5    1    3    3  502    0  0.11912966125E+03  0.31019909000E+02  0.47299925333E+02  0.13194266285E+03  0.41800000000E+01 0. -1.
         -5    1    3    3    0  502  0.79406483830E+01  0.90837113736E+02  0.12310393874E+02  0.92105663919E+02  0.41800000000E+01 0. -1.
        -11    1    1    2    0    0 -0.42608835248E+02 -0.10030039371E+03  0.14303535956E+02  0.10991029506E+03  0.00000000000E+00 0. -1.
         11    1    1    2    0    0 -0.84461474384E+02 -0.21556629024E+02  0.25949318248E+02  0.90949414663E+02  0.00000000000E+00 0.  1.
</event>
<event>
 7    1  0.3056346E-009  0.1136026E+03  0.7561462E-02  0.1254040E+00
         -4   -1    0    0    0  501 -0.00000000000E+00  0.00000000000E+00  0.72679759831E+02  0.72679759831E+02  0.00000000000E+00 0. -1.
          4   -1    0    0  501    0  0.00000000000E+00 -0.00000000000E+00 -0.35173285031E+03  0.35173285031E+03  0.00000000000E+00 0.  1.
         25    2    1    2    0    0 -0.74235764827E+02  0.27041982334E+01 -0.27018711496E+03  0.30686732403E+03  0.12509282954E+03 0.  0.
          5    1    3    3  502    0 -0.92786852833E+02 -0.38081590729E+02 -0.19177872235E+03  0.21646283367E+03  0.41800000000E+01 0.  1.
         -5    1    3    3    0  502  0.18551088006E+02  0.40785788962E+02 -0.78408392609E+02  0.90404490370E+02  0.41800000000E+01 0.  1.
        -11    1    1    2    0    0  0.53428658045E+02 -0.17574510252E+02 -0.45860157001E+02  0.72571612296E+02  0.00000000000E+00 0.  1.
         11    1    1    2    0    0  0.20807106782E+02  0.14870312018E+02  0.36994181485E+02  0.44973673809E+02  0.00000000000E+00 0. -1.
</event>
<event>
 7    1  0.3056346E-009  0.9705645E+02  0.7561462E-02  0.1286610E+00
          2   -1    0    0  501    0  0.00000000000E+00  0.00000000000E+00  0.51746810131E+02  0.51746810131E+02  0.00000000000E+00 0. -1.
         -2   -1    0    0    0  501 -0.00000000000E+00 -0.00000000000E+00 -0.44709786185E+03  0.44709786185E+03  0.00000000000E+00 0.  1.
         25    2    1    2    0    0 -0.70090441180E+02 -0.14607043753E+02 -0.83885917485E+02  0.16676443568E+03  0.12508994437E+03 0.  0.
          5    1    3    3  502    0 -0.13063264606E+02 -0.49399491049E+02  0.92256066139E+01  0.52091677027E+02  0.41800000000E+01 0. -1.
         -5    1    3    3    0  502 -0.57027176573E+02  0.34792447296E+02 -0.93111524099E+02  0.11467275865E+03  0.41800000000E+01 0. -1.
        -11    1    1    2    0    0  0.56008130570E+02  0.54588154200E+00 -0.30649187587E+03  0.31156777537E+03  0.00000000000E+00 0.  1.
         11    1    1    2    0    0  0.14082310610E+02  0.14061162211E+02 -0.49732583698E+01  0.20512460936E+02  0.00000000000E+00 0. -1.
</event>
<event>
 7    1  0.3056346E-009  0.1173359E+03  0.7561462E-02  0.1247558E+00
          2   -1    0    0  501    0  0.00000000000E+00  0.00000000000E+00  0.73282950652E+03  0.73282950652E+03  0.00000000000E+00 0. -1.
         -2   -1    0    0    0  501 -0.00000000000E+00 -0.00000000000E+00 -0.35994748638E+02  0.35994748638E+02  0.00000000000E+00 0.  1.
         25    2    1    2    0    0  0.27779697050E+02  0.10351401554E+03  0.50426029392E+03  0.53048433493E+03  0.12509325563E+03 0.  0.
          5    1    3    3  502    0  0.28392607228E+02  0.36832541468E+02  0.42168885476E+03  0.42426611800E+03  0.41800000000E+01 0. -1.
         -5    1    3    3    0  502 -0.61291017800E+00  0.66681474071E+02  0.82571439159E+02  0.10621821693E+03  0.41800000000E+01 0. -1.
        -11    1    1    2    0    0 -0.43048911280E+02 -0.93413779358E+02  0.98199949618E+02  0.14220609355E+03  0.00000000000E+00 0.  1.
         11    1    1    2    0    0  0.15269214230E+02 -0.10100236181E+02  0.94374514346E+02  0.96133826680E+02  0.00000000000E+00 0. -1.
</event>
<event>
 7    1  0.3056346E-009  0.1234000E+03  0.7561462E-02  0.1237591E+00
          2   -1    0    0  501    0  0.00000000000E+00  0.00000000000E+00  0.26937064915E+03  0.26937064915E+03  0.00000000000E+00 0.  1.
         -2   -1    0    0    0  501 -0.00000000000E+00 -0.00000000000E+00 -0.90759741046E+02  0.90759741046E+02  0.00000000000E+00 0. -1.
         25    2    1    2    0    0  0.98392261505E+02 -0.47560121957E+02  0.69062757928E+02  0.17988909780E+03  0.12508965045E+03 0.  0.
          5    1    3    3  502    0  0.80546472539E+02 -0.59064392312E+02  0.10048058479E+03  0.14173975095E+03  0.41800000000E+01 0.  1.
         -5    1    3    3    0  502  0.17845788966E+02  0.11504270355E+02 -0.31417826866E+02  0.38149346852E+02  0.41800000000E+01 0.  1.
        -11    1    1    2    0    0 -0.70883916127E+02  0.61955443553E+02  0.11510398066E+03  0.14870081679E+03  0.00000000000E+00 0.  1.
         11    1    1    2    0    0 -0.27508345378E+02 -0.14395321596E+02 -0.55558304790E+01  0.31540475609E+02  0.00000000000E+00 0. -1.
</event>
<event>
 6    1  0.3056346E-009  0.1236579E+03  0.7561462E-02  0.1237182E+00
         -2   -1    0    0    0  501 -0.00000000000E+00  0.00000000000E+00  0.19076790540E+02  0.19076790540E+02  0.00000000000E+00 0.  1.
          2   -1    0    0  501    0  0.00000000000E+00 -0.00000000000E+00 -0.81827254418E+03  0.81827254418E+03  0.00000000000E+00 0. -1.
          5    1    1    2  502    0 -0.35129920853E+02  0.61678890376E+02 -0.27819586962E+03  0.28713901011E+03  0.41800000000E+01 0.  1.
         -5    1    1    2    0  502  0.66974860635E+02 -0.54117057073E+01 -0.17945890950E+03  0.19167131010E+03  0.41800000000E+01 0.  1.
        -11    1    1    2    0    0 -0.34607532547E+02  0.14891820402E+02 -0.10806905992E+03  0.11444810761E+03  0.00000000000E+00 0.  1.
         11    1    1    2    0    0  0.27625927649E+01 -0.71159005071E+02 -0.23347191461E+03  0.24409090690E+03  0.00000000000E+00 0. -1.
</event>
<event>
 7    1  0.3056346E-009  0.2282338E+03  0.7561462E-02  0.1127889E+00
          2   -1    0    0  501    0  0.00000000000E+00  0.00000000000E+00  0.50337913135E+03  0.50337913135E+03  0.00000000000E+00 0. -1.
         -2   -1    0    0    0  501 -0.00000000000E+00 -0.00000000000E+00 -0.16247968761E+03  0.16247968761E+03  0.00000000000E+00 0.  1.
         25    2    1    2    0    0  0.18348586871E+03 -0.10283640175E+03  0.36305772638E+03  0.43783656550E+03  0.12509019090E+03 0.  0.
          5    1    3    3  502    0  0.17847281673E+03 -0.62287138120E+02  0.22550208124E+03  0.29428029994E+03  0.41800000000E+01 0. -1.
         -5    1    3    3    0  502  0.50130519773E+01 -0.40549263634E+02  0.13755564514E+03  0.14355626556E+03  0.41800000000E+01 0. -1.
        -11    1    1    2    0    0 -0.46312104454E+02  0.72184451143E+02 -0.16602014776E+02  0.87355783440E+02  0.00000000000E+00 0.  1.
         11    1    1    2    0    0 -0.13717376425E+03  0.30651950611E+02 -0.55562678682E+01  0.14066647002E+03  0.00000000000E+00 0. -1.
</event>
<event>
 7    1  0.3056346E-009  0.1418573E+03  0.7561462E-02  0.1210851E+00
         -3   -1    0    0    0  501 -0.00000000000E+00  0.00000000000E+00  0.14924181707E+03  0.14924181707E+03  0.00000000000E+00 0.  1.
          3   -1    0    0  501    0  0.00000000000E+00 -0.00000000000E+00 -0.16069919036E+03  0.16069919036E+03  0.00000000000E+00 0. -1.
         25    2    1    2    0    0  0.25289415091E+02  0.93188253240E+02  0.45536989168E+02  0.16445096601E+03  0.12508756046E+03 0.  0.
          5    1    3    3  502    0 -0.45768737529E+02  0.65697904776E+02  0.11880821294E+02  0.81053182180E+02  0.41800000000E+01 0. -1.
         -5    1    3    3    0  502  0.71058152620E+02  0.27490348464E+02  0.33656167874E+02  0.83397783834E+02  0.41800000000E+01 0. -1.
        -11    1    1    2    0    0  0.17808237642E+02  0.62361502166E+01  0.64253249050E+01  0.19932578799E+02  0.00000000000E+00 0.  1.
         11    1    1    2    0    0 -0.43097652733E+02 -0.99424403456E+02 -0.63419687368E+02  0.12555746262E+03  0.00000000000E+00 0. -1.
</event>
<event>
 7    1  0.3056346E-009  0.1278759E+03  0.7561462E-02  0.1230642E+00
         -1   -1    0    0    0  501 -0.00000000000E+00  0.00000000000E+00  0.56588598872E+02  0.56588598872E+02  0.00000000000E+00 0.  1.
          1   -1    0    0  501    0  0.00000000000E+00 -0.00000000000E+00 -0.30656572459E+03  0.30656572459E+03  0.00000000000E+00 0. -1.
         25    2    1    2    0    0 -0.31676686199E+02 -0.68278246164E+02 -0.15722317720E+03  0.21455113600E+03  0.12509089160E+03 0.  0.
          5    1    3    3  502    0  0.26422999395E+01  0.33050982747E+02 -0.65649609535E+02  0.73666090175E+02  0.41800000000E+01 0. -1.
         -5    1    3    3    0  502 -0.34318986139E+02 -0.10132922891E+03 -0.91573567666E+02  0.14088504582E+03  0.41800000000E+01 0. -1.
        -11    1    1    2    0    0  0.28793874117E+02 -0.14638440877E+02 -0.34281149602E+02  0.47101681032E+02  0.00000000000E+00 0.  1.
         11    1    1    2    0    0  0.28828120819E+01  0.82916687040E+02 -0.58472798912E+02  0.10150150643E+03  0.00000000000E+00 0. -1.
</event>
<event>
 7    1  0.3056346E-009  0.1216206E+03  0.7561462E-02  0.1240447E+00
         -2   -1    0    0    0  501 -0.00000000000E+00  0.00000000000E+00  0.34136552722E+02  0.34136552722E+02  0.00000000000E+00 0.  1.
          2   -1    0    0  501    0  0.00000000000E+00 -0.00000000000E+00 -0.65987431424E+03  0.65987431424E+03  0.00000000000E+00 0. -1.
         25    2    1    2    0    0  0.81108840945E+02  0.23345914271E+02 -0.47889279939E+03  0.50210575414E+03  0.12509276254E+03 0.  0.
          5    1    3    3  502    0 -0.11598143640E+02 -0.24077409248E+02 -0.26512872564E+02  0.37876686545E+02  0.41800000000E+01 0. -1.
         -5    1    3    3    0  502  0.92706984585E+02  0.47423323520E+02 -0.45237992683E+03  0.46422906760E+03  0.41800000000E+01 0. -1.
        -11    1    1    2    0    0 -0.45289713811E+02  0.25057363753E+02 -0.28415236106E+02  0.59046213242E+02  0.00000000000E+00 0.  1.
         11    1    1    2    0    0 -0.35819127134E+02 -0.48403278025E+02 -0.11842972602E+03  0.13285889958E+03  0.00000000000E+00 0. -1.
</event>
<event>
 7    1  0.3056346E-009  0.1732770E+03  0.7561462E-02  0.1174473E+00
          2   -1    0    0  501    0  0.00000000000E+00  0.00000000000E+00  0.18319468858E+04  0.18319468858E+04  0.00000000000E+00 0.  1.
         -2   -1    0    0    0  501 -0.00000000000E+00 -0.00000000000E+00 -0.21349472553E+02  0.21349472553E+02  0.00000000000E+00 0. -1.
         25    2    1    2    0    0 -0.95132152158E+02 -0.12040657231E+03  0.11863512808E+04  0.12027572129E+04  0.12509069736E+03 0.  0.
          5    1    3    3  502    0  0.12804271916E+02 -0.74536959948E+02  0.60133573691E+03  0.60608732758E+03  0.41800000000E+01 0. -1.
         -5    1    3    3    0  502 -0.10793642407E+03 -0.45869612363E+02  0.58501554391E+03  0.59666988528E+03  0.41800000000E+01 0. -1.
        -11    1    1    2    0    0  0.53116531394E+02  0.66403508069E+02  0.51252006577E+03  0.51952633197E+03  0.00000000000E+00 0. -1.
         11    1    1    2    0    0  0.42015620763E+02  0.54003064242E+02  0.11172606665E+03  0.13101281351E+03  0.00000000000E+00 0.  1.
</event>
<event>
 7    1  0.3056346E-009  0.1779001E+03  0.7561462E-02  0.1169851E+00
         -2   -1    0    0    0  501 -0.00000000000E+00  0.00000000000E+00  0.10863341033E+03  0.10863341033E+03  0.00000000000E+00 0.  1.
          2   -1    0    0  501    0  0.00000000000E+00 -0.00000000000E+00 -0.38554687083E+03  0.38554687083E+03  0.00000000000E+00 0. -1.
         25    2    1    2    0    0 -0.12678636375E+03 -0.10573395064E+03 -0.21376880376E+03  0.29766326226E+03  0.12510741741E+03 0.  0.
          5    1    3    3  502    0 -0.49674737999E+02  0.99907881082E+01 -0.11432569643E+02  0.52111145554E+02  0.41800000000E+01 0.  1.
         -5    1    3    3    0  502 -0.77111625752E+02 -0.11572473875E+03 -0.20233623411E+03  0.24555211671E+03  0.41800000000E+01 0.  1.
        -11    1    1    2    0    0  0.18318051989E+02  0.23059300472E+02  0.21085434391E+02  0.36219855195E+02  0.00000000000E+00 0.  1.
         11    1    1    2    0    0  0.10846831176E+03  0.82674650167E+02 -0.84230091138E+02  0.16029716370E+03  0.00000000000E+00 0. -1.
</event>
<event>
 7    1  0.3056346E-009  0.1649137E+03  0.7561462E-02  0.1183258E+00
          2   -1    0    0  501    0  0.00000000000E+00  0.00000000000E+00  0.20830965736E+03  0.20830965736E+03  0.00000000000E+00 0. -1.
         -2   -1    0    0    0  501 -0.00000000000E+00 -0.00000000000E+00 -0.16706752903E+03  0.16706752903E+03  0.00000000000E+00 0.  1.
         25    2    1    2    0    0 -0.92079848225E+02 -0.11537842965E+03  0.59344645826E+02  0.20238496393E+03  0.12508799367E+03 0.  0.
          5    1    3    3  502    0 -0.76568382805E+02 -0.12141811890E+03  0.88404508431E+02  0.16863542437E+03  0.41800000000E+01 0.  1.
         -5    1    3    3    0  502 -0.15511465421E+02  0.60396892542E+01 -0.29059862606E+02  0.33749539559E+02  0.41800000000E+01 0.  1.
        -11    1    1    2    0    0  0.52626047149E+02  0.11832034025E+03 -0.27372677572E+02  0.13235734673E+03  0.00000000000E+00 0. -1.
         11    1    1    2    0    0  0.39453801076E+02 -0.29419106097E+01  0.92701600697E+01  0.40634875724E+02  0.00000000000E+00 0.  1.
</event>
<event>
 7    1  0.3056346E-009  0.1284259E+03  0.7561462E-02  0.1229810E+00
         -2   -1    0    0    0  501 -0.00000000000E+00  0.00000000000E+00  0.34537280037E+02  0.34537280037E+02  0.00000000000E+00 0.  1.
          2   -1    0    0  501    0  0.00000000000E+00 -0.00000000000E+00 -0.93565924790E+03  0.93565924790E+03  0.00000000000E+00 0. -1.
         25    2    1    2    0    0  0.93231821629E+02 -0.14921946200E+02 -0.76441856550E+03  0.78031735248E+03  0.12507833644E+03 0.  0.
          5    1    3    3  502    0 -0.27778152976E+02 -0.11655618506E+02 -0.24936158594E+03  0.25120937914E+03  0.41800000000E+01 0.  1.
         -5    1    3    3    0  502  0.12100997461E+03 -0.32663276938E+01 -0.51505697956E+03  0.52910797333E+03  0.41800000000E+01 0.  1.
        -11    1    1    2    0    0 -0.88549327572E+02  0.26823585764E+02 -0.14684097106E+03  0.17355909354E+03  0.00000000000E+00 0. -1.
         11    1    1    2    0    0 -0.46824940571E+01 -0.11901639564E+02  0.10137568701E+02  0.16320081925E+02  0.00000000000E+00 0.  1.
</event>
<event>
 7    1  0.3267244E-009  0.1960242E+03  0.7561462E-02  0.1153137E+00
          2   -1    0    0  501    0  0.00000000000E+00  0.00000000000E+00  0.12099288005E+04  0.12099288005E+04  0.00000000000E+00 0. -1.
         -2   -1    0    0    0  501 -0.00000000000E+00 -0.00000000000E+00 -0.41142702642E+02  0.41142702642E+02  0.00000000000E+00 0.  1.
         25    2    1    2    0    0 -0.12085818336E+03 -0.15207253939E+03  0.58753144142E+03  0.63132717411E+03  0.12509215955E+03 0.  0.
          5    1    3    3  502    0 -0.68270548065E+02 -0.82617511381E+02  0.48499897005E+03  0.49671721761E+03  0.41800000000E+01 0.  1.
         -5    1    3    3    0  502 -0.52587635294E+02 -0.69455028012E+02  0.10253247137E+03  0.13460995650E+03  0.41800000000E+01 0.  1.
        -11    1    1    2    0    0  0.45997615367E+02  0.86882595603E+02  0.16722331939E+03  0.19397939217E+03  0.00000000000E+00 0.  1.
         11    1    1    2    0    0  0.74860567992E+02  0.65189943790E+02  0.41403133702E+03  0.42576493684E+03  0.00000000000E+00 0. -1.
</event>
<event>
 7    1  0.3056346E-009  0.8118543E+02  0.7561462E-02  0.1325721E+00
          1   -1    0    0  501    0  0.00000000000E+00  0.00000000000E+00  0.39488348933E+03  0.39488348933E+03  0.00000000000E+00 0. -1.
         -1   -1    0    0    0  501 -0.00000000000E+00 -0.00000000000E+00 -0.34453822955E+02  0.34453822955E+02  0.00000000000E+00 0.  1.
         25    2    1    2    0    0 -0.37145275720E+02  0.22121653873E+02  0.16665403190E+03  0.21281440668E+03  0.12508903335E+03 0.  0.
          5    1    3    3  502    0  0.89443359482E+01 -0.60604103765E+01 -0.17426033486E+02  0.20925313918E+02  0.41800000000E+01 0. -1.
         -5    1    3    3    0  502 -0.46089611668E+02  0.28182064249E+02  0.18408006539E+03  0.19188909276E+03  0.41800000000E+01 0. -1.
        -11    1    1    2    0    0 -0.26856036732E+02  0.45982122043E+01  0.53532016907E+02  0.60067188202E+02  0.00000000000E+00 0. -1.
         11    1    1    2    0    0  0.64001312452E+02 -0.26719866077E+02  0.14024361757E+03  0.15645571740E+03  0.00000000000E+00 0.  1.
</event>
<event>
 7    1  0.3056346E-009  0.1114964E+03  0.7561462E-02  0.1257824E+00
          2   -1    0    0  501    0  0.00000000000E+00  0.00000000000E+00  0.13477666857E+03  0.13477666857E+03  0.00000000000E+00 0. -1.
         -2   -1    0    0    0  501 -0.00000000000E+00 -0.00000000000E+00 -0.12703280282E+03  0.12703280282E+03  0.00000000000E+00 0.  1.
         25    2    1    2    0    0 -0.52392089425E+02 -0.24008604070E+02 -0.31666322347E+02  0.14132630908E+03  0.12509606534E+03 0.  0.
          5    1    3    3  502    0 -0.59682075254E+01  0.49614520127E+02 -0.61069699536E+01  0.50517200937E+02  0.41800000000E+01 0. -1.
         -5    1    3    3    0  502 -0.46423881900E+02 -0.73623124197E+02 -0.25559352393E+02  0.90809108144E+02  0.41800000000E+01 0. -1.
        -11    1    1    2    0    0  0.23902417336E+02 -0.21413083838E+02 -0.22039399595E+02  0.38930461704E+02  0.00000000000E+00 0.  1.
         11    1    1    2    0    0  0.28489672089E+02  0.45421687909E+02  0.61449587691E+02  0.81552700603E+02  0.00000000000E+00 0. -1.
</event>
<event>
 7    1  0.3056346E-009  0.2150220E+03  0.7561462E-02  0.1137650E+00
         -1   -1    0    0    0  501 -0.00000000000E+00  0.00000000000E+00  0.36648232301E+03  0.36648232301E+03  0.00000000000E+00 0.  1.
          1   -1    0    0  501    0  0.00000000000E+00 -0.00000000000E+00 -0.14921850935E+03  0.14921850935E+03  0.00000000000E+00 0. -1.
         25    2    1    2    0    0 -0.12319478049E+03  0.15422453159E+03  0.18172065586E+03  0.29602726784E+03  0.12509031320E+03 0.  0.
          5    1    3    3  502    0 -0.33982884963E+02 -0.17850131987E+02  0.42018906409E+02  0.57065966900E+02  0.41800000000E+01 0.  1.
         -5    1    3    3    0  502 -0.89211895528E+02  0.17207466357E+03  0.13970174945E+03  0.23896130094E+03  0.41800000000E+01 0.  1.
        -11    1    1    2    0    0  0.21329051872E+02 -0.21927659740E+02  0.42727290159E+02  0.52548758689E+02  0.00000000000E+00 0.  1.
         11    1    1    2    0    0  0.10186572862E+03 -0.13229687185E+03 -0.71841323636E+01  0.16712480583E+03  0.00000000000E+00 0. -1.
</event>
<event>
 7    1  0.3056346E-009  0.1790447E+03  0.7561462E-02  0.1168731E+00
         -2   -1    0    0    0  501 -0.00000000000E+00  0.00000000000E+00  0.63728479084E+02  0.63728479084E+02  0.00000000000E+00 0.  1.
          2   -1    0    0  501    0  0.00000000000E+00 -0.00000000000E+00 -0.64837998031E+03  0.64837998031E+03  0.00000000000E+00 0. -1.
         25    2    1    2    0    0 -0.67407715112E+02 -0.13214382072E+03 -0.14848168458E+03  0.24433717136E+03  0.12509217897E+03 0.  0.
          5    1    3    3  502    0 -0.81152534091E+02 -0.26277408234E+02 -0.82644271321E+02  0.11884352719E+03  0.41800000000E+01 0. -1.
         -5    1    3    3    0  502  0.13744818979E+02 -0.10586641248E+03 -0.65837413261E+02  0.12549364417E+03  0.41800000000E+01 0. -1.
        -11    1    1    2    0    0  0.77966912873E+02  0.76559959599E+02 -0.24199916560E+03  0.26552563543E+03  0.00000000000E+00 0.  1.
         11    1    1    2    0    0 -0.10559197761E+02  0.55583861120E+02 -0.19417065105E+03  0.20224565262E+03  0.00000000000E+00 0. -1.
</event>
<event>
 7    1  0.3056346E-009  0.6257399E+02  0.7561462E-02  0.1387337E+00
          1   -1    0    0  501    0  0.00000000000E+00  0.00000000000E+00  0.16371719093E+03  0.16371719093E+03  0.00000000000E+00 0. -1.
         -1   -1    0    0    0  501 -0.00000000000E+00 -0.00000000000E+00 -0.81946579764E+02  0.81946579764E+02  0.00000000000E+00 0.  1.
         25    2    1    2    0    0  0.71284435221E+01 -0.40881346333E+02  0.82086859088E+02  0.15526294062E+03  0.12508488761E+03 0.  0.
          5    1    3    3  502    0 -0.12631796557E+01  0.14575906776E+02  0.96101868293E+02  0.97298993677E+02  0.41800000000E+01 0.  1.
         -5    1    3    3    0  502  0.83916231778E+01 -0.55457253109E+02 -0.14015009205E+02  0.57963946941E+02  0.41800000000E+01 0.  1.
        -11    1    1    2    0    0  0.13133985055E+02  0.90333399606E+01  0.35156406402E+02  0.38601498745E+02  0.00000000000E+00 0. -1.
         11    1    1    2    0    0 -0.20262428577E+02  0.31848006372E+02 -0.35472654323E+02  0.51799331332E+02  0.00000000000E+00 0.  1.
</event>
<event>
 7    1  0.3056346E-009  0.5937752E+02  0.7561462E-02  0.1400463E+00
          1   -1    0    0  501    0  0.00000000000E+00  0.00000000000E+00  0.49684235269E+03  0.49684235269E+03  0.00000000000E+00 0. -1.
         -1   -1    0    0    0  501 -0.00000000000E+00 -0.00000000000E+00 -0.24643974984E+02  0.24643974984E+02  0.00000000000E+00 0.  1.
         25    2    1    2    0    0  0.74369749206E+01  0.21676285945E+02  0.26449552331E+03  0.29347959177E+03  0.12508884429E+03 0.  0.
          5    1    3    3  502    0  0.65630343831E+01  0.14919811469E+02  0.27761099604E+03  0.27812049855E+03  0.41800000000E+01 0.  1.
         -5    1    3    3    0  502  0.87394053751E+00  0.67564744763E+01 -0.13115472730E+02  0.15359093214E+02  0.41800000000E+01 0.  1.
        -11    1    1    2    0    0 -0.39073636075E+02  0.18141043496E+02  0.10104114159E+03  0.10984151669E+03  0.00000000000E+00 0. -1.
         11    1    1    2    0    0  0.31636661154E+02 -0.39817329442E+02  0.10666171280E+03  0.11816521921E+03  0.00000000000E+00 0.  1.
</event>
<event>
 7    1  0.3056346E-009  0.5396332E+02  0.7561462E-02  0.1425066E+00
         -1   -1    0    0    0  501 -0.00000000000E+00  0.00000000000E+00  0.43849295731E+03  0.43849295731E+03  0.00000000000E+00 0.  1.
          1   -1    0    0  501    0  0.00000000000E+00 -0.00000000000E+00 -0.28059462091E+02  0.28059462091E+02  0.00000000000E+00 0. -1.
         25    2    1    2    0    0  0.17812650223E+01 -0.87421439395E+01  0.27012400625E+03  0.29781515922E+03  0.12508913753E+03 0.  0.
          5    1    3    3  502    0 -0.56929956311E+01  0.28889615066E+01 -0.12595637329E+02  0.14726804731E+02  0.41800000000E+01 0.  1.
         -5    1    3    3    0  502  0.74742606533E+01 -0.11631105446E+02  0.28271964358E+03  0.28308835449E+03  0.41800000000E+01 0.  1.
        -11    1    1    2    0    0 -0.20809714429E+02 -0.33548171124E+02  0.99193528353E+02  0.10676085456E+03  0.00000000000E+00 0.  1.
         11    1    1    2    0    0  0.19028449407E+02  0.42290315063E+02  0.41115960622E+02  0.61976405614E+02  0.00000000000E+00 0. -1.
</event>
<event>
 7    1  0.3056346E-009  0.1649544E+03  0.7561462E-02  0.1183214E+00
          1   -1    0    0  501    0  0.00000000000E+00  0.00000000000E+00  0.11013990720E+04  0.11013990720E+04  0.00000000000E+00 0. -1.
         -1   -1    0    0    0  501 -0.00000000000E+00 -0.00000000000E+00 -0.32133783644E+02  0.32133783644E+02  0.00000000000E+00 0.  1.
         25    2    1    2    0    0  0.90961395108E+02 -0.10978652961E+03  0.73117474494E+03  0.75537483013E+03  0.12509024295E+03 0.  0.
          5    1    3    3  502    0 -0.90868050126E+01 -0.68687157439E+02  0.16599031981E+03  0.17991874358E+03  0.41800000000E+01 0.  1.
         -5    1    3    3    0  502  0.10004820012E+03 -0.41099372175E+02  0.56518442513E+03  0.57545608655E+03  0.41800000000E+01 0.  1.
        -11    1    1    2    0    0 -0.98150460543E+02  0.10008114113E+03  0.33817839874E+03  0.36607974144E+03  0.00000000000E+00 0. -1.
         11    1    1    2    0    0  0.71890654345E+01  0.97053884818E+01 -0.87855331236E-01  0.12078284065E+02  0.00000000000E+00 0.  1.
</event>
<event>
 7    1  0.3056346E-009  0.9657284E+02  0.7561462E-02  0.1287672E+00
          1   -1    0    0  501    0  0.00000000000E+00  0.00000000000E+00  0.11806442368E+04  0.11806442368E+04  0.00000000000E+00 0.  1.
         -1   -1    0    0    0  501 -0.00000000000E+00 -0.00000000000E+00 -0.23455787397E+02  0.23455787397E+02  0.00000000000E+00 0. -1.
         25    2    1    2    0    0  0.31854889439E+02  0.71324966238E+02  0.97504145914E+03  0.98613156545E+03  0.12509049742E+03 0.  0.
          5    1    3    3  502    0  0.31409863083E+02  0.67381307288E+02  0.24494590240E+03  0.25601325664E+03  0.41800000000E+01 0. -1.
         -5    1    3    3    0  502  0.44502635524E+00  0.39436589496E+01  0.73009555674E+03  0.73011830882E+03  0.41800000000E+01 0. -1.
        -11    1    1    2    0    0  0.19396540178E+02  0.58673222809E+01  0.10296699540E+02  0.22730447928E+02  0.00000000000E+00 0. -1.
         11    1    1    2    0    0 -0.51251429616E+02 -0.77192288519E+02  0.17185029067E+03  0.19523801077E+03  0.00000000000E+00 0.  1.
</event>
<event>
 7    1  0.3056346E-009  0.1250371E+03  0.7561462E-02  0.1235011E+00
          2   -1    0    0  501    0  0.00000000000E+00  0.00000000000E+00  0.61866867115E+02  0.61866867115E+02  0.00000000000E+00 0. -1.
         -2   -1    0    0    0  501 -0.00000000000E+00 -0.00000000000E+00 -0.33059876348E+03  0.33059876348E+03  0.00000000000E+00 0.  1.
         25    2    1    2    0    0  0.28848163153E+02  0.87708244342E+02 -0.13236104190E+03  0.20418795802E+03  0.12509326178E+03 0.  0.
          5    1    3    3  502    0  0.64753929599E+02  0.68198721952E+02 -0.13319468407E+03  0.16310252401E+03  0.41800000000E+01 0.  1.
         -5    1    3    3    0  502 -0.35905766446E+02  0.19509522390E+02  0.83364216930E+00  0.41085434003E+02  0.41800000000E+01 0.  1.
        -11    1    1    2    0    0  0.16856495731E+02 -0.10504445818E+01 -0.64755637398E+02  0.66921875773E+02  0.00000000000E+00 0.  1.
         11    1    1    2    0    0 -0.45704658884E+02 -0.86657799760E+02 -0.71615217064E+02  0.12135579681E+03  0.00000000000E+00 0. -1.
</event>
<event>
 7    1  0.3056346E-009  0.1155059E+03  0.7561462E-02  0.1250701E+00
         -1   -1    0    0    0  501 -0.00000000000E+00  0.00000000000E+00  0.77899061194E+02  0.77899061194E+02  0.00000000000E+00 0.  1.
          1   -1    0    0  501    0  0.00000000000E+00 -0.00000000000E+00 -0.23374811054E+03  0.23374811054E+03  0.00000000000E+00 0. -1.
         25    2    1    2    0    0  0.26215026859E+02 -0.46964536718E+02 -0.15859381198E+02  0.13710027793E+03  0.12510823672E+03 0.  0.
          5    1    3    3  502    0 -0.20683749444E+02  0.34350507166E+02 -0.15343680024E+02  0.43135550887E+02  0.41800000000E+01 0.  1.
         -5    1    3    3    0  502  0.46898776303E+02 -0.81315043883E+02 -0.51570117397E+00  0.93964727043E+02  0.41800000000E+01 0.  1.
        -11    1    1    2    0    0 -0.55378797078E+02  0.29619684909E+02 -0.56701718767E+02  0.84612184767E+02  0.00000000000E+00 0.  1.
         11    1    1    2    0    0  0.29163770219E+02  0.17344851808E+02 -0.83287949384E+02  0.89934709040E+02  0.00000000000E+00 0. -1.
</event>
<event>
 7    1  0.3056346E-009  0.1001966E+03  0.7561462E-02  0.1279883E+00
          1   -1    0    0  501    0  0.00000000000E+00  0.00000000000E+00  0.41730921329E+03  0.41730921329E+03  0.00000000000E+00 0. -1.
         -1   -1    0    0    0  501 -0.00000000000E+00 -0.00000000000E+00 -0.31503186322E+02  0.31503186322E+02  0.00000000000E+00 0.  1.
         25    2    1    2    0    0  0.37181046882E+02  0.20733640111E+00  0.20508564405E+03  0.24308401184E+03  0.12508893710E+03 0.  0.
          5    1    3    3  502    0 -0.23855235518E+02 -0.26223821149E+02  0.10210303927E+02  0.37127937777E+02  0.41800000000E+01 0. -1.
         -5    1    3    3    0  502  0.61036282400E+02  0.26431157551E+02  0.19487534012E+03  0.20595607407E+03  0.41800000000E+01 0. -1.
        -11    1    1    2    0    0 -0.34583544282E+02  0.42766431811E+02  0.93962339578E+02  0.10887566525E+03  0.00000000000E+00 0.  1.
         11    1    1    2    0    0 -0.25975026005E+01 -0.42973768212E+02  0.86758043345E+02  0.96852722518E+02  0.00000000000E+00 0. -1.
</event>
<event>
 7    1  0.3056346E-009  0.3463876E+03  0.7561462E-02  0.1064108E+00
          1   -1    0    0  501    0  0.00000000000E+00  0.00000000000E+00  0.10715754507E+04  0.10715754507E+04  0.00000000000E+00 0. -1.
         -1   -1    0    0    0  501 -0.00000000000E+00 -0.00000000000E+00 -0.13305186263E+03  0.13305186263E+03  0.00000000000E+00 0.  1.
         25    2    1    2    0    0 -0.10253052552E+03  0.32304035832E+03  0.67500849315E+03  0.76560551040E+03  0.12509096675E+03 0.  0.
          5    1    3    3  502    0 -0.12257589436E+03  0.27163596393E+03  0.50033557219E+03  0.58237797346E+03  0.41800000000E+01 0.  1.
         -5    1    3    3    0  502  0.20045368841E+02  0.51404394395E+02  0.17467292096E+03  0.18322753693E+03  0.41800000000E+01 0.  1.
        -11    1    1    2    0    0  0.40247565914E+02 -0.15660973828E+03  0.69726840296E+02  0.17609176285E+03  0.00000000000E+00 0. -1.
         11    1    1    2    0    0  0.62282959603E+02 -0.16643062005E+03  0.19378825459E+03  0.26293004006E+03  0.00000000000E+00 0.  1.
</event>
<event>
 7    1  0.3056346E-009  0.9513199E+02  0.7561462E-02  0.1290879E+00
          2   -1    0    0  501    0  0.00000000000E+00  0.00000000000E+00  0.51183884229E+03  0.51183884229E+03  0.00000000000E+00 0. -1.
         -2   -1    0    0    0  501 -0.00000000000E+00 -0.00000000000E+00 -0.30710758737E+02  0.30710758737E+02  0.00000000000E+00 0.  1.
         25    2    1    2    0    0  0.39934840413E+02 -0.36931723387E+02  0.33999466436E+03  0.36633462469E+03  0.12508373907E+03 0.  0.
          5    1    3    3  502    0 -0.26206411694E+01  0.39743096029E+02  0.54405163749E+02  0.67555722812E+02  0.41800000000E+01 0. -1.
         -5    1    3    3    0  502  0.42555481582E+02 -0.76674819415E+02  0.28558950061E+03  0.29877890188E+03  0.41800000000E+01 0. -1.
        -11    1    1    2    0    0 -0.15981872454E+02 -0.26092040771E+01 -0.94127753962E+01  0.18730417340E+02  0.00000000000E+00 0.  1.
         11    1    1    2    0    0 -0.23952967959E+02  0.39540927464E+02  0.15054619458E+03  0.15748455900E+03  0.00000000000E+00 0. -1.
</event>
<event>
 7    1  0.3056346E-009  0.8411296E+02  0.7561462E-02  0.1317769E+00
         -4   -1    0    0    0  501 -0.00000000000E+00  0.00000000000E+00  0.58128839153E+03  0.58128839153E+03  0.00000000000E+00 0.  1.
          4   -1    0    0  501    0  0.00000000000E+00 -0.00000000000E+00 -0.23574783124E+02  0.23574783124E+02  0.00000000000E+00 0. -1.
         25    2    1    2    0    0  0.72691560225E+01 -0.36550526136E+02  0.25912050431E+03  0.29013772984E+03  0.12509070683E+03 0.  0.
          5    1    3    3  502    0 -0.20078671222E+02  0.33286408335E+01 -0.51833929876E+01  0.21414314154E+02  0.41800000000E+01 0.  1.
         -5    1    3    3    0  502  0.27347827244E+02 -0.39879166970E+02  0.26430389730E+03  0.26872341569E+03  0.41800000000E+01 0.  1.
        -11    1    1    2    0    0  0.45228506117E+01 -0.30499767038E+02  0.78282126770E+02  0.84135505815E+02  0.00000000000E+00 0.  1.
         11    1    1    2    0    0 -0.11792006634E+02  0.67050293174E+02  0.22031097733E+03  0.23058993900E+03  0.00000000000E+00 0. -1.
</event>
<event>
 7    1  0.3056346E-009  0.1638121E+03  0.7561462E-02  0.1184459E+00
          2   -1    0    0  501    0  0.00000000000E+00  0.00000000000E+00  0.38009519089E+03  0.38009519089E+03  0.00000000000E+00 0. -1.
         -2   -1    0    0    0  501 -0.00000000000E+00 -0.00000000000E+00 -0.94574312382E+02  0.94574312382E+02  0.00000000000E+00 0.  1.
         25    2    1    2    0    0 -0.10862617454E+03  0.76454825357E+02  0.24622006533E+03  0.30646157668E+03  0.12509752714E+03 0.  0.
          5    1    3    3  502    0  0.11549034801E+02 -0.21150980262E+02  0.56404509439E+02  0.61479144886E+02  0.41800000000E+01 0.  1.
         -5    1    3    3    0  502 -0.12017520934E+03  0.97605805619E+02  0.18981555589E+03  0.24498243179E+03  0.41800000000E+01 0.  1.
        -11    1    1    2    0    0  0.17048920849E+02 -0.50211110554E+02 -0.19223447485E+02  0.56403566007E+02  0.00000000000E+00 0.  1.
         11    1    1    2    0    0  0.91577253687E+02 -0.26243714803E+02  0.58524260666E+02  0.11180436059E+03  0.00000000000E+00 0. -1.
</event>
<event>
 7    1  0.3056346E-009  0.8989802E+02  0.7561462E-02  0.1303099E+00
         -1   -1    0    0    0  501 -0.00000000000E+00  0.00000000000E+00  0.88731435840E+02  0.88731435840E+02  0.00000000000E+00 0.  1.
          1   -1    0    0  501    0  0.00000000000E+00 -0.00000000000E+00 -0.20222926624E+03  0.20222926624E+03  0.00000000000E+00 0. -1.
         25    2    1    2    0    0 -0.44635720303E+02  0.57773221576E+02 -0.96027019688E+02  0.17377860961E+03  0.12509086294E+03 0.  0.
          5    1    3    3  502    0 -0.38914712539E+02  0.55537815212E+02  0.89578685433E+01  0.68531157727E+02  0.41800000000E+01 0. -1.
         -5    1    3    3    0  502 -0.57210077637E+01  0.22354063642E+01 -0.10498488823E+03  0.10524745189E+03  0.41800000000E+01 0. -1.
        -11    1    1    2    0    0  0.64029745325E+02 -0.30410435328E+02 -0.35312122718E+02  0.79193111279E+02  0.00000000000E+00 0. -1.
         11    1    1    2    0    0 -0.19394025022E+02 -0.27362786248E+02  0.17841312005E+02  0.37988981190E+02  0.00000000000E+00 0.  1.
</event>
<event>
 7    1  0.3056346E-009  0.1379945E+03  0.7561462E-02  0.1216053E+00
          2   -1    0    0  501    0  0.00000000000E+00  0.00000000000E+00  0.24401484506E+02  0.24401484506E+02  0.00000000000E+00 0. -1.
         -2   -1    0    0    0  501 -0.00000000000E+00 -0.00000000000E+00 -0.92593671221E+03  0.92593671221E+03  0.00000000000E+00 0.  1.
         25    2    1    2    0    0 -0.55050429876E+02  0.86861830046E+02 -0.50842923051E+03  0.53359501915E+03  0.12509130534E+03 0.  0.
          5    1    3    3  502    0  0.12055427059E+02 -0.17883073481E+02 -0.19689320647E+03  0.19811497872E+03  0.41800000000E+01 0.  1.
         -5    1    3    3    0  502 -0.67105856935E+02  0.10474490353E+03 -0.31153602404E+03  0.33548004043E+03  0.41800000000E+01 0.  1.
        -11    1    1    2    0    0 -0.76849376429E+01 -0.61348952622E+02 -0.26178410949E+03  0.26898637928E+03  0.00000000000E+00 0.  1.
         11    1    1    2    0    0  0.62735367519E+02 -0.25512877423E+02 -0.13132188769E+03  0.14775679828E+03  0.00000000000E+00 0. -1.
</event>
<event>
 7    1  0.3056346E-009  0.2365066E+03  0.7561462E-02  0.1122142E+00
         -1   -1    0    0    0  501 -0.00000000000E+00  0.00000000000E+00  0.11448380946E+03  0.11448380946E+03  0.00000000000E+00 0.  1.
          1   -1    0    0  501    0  0.00000000000E+00 -0.00000000000E+00 -0.62672476166E+03  0.62672476166E+03  0.00000000000E+00 0. -1.
         25    2    1    2    0    0  0.20700285159E+03 -0.76354596820E+02 -0.41108808758E+03  0.48303362847E+03  0.12509142842E+03 0.  0.
          5    1    3    3  502    0  0.19307402854E+03 -0.23529337816E+02 -0.35380810154E+03  0.40376831891E+03  0.41800000000E+01 0.  1.
         -5    1    3    3    0  502  0.13928823047E+02 -0.52825259004E+02 -0.57279986035E+02  0.79265309566E+02  0.41800000000E+01 0.  1.
        -11    1    1    2    0    0 -0.70035012806E+02  0.76788205238E+01 -0.74706914822E+02  0.10268880380E+03  0.00000000000E+00 0. -1.
         11    1    1    2    0    0 -0.13696783878E+03  0.68675776296E+02 -0.26445949803E+02  0.15548613884E+03  0.00000000000E+00 0.  1.
</event>
<event>
 7    1  0.3056346E-009  0.1433277E+03  0.7561462E-02  0.1208920E+00
          1   -1    0    0  501    0  0.00000000000E+00  0.00000000000E+00  0.97812502607E+02  0.97812502607E+02  0.00000000000E+00 0. -1.
         -1   -1    0    0    0  501 -0.00000000000E+00 -0.00000000000E+00 -0.26086268663E+03  0.26086268663E+03  0.00000000000E+00 0.  1.
         25    2    1    2    0    0  0.10872596954E+03 -0.10210429994E+02 -0.40840352691E+02  0.17099955666E+03  0.12508926667E+03 0.  0.
          5    1    3    3  502    0  0.12693302142E+03  0.18116496185E+02 -0.16729583443E+02  0.12937368636E+03  0.41800000000E+01 0.  1.
         -5    1    3    3    0  502 -0.18207051875E+02 -0.28326926179E+02 -0.24110769248E+02  0.41625870303E+02  0.41800000000E+01 0.  1.
        -11    1    1    2    0    0 -0.49507191934E+02  0.34591122197E+02 -0.10538034827E+03  0.12145997526E+03  0.00000000000E+00 0.  1.
         11    1    1    2    0    0 -0.59218777607E+02 -0.24380692203E+02 -0.16829483056E+02  0.66215657314E+02  0.00000000000E+00 0. -1.
</event>
<event>
 7    1  0.3056346E-009  0.1792660E+03  0.7561462E-02  0.1168515E+00
         -2   -1    0    0    0  501 -0.00000000000E+00  0.00000000000E+00  0.20117978666E+03  0.20117978666E+03  0.00000000000E+00 0. -1.
          2   -1    0    0  501    0  0.00000000000E+00 -0.00000000000E+00 -0.17125490781E+03  0.17125490781E+03  0.00000000000E+00 0.  1.
         25    2    1    2    0    0 -0.41499996873E+02  0.13749221651E+03 -0.30016104860E+02  0.19280704600E+03  0.12508889278E+03 0.  0.
          5    1    3    3  502    0 -0.72760629310E+02  0.31863422448E+02 -0.20618530708E+02  0.82170451357E+02  0.41800000000E+01 0.  1.
         -5    1    3    3    0  502  0.31260632437E+02  0.10562879406E+03 -0.93975741522E+01  0.11063659465E+03  0.41800000000E+01 0.  1.
        -11    1    1    2    0    0  0.11272521913E+02  0.11866375681E+02  0.10393668359E+02  0.19388371877E+02  0.00000000000E+00 0. -1.
         11    1    1    2    0    0  0.30227474960E+02 -0.14935859219E+03  0.49547315351E+02  0.16023927659E+03  0.00000000000E+00 0.  1.
</event>
<event>
 7    1  0.3056346E-009  0.1981915E+03  0.7561462E-02  0.1151274E+00
         -1   -1    0    0    0  501 -0.00000000000E+00  0.00000000000E+00  0.77383292281E+02  0.77383292281E+02  0.00000000000E+00 0.  1.
          1   -1    0    0  501    0  0.00000000000E+00 -0.00000000000E+00 -0.58255702778E+03  0.58255702778E+03  0.00000000000E+00 0. -1.
         25    2    1    2    0    0  0.13019248525E+03 -0.12731874822E+03 -0.26964566950E+03  0.34859238693E+03  0.12509084012E+03 0.  0.
          5    1    3    3  502    0  0.87822324386E+02 -0.91398600959E+01 -0.15546909377E+03  0.17884185534E+03  0.41800000000E+01 0.  1.
         -5    1    3    3    0  502  0.42370160866E+02 -0.11817888812E+03 -0.11417657573E+03  0.16975053159E+03  0.41800000000E+01 0.  1.
        -11    1    1    2    0    0 -0.21802522479E+02  0.16346492249E+02 -0.10541940542E+03  0.10888438287E+03  0.00000000000E+00 0. -1.
         11    1    1    2    0    0 -0.10838996277E+03  0.11097225597E+03 -0.13010866059E+03  0.20246355026E+03  0.00000000000E+00 0.  1.
</event>
<event>
 7    1  0.3673910E-009  0.1317373E+03  0.7561462E-02  0.1224900E+00
         -1   -1    0    0    0  501 -0.00000000000E+00  0.00000000000E+00  0.26044915300E+03  0.26044915300E+03  0.00000000000E+00 0.  1.
          1   -1    0    0  501    0  0.00000000000E+00 -0.00000000000E+00 -0.76506105286E+02  0.76506105286E+02  0.00000000000E+00 0. -1.
         25    2    1    2    0    0 -0.35060327068E+02 -0.67881560721E+02  0.42849290473E+02  0.15271163943E+03  0.12509056840E+03 0.  0.
          5    1    3    3  502    0 -0.65838402709E+02  0.46795222673E+01  0.30466337965E+02  0.72816641978E+02  0.41800000000E+01 0.  1.
         -5    1    3    3    0  502  0.30778075641E+02 -0.72561082989E+02  0.12382952508E+02  0.79894997449E+02  0.41800000000E+01 0.  1.
        -11    1    1    2    0    0  0.61212013778E+02  0.20978222319E+02  0.80355109548E+02  0.10316947258E+03  0.00000000000E+00 0.  1.
         11    1    1    2    0    0 -0.26151686709E+02  0.46903338402E+02  0.60738647692E+02  0.81074146276E+02  0.00000000000E+00 0. -1.
</event>
<event>
 7    1  0.3056346E-009  0.7208231E+02  0.7561462E-02  0.1353152E+00
         -4   -1    0    0    0  501 -0.00000000000E+00  0.00000000000E+00  0.20921129411E+03  0.20921129411E+03  0.00000000000E+00 0.  1.
          4   -1    0    0  501    0  0.00000000000E+00 -0.00000000000E+00 -0.74009330754E+02  0.74009330754E+02  0.00000000000E+00 0. -1.
         25    2    1    2    0    0  0.50161594224E+02  0.27349972427E+02  0.91725720083E+02  0.16530468153E+03  0.12509126062E+03 0.  0.
          5    1    3    3  502    0  0.58951429586E+02  0.32647286206E+02 -0.52283015421E+01  0.67719449820E+02  0.41800000000E+01 0.  1.
         -5    1    3    3    0  502 -0.87898353618E+01 -0.52973137794E+01  0.96954021625E+02  0.97585231712E+02  0.41800000000E+01 0.  1.
        -11    1    1    2    0    0 -0.18973808311E+02 -0.28636247629E+02 -0.25116775449E+02  0.42554582468E+02  0.00000000000E+00 0. -1.
         11    1    1    2    0    0 -0.31187785913E+02  0.12862752020E+01  0.68593018719E+02  0.75361360862E+02  0.00000000000E+00 0.  1.
</event>
<event>
 7    1  0.3056346E-009  0.1038716E+03  0.7561462E-02  0.1272359E+00
         -1   -1    0    0    0  501 -0.00000000000E+00  0.00000000000E+00  0.26004931812E+02  0.26004931812E+02  0.00000000000E+00 0.  1.
          1   -1    0    0  501    0  0.00000000000E+00 -0.00000000000E+00 -0.52002026654E+03  0.52002026654E+03  0.00000000000E+00 0. -1.
         25    2    1    2    0    0 -0.35390868761E+02  0.82447728245E+01 -0.31254661321E+03  0.33860609634E+03  0.12509281827E+03 0.  0.
          5    1    3    3  502    0  0.34125054931E+02  0.19639812072E+02 -0.21261331283E+03  0.21626866343E+03  0.41800000000E+01 0. -1.
         -5    1    3    3    0  502 -0.69515923692E+02 -0.11395039248E+02 -0.99933300381E+02  0.12233743291E+03  0.41800000000E+01 0. -1.
        -11    1    1    2    0    0  0.92112094295E+01 -0.48607046641E+02 -0.11656859882E+03  0.12663226127E+03  0.00000000000E+00 0.  1.
         11    1    1    2    0    0  0.26179659331E+02  0.40362273817E+02 -0.64900122692E+02  0.80786840734E+02  0.00000000000E+00 0. -1.
</event>
<event>
 7    1  0.3056346E-009  0.1062279E+03  0.7561462E-02  0.1267719E+00
          4   -1    0    0  501    0  0.00000000000E+00  0.00000000000E+00  0.21074210340E+03  0.21074210340E+03  0.00000000000E+00 0.  1.
         -4   -1    0    0    0  501 -0.00000000000E+00 -0.00000000000E+00 -0.58064716816E+02  0.58064716816E+02  0.00000000000E+00 0. -1.
         25    2    1    2    0    0  0.71723416622E+01 -0.27345140675E+02  0.10306696004E+03  0.16452559852E+03  0.12508667041E+03 0.  0.
          5    1    3    3  502    0 -0.17570455609E+02 -0.72626266722E+02  0.73561762269E+02  0.10493855724E+03  0.41800000000E+01 0.  1.
         -5    1    3    3    0  502  0.24742797271E+02  0.45281126046E+02  0.29505197769E+02  0.59587041278E+02  0.41800000000E+01 0.  1.
        -11    1    1    2    0    0 -0.43759563053E+02  0.21643286748E+02  0.95794289476E+01  0.49750343505E+02  0.00000000000E+00 0. -1.
         11    1    1    2    0    0  0.36587221391E+02  0.57018539270E+01  0.40030997593E+02  0.54530878185E+02  0.00000000000E+00 0.  1.
</event>
<event>
 7    1  0.3056346E-009  0.1121360E+03  0.7561462E-02  0.1256665E+00
         -1   -1    0    0    0  501 -0.00000000000E+00  0.00000000000E+00  0.25568541524E+03  0.25568541524E+03  0.00000000000E+00 0.  1.
          1   -1    0    0  501    0  0.00000000000E+00 -0.00000000000E+00 -0.70945377249E+02  0.70945377249E+02  0.00000000000E+00 0. -1.
         25    2    1    2    0    0  0.76268819888E+02  0.63058476817E+01  0.11652843924E+03  0.18730870693E+03  0.12509587499E+03 0.  0.
          5    1    3    3  502    0  0.10731062128E+03  0.54410068928E+01  0.61205665084E+02  0.12372865406E+03  0.41800000000E+01 0.  1.
         -5    1    3    3    0  502 -0.31041801396E+02  0.86484078882E+00  0.55322774152E+02  0.63580052873E+02  0.41800000000E+01 0.  1.
        -11    1    1    2    0    0 -0.38493757828E+01 -0.12157936900E+02 -0.20814993190E+02  0.24411002951E+02  0.00000000000E+00 0. -1.
         11    1    1    2    0    0 -0.72419444105E+02  0.58520892182E+01  0.89026591947E+02  0.11491108261E+03  0.00000000000E+00 0.  1.
</event>
<event>
 7    1  0.3056346E-009  0.7256137E+02  0.7561462E-02  0.1351593E+00
          2   -1    0    0  501    0  0.00000000000E+00  0.00000000000E+00  0.84981613482E+03  0.84981613482E+03  0.00000000000E+00 0.  1.
         -2   -1    0    0    0  501 -0.00000000000E+00 -0.00000000000E+00 -0.16085956250E+02  0.16085956250E+02  0.00000000000E+00 0. -1.
         25    2    1    2    0    0  0.27872630938E+00  0.15741454664E+02  0.62898324749E+03  0.64149154665E+03  0.12507440869E+03 0.  0.
          5    1    3    3  502    0  0.10382212948E+02  0.37399379021E+02  0.57536641099E+02  0.69530147172E+02  0.41800000000E+01 0. -1.
         -5    1    3    3    0  502 -0.10103486638E+02 -0.21657924357E+02  0.57144660639E+03  0.57196139947E+03  0.41800000000E+01 0. -1.
        -11    1    1    2    0    0  0.38803749191E+02  0.21007114086E+01  0.47347157127E+02  0.61252732410E+02  0.00000000000E+00 0. -1.
         11    1    1    2    0    0 -0.39082475500E+02 -0.17842166072E+02  0.15739977395E+03  0.16315781202E+03  0.00000000000E+00 0.  1.
</event>
<event>
 7    1  0.3056346E-009  0.9344646E+02  0.7561462E-02  0.1294714E+00
         -2   -1    0    0    0  501 -0.00000000000E+00  0.00000000000E+00  0.20164650570E+02  0.20164650570E+02  0.00000000000E+00 0.  1.
          2   -1    0    0  501    0  0.00000000000E+00 -0.00000000000E+00 -0.85677416744E+03  0.85677416744E+03  0.00000000000E+00 0. -1.
         25    2    1    2    0    0  0.26312099105E+02 -0.17936020028E+01 -0.69496395954E+03  0.70662361352E+03  0.12508590072E+03 0.  0.
          5    1    3    3  502    0  0.25575136308E+02  0.43831086655E+02 -0.12719099805E+03  0.13700465006E+03  0.41800000000E+01 0.  1.
         -5    1    3    3    0  502  0.73696279721E+00 -0.45624688658E+02 -0.56777296149E+03  0.56961896346E+03  0.41800000000E+01 0.  1.
        -11    1    1    2    0    0 -0.43132098904E+02  0.33264079294E+02 -0.10944850072E+03  0.12225322587E+03  0.00000000000E+00 0.  1.
         11    1    1    2    0    0  0.16819999799E+02 -0.31470477291E+02 -0.32197056617E+02  0.48061978621E+02  0.00000000000E+00 0. -1.
</event>
<event>
 7    1  0.3056346E-009  0.1176652E+03  0.7561462E-02  0.1246999E+00
          1   -1    0    0  501    0  0.00000000000E+00  0.00000000000E+00  0.17631646032E+03  0.17631646032E+03  0.00000000000E+00 0. -1.
         -1   -1    0    0    0  501 -0.00000000000E+00 -0.00000000000E+00 -0.14901914156E+03  0.14901914156E+03  0.00000000000E+00 0.  1.
         25    2    1    2    0    0 -0.64758635195E+02  0.97250822201E+02  0.40593329208E+02  0.17591931282E+03  0.12509349701E+03 0.  0.
          5    1    3    3  502    0 -0.15807461264E+02  0.18723847453E+02 -0.43960412688E+02  0.50501966088E+02  0.41800000000E+01 0. -1.
         -5    1    3    3    0  502 -0.48951173931E+02  0.78526974748E+02  0.84553741896E+02  0.12541734673E+03  0.41800000000E+01 0. -1.
        -11    1    1    2    0    0  0.25333289677E+02 -0.25326453285E+02 -0.48387021321E+02  0.60203892184E+02  0.00000000000E+00 0.  1.
         11    1    1    2    0    0  0.39425345518E+02 -0.71924368916E+02  0.35091010864E+02  0.89212396878E+02  0.00000000000E+00 0. -1.
</event>
<event>
 7    1  0.3056346E-009  0.2011804E+03  0.7561462E-02  0.1148747E+00
          2   -1    0    0  501    0  0.00000000000E+00  0.00000000000E+00  0.32250347783E+03  0.32250347783E+03  0.00000000000E+00 0. -1.
         -2   -1    0    0    0  501 -0.00000000000E+00 -0.00000000000E+00 -0.13409690051E+03  0.13409690051E+03  0.00000000000E+00 0.  1.
         25    2    1    2    0    0  0.11161219136E+03  0.13640201120E+03  0.85825591379E+02  0.23252217908E+03  0.12505095645E+03 0.  0.
          5    1    3    3  502    0  0.41997683513E+02  0.13002691037E+03  0.87785568542E+02  0.16246409229E+03  0.41800000000E+01 0.  1.
         -5    1    3    3    0  502  0.69614507851E+02  0.63751008334E+01 -0.19599771630E+01  0.70058086789E+02  0.41800000000E+01 0.  1.
        -11    1    1    2    0    0 -0.33356563000E+02 -0.10691599884E+03  0.37493892784E+02  0.11810792988E+03  0.00000000000E+00 0.  1.
         11    1    1    2    0    0 -0.78255628364E+02 -0.29486012361E+02  0.65087093158E+02  0.10597026938E+03  0.00000000000E+00 0. -1.
</event>
<event>
 7    1  0.3056346E-009  0.2676101E+03  0.7561462E-02  0.1102655E+00
         -2   -1    0    0    0  501 -0.00000000000E+00  0.00000000000E+00  0.10165692348E+03  0.10165692348E+03  0.00000000000E+00 0.  1.
          2   -1    0    0  501    0  0.00000000000E+00 -0.00000000000E+00 -0.75683205742E+03  0.75683205742E+03  0.00000000000E+00 0. -1.
         25    2    1    2    0    0  0.22245358451E+03 -0.11867963511E+03 -0.39782740620E+03  0.48732407701E+03  0.12509059861E+03 0.  0.
          5    1    3    3  502    0  0.32721846049E+02  0.19803265835E+02 -0.22611847387E+02  0.44627979888E+02  0.41800000000E+01 0. -1.
         -5    1    3    3    0  502  0.18973173846E+03 -0.13848290094E+03 -0.37521555882E+03  0.44269609713E+03  0.41800000000E+01 0. -1.
        -11    1    1    2    0    0 -0.13046022474E+03  0.29637768359E+02 -0.16931497329E+03  0.21579116695E+03  0.00000000000E+00 0. -1.
         11    1    1    2    0    0 -0.91993359770E+02  0.89041866751E+02 -0.88032754438E+02  0.15537373694E+03  0.00000000000E+00 0.  1.
</event>
<event>
 7    1  0.3056346E-009  0.1053777E+03  0.7561462E-02  0.1269377E+00
          1   -1    0    0  501    0  0.00000000000E+00  0.00000000000E+00  0.17603489128E+03  0.17603489128E+03  0.00000000000E+00 0. -1.
         -1   -1    0    0    0  501 -0.00000000000E+00 -0.00000000000E+00 -0.78036002024E+02  0.78036002024E+02  0.00000000000E+00 0.  1.
         25    2    1    2    0    0 -0.18007277888E+02  0.39987472607E+02  0.41125173792E+02  0.13878953675E+03  0.12509194846E+03 0.  0.
          5    1    3    3  502    0 -0.34982545611E+02 -0.32727434076E+02 -0.87784577921E+01  0.48881460287E+02  0.41800000000E+01 0.  1.
         -5    1    3    3    0  502  0.16975267722E+02  0.72714906683E+02  0.49903631585E+02  0.89908076464E+02  0.41800000000E+01 0.  1.
        -11    1    1    2    0    0  0.43632464229E+02 -0.43974797157E+02  0.63294216202E+02  0.88564849260E+02  0.00000000000E+00 0.  1.
         11    1    1    2    0    0 -0.25625186341E+02  0.39873245500E+01 -0.64205007411E+01  0.26716507291E+02  0.00000000000E+00 0. -1.
</event>
<event>
 7    1  0.3056346E-009  0.8646709E+02  0.7561462E-02  0.1311640E+00
          2   -1    0    0  501    0  0.00000000000E+00  0.00000000000E+00  0.15606865720E+03  0.15606865720E+03  0.00000000000E+00 0. -1.
         -2   -1    0    0    0  501 -0.00000000000E+00 -0.00000000000E+00 -0.10265402657E+03  0.10265402657E+03  0.00000000000E+00 0.  1.
         25    2    1    2    0    0 -0.56814906377E+02  0.36247642730E+01  0.61553358084E+02  0.15059387415E+03  0.12509447045E+03 0.  0.
          5    1    3    3  502    0 -0.34517360013E+00  0.41825981275E+02 -0.18010689297E+02  0.45731708730E+02  0.41800000000E+01 0. -1.
         -5    1    3    3    0  502 -0.56469732777E+02 -0.38201217002E+02  0.79564047381E+02  0.10486216542E+03  0.41800000000E+01 0. -1.
        -11    1    1    2    0    0  0.42077216996E+02  0.91830372449E+01 -0.47544697887E+02  0.64150749491E+02  0.00000000000E+00 0.  1.
         11    1    1    2    0    0  0.14737689381E+02 -0.12807801518E+02  0.39405970433E+02  0.43978060141E+02  0.00000000000E+00 0. -1.
</event>
<event>
 7    1  0.3056346E-009  0.1088969E+03  0.7561462E-02  0.1262626E+00
          1   -1    0    0  501    0  0.00000000000E+00  0.00000000000E+00  0.31331519620E+03  0.31331519620E+03  0.00000000000E+00 0. -1.
         -1   -1    0    0    0  501 -0.00000000000E+00 -0.00000000000E+00 -0.61438726832E+02  0.61438726832E+02  0.00000000000E+00 0.  1.
         25    2    1    2    0    0 -0.43834474498E+02 -0.62608728999E+02  0.85632123161E+02  0.16974910164E+03  0.12506231602E+03 0.  0.
          5    1    3    3  502    0 -0.18644988793E+02  0.10271723452E+02 -0.26092809098E+02  0.33933036946E+02  0.41800000000E+01 0.  1.
         -5    1    3    3    0  502 -0.25189485705E+02 -0.72880452451E+02  0.11172493226E+03  0.13581606469E+03  0.41800000000E+01 0.  1.
        -11    1    1    2    0    0  0.57648380466E+02  0.30419547680E+01  0.94500774263E+02  0.11073836551E+03  0.00000000000E+00 0. -1.
         11    1    1    2    0    0 -0.13813905968E+02  0.59566774231E+02  0.71743571944E+02  0.94266455888E+02  0.00000000000E+00 0.  1.
</event>
<event>
 7    1  0.3056346E-009  0.1166998E+03  0.7561462E-02  0.1248643E+00
          1   -1    0    0  501    0  0.00000000000E+00  0.00000000000E+00  0.90042235000E+02  0.90042235000E+02  0.00000000000E+00 0. -1.
         -1   -1    0    0    0  501 -0.00000000000E+00 -0.00000000000E+00 -0.16956629983E+03  0.16956629983E+03  0.00000000000E+00 0.  1.
         25    2    1    2    0    0 -0.60450924582E+02 -0.19875194350E+01 -0.53177136592E+02  0.14877272576E+03  0.12508897457E+03 0.  0.
          5    1    3    3  502    0  0.28668026936E+02  0.18303314366E+02  0.12139692035E+02  0.36355351847E+02  0.41800000000E+01 0. -1.
         -5    1    3    3    0  502 -0.89118951518E+02 -0.20290833801E+02 -0.65316828627E+02  0.11241737391E+03  0.41800000000E+01 0. -1.
        -11    1    1    2    0    0  0.68737510241E+02 -0.29702273911E+02 -0.19383509536E+02  0.77348502452E+02  0.00000000000E+00 0. -1.
         11    1    1    2    0    0 -0.82865856589E+01  0.31689793346E+02 -0.69634186990E+01  0.33487306613E+02  0.00000000000E+00 0.  1.
</event>
<event>
 6    1  0.3056346E-009  0.1114016E+03  0.7561462E-02  0.1257996E+00
         -1   -1    0    0    0  501 -0.00000000000E+00  0.00000000000E+00  0.35860361155E+02  0.35860361155E+02  0.00000000000E+00 0.  1.
          1   -1    0    0  501    0  0.00000000000E+00 -0.00000000000E+00 -0.42872722143E+03  0.42872722143E+03  0.00000000000E+00 0. -1.
          5    1    1    2  502    0  0.43970563625E+02  0.12424641650E+01 -0.31087436736E+02  0.54026431545E+02  0.41800000000E+01 0. -1.
         -5    1    1    2    0  502 -0.54371568946E+02 -0.62884310690E+02 -0.19092192891E+03  0.20827712159E+03  0.41800000000E+01 0. -1.
        -11    1    1    2    0    0  0.33281213209E+02  0.64244718546E+02 -0.16233596912E+03  0.17773010404E+03  0.00000000000E+00 0. -1.
         11    1    1    2    0    0 -0.22880207888E+02 -0.26028720204E+01 -0.85215255146E+01  0.24553925406E+02  0.00000000000E+00 0.  1.
</event>
<event>
 7    1  0.3056346E-009  0.1148057E+03  0.7561462E-02  0.1251921E+00
          2   -1    0    0  501    0  0.00000000000E+00  0.00000000000E+00  0.37528230159E+03  0.37528230159E+03  0.00000000000E+00 0. -1.
         -2   -1    0    0    0  501 -0.00000000000E+00 -0.00000000000E+00 -0.71244429427E+02  0.71244429427E+02  0.00000000000E+00 0.  1.
         25    2    1    2    0    0 -0.72995904501E+02 -0.41826592588E+02  0.56113952197E+02  0.16085685112E+03  0.12509310533E+03 0.  0.
          5    1    3    3  502    0 -0.86296289583E+02 -0.38393613032E+02 -0.82570060546E+01  0.94904002373E+02  0.41800000000E+01 0.  1.
         -5    1    3    3    0  502  0.13300385082E+02 -0.34329795558E+01  0.64370958251E+02  0.65952848749E+02  0.41800000000E+01 0.  1.
        -11    1    1    2    0    0  0.69347814112E+02 -0.88420673796E+01  0.21259116625E+03  0.22379076264E+03  0.00000000000E+00 0. -1.
         11    1    1    2    0    0  0.36480903883E+01  0.50668659968E+02  0.35332753719E+02  0.61879117251E+02  0.00000000000E+00 0.  1.
</event>
<event>
 7    1  0.3056346E-009  0.1278039E+03  0.7561462E-02  0.1230751E+00
         -2   -1    0    0    0  501 -0.00000000000E+00  0.00000000000E+00  0.29731167168E+02  0.29731167168E+02  0.00000000000E+00 0. -1.
          2   -1    0    0  501    0  0.00000000000E+00 -0.00000000000E+00 -0.12773828109E+04  0.12773828109E+04  0.00000000000E+00 0.  1.
         25    2    1    2    0    0  0.78322234712E+02  0.17718572725E+02 -0.11278022686E+04  0.11375560330E+04  0.12508977100E+03 0.  0.
          5    1    3    3  502    0  0.47876274568E+02 -0.52646502776E+02 -0.59328684839E+03  0.59755380410E+03  0.41800000000E+01 0.  1.
         -5    1    3    3    0  502  0.30445960144E+02  0.70365075502E+02 -0.53451542022E+03  0.54000222888E+03  0.41800000000E+01 0.  1.
        -11    1    1    2    0    0 -0.57671883466E+02 -0.45123828069E+02 -0.11286650389E+03  0.13454015647E+03  0.00000000000E+00 0.  1.
         11    1    1    2    0    0 -0.20650351246E+02  0.27405255344E+02 -0.69828711890E+01  0.35017788581E+02  0.00000000000E+00 0. -1.
</event>
<event>
 7    1  0.3244009E-009  0.1864288E+03  0.7561462E-02  0.1161722E+00
          1   -1    0    0  501    0  0.00000000000E+00  0.00000000000E+00  0.14299780453E+04  0.14299780453E+04  0.00000000000E+00 0. -1.
         -1   -1    0    0    0  501 -0.00000000000E+00 -0.00000000000E+00 -0.31226332932E+02  0.31226332932E+02  0.00000000000E+00 0.  1.
         25    2    1    2    0    0  0.16089320272E+03 -0.63300833566E+02  0.91346047789E+03  0.93805691992E+03  0.12508845723E+03 0.  0.
          5    1    3    3  502    0  0.15014988621E+03 -0.31120597487E+02  0.86649749829E+03  0.87997094660E+03  0.41800000000E+01 0.  1.
         -5    1    3    3    0  502  0.10743316515E+02 -0.32180236079E+02  0.46962979604E+02  0.58085973325E+02  0.41800000000E+01 0.  1.
        -11    1    1    2    0    0 -0.33927848908E+02  0.45969717976E+02  0.81655307887E+02  0.99658934414E+02  0.00000000000E+00 0.  1.
         11    1    1    2    0    0 -0.12696535382E+03  0.17331115590E+02  0.40363592657E+03  0.42348852387E+03  0.00000000000E+00 0. -1.
</event>
<event>
 7    1  0.3056346E-009  0.1305204E+03  0.7561462E-02  0.1226686E+00
          1   -1    0    0  501    0  0.00000000000E+00  0.00000000000E+00  0.61452924815E+02  0.61452924815E+02  0.00000000000E+00 0. -1.
         -1   -1    0    0    0  501 -0.00000000000E+00 -0.00000000000E+00 -0.56633224834E+03  0.56633224834E+03  0.00000000000E+00 0.  1.
         25    2    1    2    0    0 -0.43439052057E+02  0.53610676946E+02 -0.40561027712E+02  0.14851631430E+03  0.12510332816E+03 0.  0.
          5    1    3    3  502    0 -0.53177641303E+02  0.90016919436E+02 -0.25348918626E+02  0.10766126228E+03  0.41800000000E+01 0. -1.
         -5    1    3    3    0  502  0.97385892466E+01 -0.36406242489E+02 -0.15212109086E+02  0.40855052020E+02  0.41800000000E+01 0. -1.
        -11    1    1    2    0    0 -0.30427514007E+02 -0.24606879992E+02 -0.13812392541E+03  0.14356026930E+03  0.00000000000E+00 0. -1.
         11    1    1    2    0    0  0.73866566064E+02 -0.29003796955E+02 -0.32619437041E+03  0.33570858956E+03  0.00000000000E+00 0.  1.
</event>
<event>
 7    1  0.3056346E-009  0.1830329E+03  0.7561462E-02  0.1164900E+00
         -1   -1    0    0    0  501 -0.00000000000E+00  0.00000000000E+00  0.82880969458E+02  0.82880969458E+02  0.00000000000E+00 0.  1.
          1   -1    0    0  501    0  0.00000000000E+00 -0.00000000000E+00 -0.50239216177E+03  0.50239216177E+03  0.00000000000E+00 0. -1.
         25    2    1    2    0    0 -0.11578583957E+03  0.12723362905E+03 -0.23568217714E+03  0.31747203395E+03  0.12509055406E+03 0.  0.
          5    1    3    3  502    0 -0.51341868813E+02  0.63840475871E+02 -0.20680832638E+03  0.22248314568E+03  0.41800000000E+01 0.  1.
         -5    1    3    3    0  502 -0.64443970756E+02  0.63393153182E+02 -0.28873850757E+02  0.94988888269E+02  0.41800000000E+01 0.  1.
        -11    1    1    2    0    0  0.34890938037E+01 -0.65114206570E+02 -0.76350317339E+02  0.10040619817E+03  0.00000000000E+00 0. -1.
         11    1    1    2    0    0  0.11229674577E+03 -0.62119422483E+02 -0.10747869784E+03  0.16739489911E+03  0.00000000000E+00 0.  1.
</event>
<event>
 7    1  0.3056346E-009  0.1080342E+03  0.7561462E-02  0.1264254E+00
         -1   -1    0    0    0  501 -0.00000000000E+00  0.00000000000E+00  0.34821096713E+03  0.34821096713E+03  0.00000000000E+00 0.  1.
          1   -1    0    0  501    0  0.00000000000E+00 -0.00000000000E+00 -0.67422196882E+02  0.67422196882E+02  0.00000000000E+00 0. -1.
         25    2    1    2    0    0  0.39322140967E+02 -0.20314835906E+02  0.18865290922E+02  0.13402739229E+03  0.12509404205E+03 0.  0.
          5    1    3    3  502    0  0.46770735996E+02  0.42442276841E+02  0.29453395261E+02  0.69812774630E+02  0.41800000000E+01 0.  1.
         -5    1    3    3    0  502 -0.74485950289E+01 -0.62757112748E+02 -0.10588104340E+02  0.64214617665E+02  0.41800000000E+01 0.  1.
        -11    1    1    2    0    0 -0.63207774490E+02  0.14269582089E+02  0.24010487077E+03  0.24869497924E+03  0.00000000000E+00 0.  1.
         11    1    1    2    0    0  0.23885633523E+02  0.60452538177E+01  0.21818608560E+02  0.32910792485E+02  0.00000000000E+00 0. -1.
</event>
<event>
 7    1  0.3056346E-009  0.1422499E+03  0.7561462E-02  0.1210333E+00
         -3   -1    0    0    0  501 -0.00000000000E+00  0.00000000000E+00  0.48167273261E+03  0.48167273261E+03  0.00000000000E+00 0.  1.
          3   -1    0    0  501    0  0.00000000000E+00 -0.00000000000E+00 -0.43810766093E+02  0.43810766093E+02  0.00000000000E+00 0. -1.
         25    2    1    2    0    0  0.85580569742E+01  0.90066164684E+02  0.18414375479E+03  0.24028963188E+03  0.12508009596E+03 0.  0.
          5    1    3    3  502    0 -0.39065544256E+02  0.98279898826E+02  0.12810905982E+03  0.16617598764E+03  0.41800000000E+01 0.  1.
         -5    1    3    3    0  502  0.47623601231E+02 -0.82137341422E+01  0.56034694968E+02  0.74113644243E+02  0.41800000000E+01 0.  1.
        -11    1    1    2    0    0  0.40664427606E+02 -0.59968621849E+02  0.14648840327E+03  0.16342791552E+03  0.00000000000E+00 0.  1.
         11    1    1    2    0    0 -0.49222484580E+02 -0.30097542835E+02  0.10722980847E+03  0.12176595130E+03  0.00000000000E+00 0. -1.
</event>
<event>
 7    1  0.3056346E-009  0.1669627E+03  0.7561462E-02  0.1181053E+00
         -1   -1    0    0    0  501 -0.00000000000E+00  0.00000000000E+00  0.40410669225E+03  0.40410669225E+03  0.00000000000E+00 0.  1.
          1   -1    0    0  501    0  0.00000000000E+00 -0.00000000000E+00 -0.81486350064E+02  0.81486350064E+02  0.00000000000E+00 0. -1.
         25    2    1    2    0    0 -0.18176025774E+02 -0.13646114052E+03  0.10874127485E+03  0.21546234356E+03  0.12508935147E+03 0.  0.
          5    1    3    3  502    0  0.42873925320E+02 -0.31933872797E+02  0.14319479306E+01  0.53642041152E+02  0.41800000000E+01 0.  1.
         -5    1    3    3    0  502 -0.61049951094E+02 -0.10452726773E+03  0.10730932692E+03  0.16182030241E+03  0.41800000000E+01 0.  1.
        -11    1    1    2    0    0 -0.29591758915E+02  0.79572998233E+02  0.78083134361E+02  0.11534517812E+03  0.00000000000E+00 0.  1.
         11    1    1    2    0    0  0.47767784689E+02  0.56888142289E+02  0.13579593297E+03  0.15478552064E+03  0.00000000000E+00 0. -1.
</event>
<event>
 7    1  0.3056346E-009  0.6532539E+02  0.7561462E-02  0.1376752E+00
          1   -1    0    0  501    0  0.00000000000E+00  0.00000000000E+00  0.96578919819E+02  0.96578919819E+02  0.00000000000E+00 0. -1.
         -1   -1    0    0    0  501 -0.00000000000E+00 -0.00000000000E+00 -0.16566413416E+03  0.16566413416E+03  0.00000000000E+00 0.  1.
         25    2    1    2    0    0  0.50173014482E+02 -0.25073746061E+02 -0.68254275682E+02  0.15313874460E+03  0.12508718889E+03 0.  0.
          5    1    3    3  502    0  0.36395422134E+02  0.84664497210E+01 -0.98692660630E+02  0.10561259956E+03  0.41800000000E+01 0.  1.
         -5    1    3    3    0  502  0.13777592348E+02 -0.33540195782E+02  0.30438384948E+02  0.47526145039E+02  0.41800000000E+01 0.  1.
        -11    1    1    2    0    0 -0.88427600789E+01  0.76696520951E+01  0.44097555634E+02  0.45624690486E+02  0.00000000000E+00 0. -1.
         11    1    1    2    0    0 -0.41330254403E+02  0.17404093966E+02 -0.44928494295E+02  0.63479618898E+02  0.00000000000E+00 0.  1.
</event>
<event>
 7    1  0.3056346E-009  0.8605665E+02  0.7561462E-02  0.1312692E+00
          1   -1    0    0  501    0  0.00000000000E+00  0.00000000000E+00  0.42967350487E+02  0.42967350487E+02  0.00000000000E+00 0. -1.
         -1   -1    0    0    0  501 -0.00000000000E+00 -0.00000000000E+00 -0.28698895886E+03  0.28698895886E+03  0.00000000000E+00 0.  1.
         25    2    1    2    0    0  0.10644582579E+02  0.31540470224E+02 -0.16031420684E+03  0.20605098413E+03  0.12509298439E+03 0.  0.
          5    1    3    3  502    0 -0.32046750767E+02  0.50232575671E+02 -0.28507046097E+02  0.66184816766E+02  0.41800000000E+01 0. -1.
         -5    1    3    3    0  502  0.42691333346E+02 -0.18692105446E+02 -0.13180716074E+03  0.13986616736E+03  0.41800000000E+01 0. -1.
        -11    1    1    2    0    0 -0.33999797056E+02 -0.16316310501E+02 -0.87960237953E+02  0.95703770297E+02  0.00000000000E+00 0.  1.
         11    1    1    2    0    0  0.23355214477E+02 -0.15224159723E+02  0.42528364200E+01  0.28201554924E+02  0.00000000000E+00 0. -1.
</event>
<event>
 7    1  0.3056346E-009  0.1993619E+03  0.7561462E-02  0.1150278E+00
          2   -1    0    0  501    0  0.00000000000E+00  0.00000000000E+00  0.97144250589E+03  0.97144250589E+03  0.00000000000E+00 0. -1.
         -2   -1    0    0    0  501 -0.00000000000E+00 -0.00000000000E+00 -0.47087900617E+02  0.47087900617E+02  0.00000000000E+00 0.  1.
         25    2    1    2    0    0 -0.53996579030E+02  0.17154718581E+03  0.37218015184E+03  0.43186891036E+03  0.12509445553E+03 0.  0.
          5    1    3    3  502    0 -0.25612497980E+01  0.15983937908E+03  0.31904702828E+03  0.35688046424E+03  0.41800000000E+01 0.  1.
         -5    1    3    3    0  502 -0.51435329232E+02  0.11707806733E+02  0.53133123565E+02  0.74988446120E+02  0.41800000000E+01 0.  1.
        -11    1    1    2    0    0  0.35445935563E+02 -0.41709088507E+02  0.27003787188E+03  0.27552951686E+03  0.00000000000E+00 0. -1.
         11    1    1    2    0    0  0.18550643467E+02 -0.12983809730E+03  0.28213658155E+03  0.31113197928E+03  0.00000000000E+00 0.  1.
</event>
<event>
 7    1  0.3056346E-009  0.1066662E+03  0.7561462E-02  0.1266871E+00
         -2   -1    0    0    0  501 -0.00000000000E+00  0.00000000000E+00  0.91054691076E+02  0.91054691076E+02  0.00000000000E+00 0.  1.
          2   -1    0    0  501    0  0.00000000000E+00 -0.00000000000E+00 -0.21060375485E+03  0.21060375485E+03  0.00000000000E+00 0. -1.
         25    2    1    2    0    0 -0.23245766500E+02  0.59839090810E+02 -0.12569923052E+03  0.18859780372E+03  0.12509097715E+03 0.  0.
          5    1    3    3  502    0 -0.91997827593E+01  0.77374561497E+02 -0.14096069526E+03  0.16111749991E+03  0.41800000000E+01 0. -1.
         -5    1    3    3    0  502 -0.14045983741E+02 -0.17535470687E+02  0.15261464739E+02  0.27480303809E+02  0.41800000000E+01 0. -1.
        -11    1    1    2    0    0 -0.27676066573E+02  0.68782971267E+01  0.59417410729E+01  0.29130395110E+02  0.00000000000E+00 0.  1.
         11    1    1    2    0    0  0.50921833073E+02 -0.66717387937E+02  0.20842567161E+00  0.83930247098E+02  0.00000000000E+00 0. -1.
</event>
<event>
 7    1  0.3056346E-009  0.1078653E+03  0.7561462E-02  0.1264575E+00
          2   -1    0    0  501    0  0.00000000000E+00  0.00000000000E+00  0.76149418588E+03  0.76149418588E+03  0.00000000000E+00 0. -1.
         -2   -1    0    0    0  501 -0.00000000000E+00 -0.00000000000E+00 -0.18974275664E+02  0.18974275664E+02  0.00000000000E+00 0.  1.
         25    2    1    2    0    0  0.33166739490E+01 -0.37026153640E+02  0.42722821046E+03  0.44671394011E+03  0.12508982409E+03 0.  0.
          5    1    3    3  502    0 -0.86142423232E+01  0.45743022182E+02  0.15791118332E+03  0.16468164277E+03  0.41800000000E+01 0.  1.
         -5    1    3    3    0  502  0.11930916272E+02 -0.82769175823E+02  0.26931702715E+03  0.28203229734E+03  0.41800000000E+01 0.  1.
        -11    1    1    2    0    0 -0.35754241198E+02 -0.37873613775E+00  0.38394250026E+02  0.52465489989E+02  0.00000000000E+00 0.  1.
         11    1    1    2    0    0  0.32437567249E+02  0.37404889778E+02  0.27689744972E+03  0.28128903144E+03  0.00000000000E+00 0. -1.
</event>
<event>
 7    1  0.3056346E-009  0.1126646E+03  0.7561462E-02  0.1255714E+00
          2   -1    0    0  501    0  0.00000000000E+00  0.00000000000E+00  0.24989365171E+03  0.24989365171E+03  0.00000000000E+00 0.  1.
         -2   -1    0    0    0  501 -0.00000000000E+00 -0.00000000000E+00 -0.71451008952E+02  0.71451008952E+02  0.00000000000E+00 0. -1.
         25    2    1    2    0    0 -0.51924431114E+02 -0.45172778808E+02  0.13793833196E+03  0.19852304367E+03  0.12509072290E+03 0.  0.
          5    1    3    3  502    0  0.18107416092E+02 -0.49744422268E+02  0.11133918511E+03  0.12335425654E+03  0.41800000000E+01 0. -1.
         -5    1    3    3    0  502 -0.70031847206E+02  0.45716434598E+01  0.26599146847E+02  0.75168787139E+02  0.41800000000E+01 0. -1.
        -11    1    1    2    0    0  0.58634806113E+02  0.61072765186E+02  0.54425937027E+02  0.10064842650E+03  0.00000000000E+00 0.  1.
         11    1    1    2    0    0 -0.67103749993E+01 -0.15899986378E+02 -0.13921626229E+02  0.22173190486E+02  0.00000000000E+00 0. -1.
</event>
<event>
 7    1  0.3056346E-009  0.1343580E+03  0.7561462E-02  0.1221129E+00
         -1   -1    0    0    0  501 -0.00000000000E+00  0.00000000000E+00  0.42179376685E+03  0.42179376685E+03  0.00000000000E+00 0.  1.
          1   -1    0    0  501    0  0.00000000000E+00 -0.00000000000E+00 -0.48749001684E+02  0.48749001684E+02  0.00000000000E+00 0. -1.
         25    2    1    2    0    0 -0.94172546180E+02  0.37433148626E+01  0.19959894660E+03  0.25371058048E+03  0.12508732272E+03 0.  0.
          5    1    3    3  502    0 -0.42160987176E+02  0.62651953376E+02  0.11948980682E+03  0.14141464717E+03  0.41800000000E+01 0. -1.
         -5    1    3    3    0  502 -0.52011559004E+02 -0.58908638513E+02  0.80109139782E+02  0.11229593331E+03  0.41800000000E+01 0. -1.
        -11    1    1    2    0    0  0.71911834944E+01 -0.24021276817E+02  0.94034551146E+02  0.97320253130E+02  0.00000000000E+00 0.  1.
         11    1    1    2    0    0  0.86981362686E+02  0.20277961955E+02  0.79411267424E+02  0.11951193493E+03  0.00000000000E+00 0. -1.
</event>
<event>
 7    1  0.3056346E-009  0.1688787E+03  0.7561462E-02  0.1179022E+00
         -2   -1    0    0    0  501 -0.00000000000E+00  0.00000000000E+00  0.11394671330E+03  0.11394671330E+03  0.00000000000E+00 0.  1.
          2   -1    0    0  501    0  0.00000000000E+00 -0.00000000000E+00 -0.28410269500E+03  0.28410269500E+03  0.00000000000E+00 0. -1.
         25    2    1    2    0    0 -0.62187728453E+02 -0.12118604177E+03 -0.47664073112E+02  0.19097484816E+03  0.12508460527E+03 0.  0.
          5    1    3    3  502    0  0.27021322203E+02 -0.60879258855E+02  0.11985668017E+02  0.67805343817E+02  0.41800000000E+01 0. -1.
         -5    1    3    3    0  502 -0.89209050655E+02 -0.60306782917E+02 -0.59649741129E+02  0.12316950435E+03  0.41800000000E+01 0. -1.
        -11    1    1    2    0    0  0.45714171928E+02  0.13451289322E+03 -0.11956132884E+03  0.18568364309E+03  0.00000000000E+00 0.  1.
         11    1    1    2    0    0  0.16473556525E+02 -0.13326851453E+02 -0.29305797522E+01  0.21390917042E+02  0.00000000000E+00 0. -1.
</event>
<event>
 7    1  0.3056346E-009  0.3731818E+03  0.7561462E-02  0.1053483E+00
         -2   -1    0    0    0  501 -0.00000000000E+00  0.00000000000E+00  0.21982452693E+03  0.21982452693E+03  0.00000000000E+00 0.  1.
          2   -1    0    0  501    0  0.00000000000E+00 -0.00000000000E+00 -0.92796989977E+03  0.92796989977E+03  0.00000000000E+00 0. -1.
         25    2    1    2    0    0  0.27253462956E+03 -0.23639502151E+03 -0.41697895267E+02  0.38411546649E+03  0.12509295192E+03 0.  0.
          5    1    3    3  502    0  0.28090189494E+03 -0.24212327531E+03 -0.40800156275E+02  0.37311081488E+03  0.41800000000E+01 0.  1.
         -5    1    3    3    0  502 -0.83672653846E+01  0.57282538005E+01 -0.89773899179E+00  0.11004651604E+02  0.41800000000E+01 0.  1.
        -11    1    1    2    0    0 -0.84178837580E+02  0.10635572331E+03 -0.17384957013E+03  0.22050235739E+03  0.00000000000E+00 0.  1.
         11    1    1    2    0    0 -0.18835579198E+03  0.13003929820E+03 -0.49259790744E+03  0.54317660283E+03  0.00000000000E+00 0. -1.
</event>
<event>
 7    1  0.3056346E-009  0.1595279E+03  0.7561462E-02  0.1189231E+00
          2   -1    0    0  501    0  0.00000000000E+00  0.00000000000E+00  0.11403209804E+03  0.11403209804E+03  0.00000000000E+00 0. -1.
         -2   -1    0    0    0  501 -0.00000000000E+00 -0.00000000000E+00 -0.30758878952E+03  0.30758878952E+03  0.00000000000E+00 0.  1.
         25    2    1    2    0    0  0.12570455109E+03 -0.83155461155E+02 -0.12762059076E+03  0.23377520895E+03  0.12508944099E+03 0.  0.
          5    1    3    3  502    0  0.85031477543E+02 -0.91214442429E+02 -0.14261000650E+03  0.18948750100E+03  0.41800000000E+01 0. -1.
         -5    1    3    3    0  502  0.40673073548E+02  0.80589812736E+01  0.14989415739E+02  0.44287707947E+02  0.41800000000E+01 0. -1.
        -11    1    1    2    0    0 -0.40796203392E+02  0.14093712182E+02  0.21067746139E+02  0.48029291705E+02  0.00000000000E+00 0. -1.
         11    1    1    2    0    0 -0.84908347699E+02  0.69061748973E+02 -0.87003846855E+02  0.13981638691E+03  0.00000000000E+00 0.  1.
</event>
<event>
 7    1  0.3056346E-009  0.1306287E+03  0.7561462E-02  0.1226526E+00
         -2   -1    0    0    0  501 -0.00000000000E+00  0.00000000000E+00  0.60598763239E+02  0.60598763239E+02  0.00000000000E+00 0.  1.
          2   -1    0    0  501    0  0.00000000000E+00 -0.00000000000E+00 -0.30441582377E+03  0.30441582377E+03  0.00000000000E+00 0. -1.
         25    2    1    2    0    0  0.19837257008E+02 -0.81593648876E+02 -0.14165403745E+03  0.20679557535E+03  0.12508998104E+03 0.  0.
          5    1    3    3  502    0  0.66593378806E+02 -0.55193371792E+02 -0.48652722150E+02  0.99325455767E+02  0.41800000000E+01 0.  1.
         -5    1    3    3    0  502 -0.46756121798E+02 -0.26400277084E+02 -0.93001315301E+02  0.10747011958E+03  0.41800000000E+01 0.  1.
        -11    1    1    2    0    0 -0.22943711488E+02 -0.12859951009E+02 -0.22958132423E+02  0.34912291262E+02  0.00000000000E+00 0.  1.
         11    1    1    2    0    0  0.31064544805E+01  0.94453599885E+02 -0.79204890653E+02  0.12330672039E+03  0.00000000000E+00 0. -1.
</event>
<event>
 7    1  0.3056346E-009  0.1229833E+03  0.7561462E-02  0.1238255E+00
         -2   -1    0    0    0  501 -0.00000000000E+00  0.00000000000E+00  0.40458106308E+02  0.40458106308E+02  0.00000000000E+00 0.  1.
          2   -1    0    0  501    0  0.00000000000E+00 -0.00000000000E+00 -0.46624816999E+03  0.46624816999E+03  0.00000000000E+00 0. -1.
         25    2    1    2    0    0  0.11241515210E+02 -0.77886815705E+02 -0.29291848121E+03  0.32808724489E+03  0.12508907188E+03 0.  0.
          5    1    3    3  502    0 -0.33827826968E+02  0.27819075393E+01 -0.17452221038E+03  0.17784132029E+03  0.41800000000E+01 0.  1.
         -5    1    3    3    0  502  0.45069342178E+02 -0.80668723244E+02 -0.11839627083E+03  0.15024592460E+03  0.41800000000E+01 0.  1.
        -11    1    1    2    0    0 -0.33254666314E+02 -0.48923633082E+01 -0.34139105210E+02  0.47909148969E+02  0.00000000000E+00 0. -1.
         11    1    1    2    0    0  0.22013151104E+02  0.82779179013E+02 -0.98732477270E+02  0.13070988244E+03  0.00000000000E+00 0.  1.
</event>
<event>
 7    1  0.3056346E-009  0.1026109E+03  0.7561462E-02  0.1274900E+00
         -4   -1    0    0    0  501 -0.00000000000E+00  0.00000000000E+00  0.43302759853E+03  0.43302759853E+03  0.00000000000E+00 0.  1.
          4   -1    0    0  501    0  0.00000000000E+00 -0.00000000000E+00 -0.31035543544E+02  0.31035543544E+02  0.00000000000E+00 0. -1.
         25    2    1    2    0    0 -0.32779416825E+02 -0.27838617953E+02  0.25170617827E+03  0.28434902407E+03  0.12509551746E+03 0.  0.
          5    1    3    3  502    0  0.31938848205E+02 -0.31141668465E+02  0.18842112848E+03  0.19367469529E+03  0.41800000000E+01 0. -1.
         -5    1    3    3    0  502 -0.64718265030E+02  0.33030505122E+01  0.63285049797E+02  0.90674328777E+02  0.41800000000E+01 0. -1.
        -11    1    1    2    0    0  0.61815819594E+02  0.14325215677E+02  0.11943669660E+03  0.13524618979E+03  0.00000000000E+00 0.  1.
         11    1    1    2    0    0 -0.29036402768E+02  0.13513402276E+02  0.30849180109E+02  0.44467928220E+02  0.00000000000E+00 0. -1.
</event>
<event>
 7    1  0.3056346E-009  0.2179698E+03  0.7561462E-02  0.1135406E+00
         -2   -1    0    0    0  501 -0.00000000000E+00  0.00000000000E+00  0.76971673748E+02  0.76971673748E+02  0.00000000000E+00 0.  1.
          2   -1    0    0  501    0  0.00000000000E+00 -0.00000000000E+00 -0.77019187825E+03  0.77019187825E+03  0.00000000000E+00 0. -1.
         25    2    1    2    0    0  0.12150933587E+03 -0.18005593293E+03 -0.37512978898E+03  0.45117084225E+03  0.12509241635E+03 0.  0.
          5    1    3    3  502    0  0.59319716377E+02 -0.10874208163E+03 -0.31619533029E+03  0.33961835693E+03  0.41800000000E+01 0.  1.
         -5    1    3    3    0  502  0.62189619493E+02 -0.71313851295E+02 -0.58934458695E+02  0.11155248532E+03  0.41800000000E+01 0.  1.
        -11    1    1    2    0    0 -0.71542208363E+02  0.10129017795E+03 -0.10178179760E+03  0.16042918079E+03  0.00000000000E+00 0.  1.
         11    1    1    2    0    0 -0.49967127507E+02  0.78765754977E+02 -0.21630861792E+03  0.23556352895E+03  0.00000000000E+00 0. -1.
</event>
<event>
 7    1  0.3056346E-009  0.8366691E+02  0.7561462E-02  0.1318956E+00
          1   -1    0    0  501    0  0.00000000000E+00  0.00000000000E+00  0.78384452696E+03  0.78384452696E+03  0.00000000000E+00 0. -1.
         -1   -1    0    0    0  501 -0.00000000000E+00 -0.00000000000E+00 -0.18679155472E+02  0.18679155472E+02  0.00000000000E+00 0.  1.
         25    2    1    2    0    0 -0.39724189917E+02 -0.24275411938E+02  0.52078716853E+03  0.53761666330E+03  0.12508035361E+03 0.  0.
          5    1    3    3  502    0 -0.78046741661E+01  0.17713338983E+02  0.68362267922E+01  0.20949503897E+02  0.41800000000E+01 0. -1.
         -5    1    3    3    0  502 -0.31919515751E+02 -0.41988750921E+02  0.51395094174E+03  0.51666715940E+03  0.41800000000E+01 0. -1.
        -11    1    1    2    0    0  0.61621343582E+02  0.34316448125E+02  0.12882608316E+03  0.14687058351E+03  0.00000000000E+00 0.  1.
         11    1    1    2    0    0 -0.21897153665E+02 -0.10041036187E+02  0.11555211980E+03  0.11803643563E+03  0.00000000000E+00 0. -1.
</event>
<event>
 7    1  0.3056346E-009  0.1048356E+03  0.7561462E-02  0.1270444E+00
         -1   -1    0    0    0  501 -0.00000000000E+00  0.00000000000E+00  0.42024649836E+03  0.42024649836E+03  0.00000000000E+00 0.  1.
          1   -1    0    0  501    0  0.00000000000E+00 -0.00000000000E+00 -0.66041097128E+02  0.66041097128E+02  0.00000000000E+00 0. -1.
         25    2    1    2    0    0 -0.52891461801E+02 -0.40754501319E+02  0.34140164050E+03  0.36967766485E+03  0.12509220456E+03 0.  0.
          5    1    3    3  502    0 -0.37304493532E+02  0.28123458479E+02  0.24860385026E+03  0.25298992257E+03  0.41800000000E+01 0. -1.
         -5    1    3    3    0  502 -0.15586968269E+02 -0.68877959799E+02  0.92797790241E+02  0.11668774228E+03  0.41800000000E+01 0. -1.
        -11    1    1    2    0    0  0.86148879867E+01  0.46576000961E+02  0.41958754136E+02  0.63277778163E+02  0.00000000000E+00 0.  1.
         11    1    1    2    0    0  0.44276573814E+02 -0.58214996416E+01 -0.29154993409E+02  0.53332152474E+02  0.00000000000E+00 0. -1.
</event>
<event>
 7    1  0.3056346E-009  0.2978416E+03  0.7561462E-02  0.1086325E+00
         -2   -1    0    0    0  501 -0.00000000000E+00  0.00000000000E+00  0.96357742180E+02  0.96357742180E+02  0.00000000000E+00 0.  1.
          2   -1    0    0  501    0  0.00000000000E+00 -0.00000000000E+00 -0.12137857524E+04  0.12137857524E+04  0.00000000000E+00 0. -1.
         25    2    1    2    0    0 -0.25277909091E+03  0.12833474225E+03 -0.86656173203E+03  0.92028959438E+03  0.12504650029E+03 0.  0.
          5    1    3    3  502    0 -0.91073949371E+02  0.10657397696E+03 -0.30919354697E+03  0.33951524076E+03  0.41800000000E+01 0.  1.
         -5    1    3    3    0  502 -0.16170514154E+03  0.21760765287E+02 -0.55736818506E+03  0.58077435362E+03  0.41800000000E+01 0.  1.
        -11    1    1    2    0    0  0.16983152011E+03 -0.12183955557E+03 -0.21305772783E+03  0.29846476829E+03  0.00000000000E+00 0.  1.
         11    1    1    2    0    0  0.82947570804E+02 -0.64951866812E+01 -0.37808550377E+02  0.91389131925E+02  0.00000000000E+00 0. -1.
</event>
<event>
 7    1  0.3056346E-009  0.1175755E+03  0.7561462E-02  0.1247151E+00
         -1   -1    0    0    0  501 -0.00000000000E+00  0.00000000000E+00  0.20542922858E+02  0.20542922858E+02  0.00000000000E+00 0.  1.
          1   -1    0    0  501    0  0.00000000000E+00 -0.00000000000E+00 -0.77893204619E+03  0.77893204619E+03  0.00000000000E+00 0. -1.
         25    2    1    2    0    0 -0.12171773814E+02 -0.59216646841E+02 -0.49719109381E+03  0.51623763498E+03  0.12509016215E+03 0.  0.
          5    1    3    3  502    0 -0.52200951116E+02 -0.67168892295E+02 -0.21797696772E+03  0.23402570424E+03  0.41800000000E+01 0.  1.
         -5    1    3    3    0  502  0.40029177302E+02  0.79522454534E+01 -0.27921412609E+03  0.28221193073E+03  0.41800000000E+01 0.  1.
        -11    1    1    2    0    0  0.56817419609E+01 -0.24417442628E+02 -0.73176135381E+02  0.77351409072E+02  0.00000000000E+00 0.  1.
         11    1    1    2    0    0  0.64900318533E+01  0.83634089469E+02 -0.18802189414E+03  0.20588592499E+03  0.00000000000E+00 0. -1.
</event>
<event>
 7    1  0.3056346E-009  0.1059603E+03  0.7561462E-02  0.1268239E+00
         -1   -1    0    0    0  501 -0.00000000000E+00  0.00000000000E+00  0.10008075178E+03  0.10008075178E+03  0.00000000000E+00 0.  1.
          1   -1    0    0  501    0  0.00000000000E+00 -0.00000000000E+00 -0.12094212415E+03  0.12094212415E+03  0.00000000000E+00 0. -1.
         25    2    1    2    0    0 -0.30153268045E+01  0.44941084595E+01  0.13100727618E+02  0.12589028062E+03  0.12508974572E+03 0.  0.
          5    1    3    3  502    0 -0.53764394425E+02 -0.30641702409E+02  0.15661042796E+02  0.63970811281E+02  0.41800000000E+01 0. -1.
         -5    1    3    3    0  502  0.50749067621E+02  0.35135810869E+02 -0.25603151778E+01  0.61919469342E+02  0.41800000000E+01 0. -1.
        -11    1    1    2    0    0  0.32266253997E+02  0.29125002974E+02 -0.10272972368E+02  0.44664425515E+02  0.00000000000E+00 0.  1.
         11    1    1    2    0    0 -0.29250927193E+02 -0.33619111433E+02 -0.23689127623E+02  0.50468169798E+02  0.00000000000E+00 0. -1.
</event>
<event>
 7    1  0.3056346E-009  0.1634549E+03  0.7561462E-02  0.1184850E+00
          1   -1    0    0  501    0  0.00000000000E+00  0.00000000000E+00  0.38844631211E+03  0.38844631211E+03  0.00000000000E+00 0. -1.
         -1   -1    0    0    0  501 -0.00000000000E+00 -0.00000000000E+00 -0.17744045176E+03  0.17744045176E+03  0.00000000000E+00 0.  1.
         25    2    1    2    0    0 -0.13660963509E+03 -0.92498829840E+01  0.31927814458E+03  0.36923085032E+03  0.12508051201E+03 0.  0.
          5    1    3    3  502    0 -0.15210318561E+01 -0.31535296089E+02  0.14313959816E+02  0.34916332610E+02  0.41800000000E+01 0. -1.
         -5    1    3    3    0  502 -0.13508860324E+03  0.22285413105E+02  0.30496418476E+03  0.33431451771E+03  0.41800000000E+01 0. -1.
        -11    1    1    2    0    0  0.76315354900E+02  0.44400569936E+02 -0.86358834637E+02  0.12350421986E+03  0.00000000000E+00 0.  1.
         11    1    1    2    0    0  0.60294280195E+02 -0.35150686952E+02 -0.21913449583E+02  0.73151693693E+02  0.00000000000E+00 0. -1.
</event>
<event>
 7    1  0.3056346E-009  0.2756150E+03  0.7561462E-02  0.1098108E+00
          2   -1    0    0  501    0  0.00000000000E+00  0.00000000000E+00  0.32368472325E+03  0.32368472325E+03  0.00000000000E+00 0. -1.
         -2   -1    0    0    0  501 -0.00000000000E+00 -0.00000000000E+00 -0.28020418101E+03  0.28020418101E+03  0.00000000000E+00 0.  1.
         25    2    1    2    0    0  0.27527346208E+03 -0.20068701135E+01 -0.33323731619E+02  0.30419775060E+03  0.12508514671E+03 0.  0.
          5    1    3    3  502    0  0.29823176996E+02  0.36753102081E+01 -0.49561568208E+02  0.58109820465E+02  0.41800000000E+01 0. -1.
         -5    1    3    3    0  502  0.24545028509E+03 -0.56821803216E+01  0.16237836589E+02  0.24608793014E+03  0.41800000000E+01 0. -1.
        -11    1    1    2    0    0 -0.11464695362E+03  0.36581469660E+01 -0.13361288910E+02  0.11548086446E+03  0.00000000000E+00 0.  1.
         11    1    1    2    0    0 -0.16062650846E+03 -0.16512768525E+01  0.90165562779E+02  0.18421028920E+03  0.00000000000E+00 0. -1.
</event>
<event>
 7    1  0.3056346E-009  0.1149956E+03  0.7561462E-02  0.1251589E+00
         -2   -1    0    0    0  501 -0.00000000000E+00  0.00000000000E+00  0.13099143156E+02  0.13099143156E+02  0.00000000000E+00 0.  1.
          2   -1    0    0  501    0  0.00000000000E+00 -0.00000000000E+00 -0.12943581585E+04  0.12943581585E+04  0.00000000000E+00 0. -1.
         25    2    1    2    0    0 -0.64670392692E+02  0.86602797528E+01 -0.84430043700E+03  0.85600768546E+03  0.12509464223E+03 0.  0.
          5    1    3    3  502    0 -0.35278167603E+01  0.45222152188E+02 -0.59368472646E+03  0.59542968969E+03  0.41800000000E+01 0.  1.
         -5    1    3    3    0  502 -0.61142575932E+02 -0.36561872436E+02 -0.25061571055E+03  0.26057799577E+03  0.41800000000E+01 0.  1.
        -11    1    1    2    0    0  0.12383959111E+02  0.39863911030E+02 -0.17967340070E+03  0.18445873458E+03  0.00000000000E+00 0.  1.
         11    1    1    2    0    0  0.52286433581E+02 -0.48524190783E+02 -0.25728517768E+03  0.26699088164E+03  0.00000000000E+00 0. -1.
</event>
<event>
 7    1  0.3056346E-009  0.1047056E+03  0.7561462E-02  0.1270701E+00
          1   -1    0    0  501    0  0.00000000000E+00  0.00000000000E+00  0.24240353889E+03  0.24240353889E+03  0.00000000000E+00 0. -1.
         -1   -1    0    0    0  501 -0.00000000000E+00 -0.00000000000E+00 -0.60023227515E+02  0.60023227515E+02  0.00000000000E+00 0.  1.
         25    2    1    2    0    0  0.46765575161E+02 -0.18868032621E+02  0.75934095075E+02  0.15478177750E+03  0.12509352571E+03 0.  0.
          5    1    3    3  502    0 -0.14918199166E+02 -0.45365274128E+02 -0.65115996834E+01  0.48378033172E+02  0.41800000000E+01 0.  1.
         -5    1    3    3    0  502  0.61683774328E+02  0.26497241507E+02  0.82445694758E+02  0.10640374433E+03  0.41800000000E+01 0.  1.
        -11    1    1    2    0    0  0.13656867620E+01  0.41148520744E+02  0.76141276834E+02  0.86559574269E+02  0.00000000000E+00 0. -1.
         11    1    1    2    0    0 -0.48131261923E+02 -0.22280488123E+02  0.30304939468E+02  0.61085414638E+02  0.00000000000E+00 0.  1.
</event>
<event>
 7    1  0.3056346E-009  0.9586644E+02  0.7561462E-02  0.1289236E+00
          3   -1    0    0  501    0  0.00000000000E+00  0.00000000000E+00  0.11059102523E+03  0.11059102523E+03  0.00000000000E+00 0. -1.
         -3   -1    0    0    0  501 -0.00000000000E+00 -0.00000000000E+00 -0.15366279081E+03  0.15366279081E+03  0.00000000000E+00 0.  1.
         25    2    1    2    0    0  0.45358332457E+02 -0.23918149228E+02 -0.77240682437E+02  0.15569719888E+03  0.12508412581E+03 0.  0.
          5    1    3    3  502    0  0.45989652449E+02  0.21881388859E+02  0.14460673075E+02  0.53107690371E+02  0.41800000000E+01 0. -1.
         -5    1    3    3    0  502 -0.63131999197E+00 -0.45799538087E+02 -0.91701355512E+02  0.10258950851E+03  0.41800000000E+01 0. -1.
        -11    1    1    2    0    0  0.16771452837E+02  0.27712212189E+02  0.33084657989E+02  0.46301651470E+02  0.00000000000E+00 0.  1.
         11    1    1    2    0    0 -0.62129785294E+02 -0.37940629607E+01  0.10842588661E+01  0.62254965679E+02  0.00000000000E+00 0. -1.
</event>
<event>
 7    1  0.3056346E-009  0.1007523E+03  0.7561462E-02  0.1278722E+00
         -2   -1    0    0    0  501 -0.00000000000E+00  0.00000000000E+00  0.24550727393E+03  0.24550727393E+03  0.00000000000E+00 0.  1.
          2   -1    0    0  501    0  0.00000000000E+00 -0.00000000000E+00 -0.65047656056E+02  0.65047656056E+02  0.00000000000E+00 0. -1.
         25    2    1    2    0    0  0.88697739884E+01  0.51673890452E+02  0.14509112273E+03  0.19861384443E+03  0.12508861443E+03 0.  0.
          5    1    3    3  502    0 -0.44872090903E+02  0.27990521271E+02  0.13938862110E+02  0.54851965325E+02  0.41800000000E+01 0.  1.
         -5    1    3    3    0  502  0.53741864892E+02  0.23683369181E+02  0.13115226062E+03  0.14376187911E+03  0.41800000000E+01 0.  1.
        -11    1    1    2    0    0 -0.31381804000E+02  0.19252451860E+01 -0.15170661773E+02  0.34909499710E+02  0.00000000000E+00 0. -1.
         11    1    1    2    0    0  0.22512030012E+02 -0.53599135638E+02  0.50539156917E+02  0.77031585848E+02  0.00000000000E+00 0.  1.
</event>
<event>
 7    1  0.3056346E-009  0.1000575E+03  0.7561462E-02  0.1280175E+00
         -1   -1    0    0    0  501 -0.00000000000E+00  0.00000000000E+00  0.78181513714E+02  0.78181513714E+02  0.00000000000E+00 0.  1.
          1   -1    0    0  501    0  0.00000000000E+00 -0.00000000000E+00 -0.21185130496E+03  0.21185130496E+03  0.00000000000E+00 0. -1.
         25    2    1    2    0    0 -0.71132877084E+02  0.31719107188E+02 -0.84721775198E+02  0.16997702846E+03  0.12509365711E+03 0.  0.
          5    1    3    3  502    0 -0.20783081359E+02 -0.17738883323E+02 -0.94630291470E+02  0.98584831064E+02  0.41800000000E+01 0.  1.
         -5    1    3    3    0  502 -0.50349795725E+02  0.49457990511E+02  0.99085162711E+01  0.71392197400E+02  0.41800000000E+01 0.  1.
        -11    1    1    2    0    0  0.54945858717E+02 -0.52117219972E+02 -0.14886805746E+02  0.77180755328E+02  0.00000000000E+00 0.  1.
         11    1    1    2    0    0  0.16187018368E+02  0.20398112784E+02 -0.34061210299E+02  0.42875034878E+02  0.00000000000E+00 0. -1.
</event>
<event>
 7    1  0.3056346E-009  0.8275771E+02  0.7561462E-02  0.1321403E+00
         -4   -1    0    0    0  501 -0.00000000000E+00  0.00000000000E+00  0.17207191760E+03  0.17207191760E+03  0.00000000000E+00 0. -1.
          4   -1    0    0  501    0  0.00000000000E+00 -0.00000000000E+00 -0.90576308308E+02  0.90576308308E+02  0.00000000000E+00 0.  1.
         25    2    1    2    0    0 -0.78384539361E+01  0.21873446733E+02  0.11582348149E+03  0.17205518846E+03  0.12509204603E+03 0.  0.
          5    1    3    3  502    0 -0.38554675302E+02  0.30907382760E+02  0.12821435792E+03  0.13747044509E+03  0.41800000000E+01 0. -1.
         -5    1    3    3    0  502  0.30716221365E+02 -0.90339360267E+01 -0.12390876432E+02  0.34584743369E+02  0.41800000000E+01 0. -1.
        -11    1    1    2    0    0 -0.31834235703E+02  0.93181982037E+01 -0.16699450297E+02  0.37136491768E+02  0.00000000000E+00 0.  1.
         11    1    1    2    0    0  0.39672689640E+02 -0.31191644937E+02 -0.17628421902E+02  0.53456545678E+02  0.00000000000E+00 0. -1.
</event>
<event>
 7    1  0.3056346E-009  0.9041872E+02  0.7561462E-02  0.1301841E+00
         -2   -1    0    0    0  501 -0.00000000000E+00  0.00000000000E+00  0.47440421844E+02  0.47440421844E+02  0.00000000000E+00 0.  1.
          2   -1    0    0  501    0  0.00000000000E+00 -0.00000000000E+00 -0.39024309662E+03  0.39024309662E+03  0.00000000000E+00 0. -1.
         25    2    1    2    0    0  0.73052236079E+02  0.11693189209E+02 -0.24320700955E+03  0.28330705584E+03  0.12505949995E+03 0.  0.
          5    1    3    3  502    0  0.38748176006E+02  0.36359052458E+02 -0.23382813971E+03  0.23982592262E+03  0.41800000000E+01 0.  1.
         -5    1    3    3    0  502  0.34304060072E+02 -0.24665863249E+02 -0.93788698374E+01  0.43481133227E+02  0.41800000000E+01 0.  1.
        -11    1    1    2    0    0 -0.35410490793E+02  0.15488844742E+02 -0.10077381114E+03  0.10793131233E+03  0.00000000000E+00 0.  1.
         11    1    1    2    0    0 -0.37641745285E+02 -0.27182033951E+02  0.11781459079E+01  0.46445150292E+02  0.00000000000E+00 0. -1.
</event>
<event>
 7    1  0.3056346E-009  0.2234113E+03  0.7561462E-02  0.1131365E+00
         -2   -1    0    0    0  501 -0.00000000000E+00  0.00000000000E+00  0.71018227453E+03  0.71018227453E+03  0.00000000000E+00 0.  1.
          2   -1    0    0  501    0  0.00000000000E+00 -0.00000000000E+00 -0.75417331078E+02  0.75417331078E+02  0.00000000000E+00 0. -1.
         25    2    1    2    0    0 -0.20284256482E+03 -0.27620306899E+02  0.31616002240E+03  0.39687795937E+03  0.12508783878E+03 0.  0.
          5    1    3    3  502    0 -0.19294149007E+03 -0.57957053642E+02  0.23494932287E+03  0.30952236651E+03  0.41800000000E+01 0. -1.
         -5    1    3    3    0  502 -0.99010747563E+01  0.30336746743E+02  0.81210699537E+02  0.87355592858E+02  0.41800000000E+01 0. -1.
        -11    1    1    2    0    0  0.33397881671E+02  0.28169290449E+02  0.26708246343E+02  0.51207986167E+02  0.00000000000E+00 0. -1.
         11    1    1    2    0    0  0.16944468315E+03 -0.54898354958E+00  0.29189667471E+03  0.33751366007E+03  0.00000000000E+00 0.  1.
</event>
<event>
 7    1  0.3056346E-009  0.1366915E+03  0.7561462E-02  0.1217851E+00
          1   -1    0    0  501    0  0.00000000000E+00  0.00000000000E+00  0.11724312885E+03  0.11724312885E+03  0.00000000000E+00 0. -1.
         -1   -1    0    0    0  501 -0.00000000000E+00 -0.00000000000E+00 -0.28620864513E+03  0.28620864513E+03  0.00000000000E+00 0.  1.
         25    2    1    2    0    0  0.10073504070E+03 -0.63872157482E+02 -0.18461063433E+03  0.25289470075E+03  0.12508973753E+03 0.  0.
          5    1    3    3  502    0  0.33399181371E+02 -0.40861285634E+02  0.21599724597E+01  0.52983845282E+02  0.41800000000E+01 0. -1.
         -5    1    3    3    0  502  0.67335859330E+02 -0.23010871848E+02 -0.18677060679E+03  0.19991085547E+03  0.41800000000E+01 0. -1.
        -11    1    1    2    0    0 -0.12714162315E+02 -0.22498459083E+02  0.77775859385E+01  0.26987430917E+02  0.00000000000E+00 0.  1.
         11    1    1    2    0    0 -0.88020878385E+02  0.86370616565E+02  0.78675321090E+01  0.12356964230E+03  0.00000000000E+00 0. -1.
</event>
<event>
 7    1  0.3056346E-009  0.1069232E+03  0.7561462E-02  0.1266376E+00
          2   -1    0    0  501    0  0.00000000000E+00  0.00000000000E+00  0.74139981515E+03  0.74139981515E+03  0.00000000000E+00 0. -1.
         -2   -1    0    0    0  501 -0.00000000000E+00 -0.00000000000E+00 -0.27819511893E+02  0.27819511893E+02  0.00000000000E+00 0.  1.
         25    2    1    2    0    0  0.41780677753E+02  0.35336245741E+02  0.59789004949E+03  0.61328155152E+03  0.12508986711E+03 0.  0.
          5    1    3    3  502    0  0.54111063298E+02 -0.19254762303E+02  0.13188581820E+03  0.14391002219E+03  0.41800000000E+01 0. -1.
         -5    1    3    3    0  502 -0.12330385545E+02  0.54591008045E+02  0.46600423129E+03  0.46937152933E+03  0.41800000000E+01 0. -1.
        -11    1    1    2    0    0  0.24413208238E+02  0.13624347372E+01  0.50251690567E+02  0.55884643416E+02  0.00000000000E+00 0. -1.
         11    1    1    2    0    0 -0.66193885991E+02 -0.36698680479E+02  0.65438563196E+02  0.10005313211E+03  0.00000000000E+00 0.  1.
</event>
<event>
 7    1  0.3760449E-009  0.1486186E+03  0.7561462E-02  0.1202181E+00
          1   -1    0    0  501    0  0.00000000000E+00  0.00000000000E+00  0.46502927899E+03  0.46502927899E+03  0.00000000000E+00 0. -1.
         -1   -1    0    0    0  501 -0.00000000000E+00 -0.00000000000E+00 -0.69366822082E+02  0.69366822082E+02  0.00000000000E+00 0.  1.
         25    2    1    2    0    0 -0.10113741637E+03 -0.96238380810E+02  0.25504508287E+03  0.31652022016E+03  0.12508578073E+03 0.  0.
          5    1    3    3  502    0 -0.78951110227E+02 -0.10654872611E+03  0.11898722811E+03  0.17821711953E+03  0.41800000000E+01 0. -1.
         -5    1    3    3    0  502 -0.22186306147E+02  0.10310345298E+02  0.13605785476E+03  0.13830310063E+03  0.41800000000E+01 0. -1.
        -11    1    1    2    0    0  0.39734951271E+02  0.33769691348E+02 -0.72384517649E-01  0.52146559289E+02  0.00000000000E+00 0.  1.
         11    1    1    2    0    0  0.61402465103E+02  0.62468689462E+02  0.14068975855E+03  0.16572932162E+03  0.00000000000E+00 0. -1.
</event>
<event>
 7    1  0.3712745E-009  0.1062381E+03  0.7561462E-02  0.1267699E+00
         -2   -1    0    0    0  501 -0.00000000000E+00  0.00000000000E+00  0.33730404799E+02  0.33730404799E+02  0.00000000000E+00 0.  1.
          2   -1    0    0  501    0  0.00000000000E+00 -0.00000000000E+00 -0.69789812737E+03  0.69789812737E+03  0.00000000000E+00 0. -1.
         25    2    1    2    0    0 -0.47396914715E+02 -0.52714136543E+02 -0.55383513692E+03  0.57219421586E+03  0.12509042358E+03 0.  0.
          5    1    3    3  502    0  0.33309950274E+02  0.83585159217E+01 -0.23829790449E+03  0.24079614046E+03  0.41800000000E+01 0.  1.
         -5    1    3    3    0  502 -0.80706864989E+02 -0.61072652465E+02 -0.31553723243E+03  0.33139807541E+03  0.41800000000E+01 0.  1.
        -11    1    1    2    0    0  0.33821376226E+02  0.15950821989E+02  0.49057978483E+01  0.37714467575E+02  0.00000000000E+00 0.  1.
         11    1    1    2    0    0  0.13575538489E+02  0.36763314554E+02 -0.11523838350E+03  0.12171984873E+03  0.00000000000E+00 0. -1.
</event>
<event>
 7    1  0.3056346E-009  0.1303226E+03  0.7561462E-02  0.1226978E+00
         -1   -1    0    0    0  501 -0.00000000000E+00  0.00000000000E+00  0.37058496840E+03  0.37058496840E+03  0.00000000000E+00 0.  1.
          1   -1    0    0  501    0  0.00000000000E+00 -0.00000000000E+00 -0.76212798905E+02  0.76212798905E+02  0.00000000000E+00 0. -1.
         25    2    1    2    0    0 -0.87417619657E+02 -0.31613919043E+02  0.27161240444E+03  0.31314917976E+03  0.12509128841E+03 0.  0.
          5    1    3    3  502    0 -0.30894699022E+02 -0.77106712368E+02  0.14574247266E+03  0.16780425577E+03  0.41800000000E+01 0. -1.
         -5    1    3    3    0  502 -0.56522920635E+02  0.45492793325E+02  0.12586993178E+03  0.14534492399E+03  0.41800000000E+01 0. -1.
        -11    1    1    2    0    0  0.26903902189E+02 -0.12741761081E+02  0.46273077511E+02  0.55021542424E+02  0.00000000000E+00 0.  1.
         11    1    1    2    0    0  0.60513717468E+02  0.44355680124E+02 -0.23513312459E+02  0.78627045117E+02  0.00000000000E+00 0. -1.
</event>
<event>
 7    1  0.3944052E-009  0.1754202E+03  0.7561462E-02  0.1172310E+00
          2   -1    0    0  501    0  0.00000000000E+00  0.00000000000E+00  0.69250557715E+03  0.69250557715E+03  0.00000000000E+00 0.  1.
         -2   -1    0    0    0  501 -0.00000000000E+00 -0.00000000000E+00 -0.61353540753E+02  0.61353540753E+02  0.00000000000E+00 0. -1.
         25    2    1    2    0    0 -0.57149498355E+01  0.14824455010E+03  0.49880949958E+03  0.53522689693E+03  0.12509119489E+03 0.  0.
          5    1    3    3  502    0 -0.46537484751E+02  0.14414866858E+02  0.81250794840E+02  0.94829794556E+02  0.41800000000E+01 0.  1.
         -5    1    3    3    0  502  0.40822534915E+02  0.13382968325E+03  0.41755870474E+03  0.44039710238E+03  0.41800000000E+01 0.  1.
        -11    1    1    2    0    0  0.35465664136E+02 -0.82507268995E+02  0.11220417432E+03  0.14371861224E+03  0.00000000000E+00 0.  1.
         11    1    1    2    0    0 -0.29750714300E+02 -0.65737281109E+02  0.20138362496E+02  0.74913608730E+02  0.00000000000E+00 0. -1.
</event>
<event>
 7    1  0.3056346E-009  0.1390160E+03  0.7561462E-02  0.1214659E+00
         -2   -1    0    0    0  501 -0.00000000000E+00  0.00000000000E+00  0.75051484990E+03  0.75051484990E+03  0.00000000000E+00 0.  1.
          2   -1    0    0  501    0  0.00000000000E+00 -0.00000000000E+00 -0.37670268826E+02  0.37670268826E+02  0.00000000000E+00 0. -1.
         25    2    1    2    0    0  0.96049442888E+02  0.85495637879E+02  0.42708665156E+03  0.46323300865E+03  0.12508722071E+03 0.  0.
          5    1    3    3  502    0  0.37755368026E+02  0.49962524311E+02  0.50701397243E+02  0.80683491079E+02  0.41800000000E+01 0. -1.
         -5    1    3    3    0  502  0.58294074862E+02  0.35533113568E+02  0.37638525432E+03  0.38254951757E+03  0.41800000000E+01 0. -1.
        -11    1    1    2    0    0  0.10312482426E+02 -0.18464324247E+02  0.88840052997E+02  0.91322689296E+02  0.00000000000E+00 0.  1.
         11    1    1    2    0    0 -0.10636192531E+03 -0.67031313631E+02  0.19691787652E+03  0.23362942078E+03  0.00000000000E+00 0. -1.
</event>
<event>
 7    1  0.3056346E-009  0.1896983E+03  0.7561462E-02  0.1158734E+00
          1   -1    0    0  501    0  0.00000000000E+00  0.00000000000E+00  0.10729494099E+03  0.10729494099E+03  0.00000000000E+00 0. -1.
         -1   -1    0    0    0  501 -0.00000000000E+00 -0.00000000000E+00 -0.42066522269E+03  0.42066522269E+03  0.00000000000E+00 0.  1.
         25    2    1    2    0    0 -0.89635776816E+02 -0.15423991736E+03 -0.19227949855E+03  0.29059216552E+03  0.12509147257E+03 0.  0.
          5    1    3    3  502    0 -0.43217640885E+01  0.56580795821E+01  0.13827400429E+02  0.16104686027E+02  0.41800000000E+01 0. -1.
         -5    1    3    3    0  502 -0.85314012727E+02 -0.15989799695E+03 -0.20610689898E+03  0.27448747950E+03  0.41800000000E+01 0. -1.
        -11    1    1    2    0    0  0.44009631560E+02  0.13191535944E+03 -0.45540981670E+02  0.14633007462E+03  0.00000000000E+00 0.  1.
         11    1    1    2    0    0  0.45626145256E+02  0.22324557927E+02 -0.75549801489E+02  0.91037923541E+02  0.00000000000E+00 0. -1.
</event>
<event>
 7    1  0.3056346E-009  0.1198978E+03  0.7561462E-02  0.1243266E+00
          2   -1    0    0  501    0  0.00000000000E+00  0.00000000000E+00  0.37819048649E+03  0.37819048649E+03  0.00000000000E+00 0. -1.
         -2   -1    0    0    0  501 -0.00000000000E+00 -0.00000000000E+00 -0.64900985355E+02  0.64900985355E+02  0.00000000000E+00 0.  1.
         25    2    1    2    0    0 -0.10590515926E+03 -0.19865323446E+02  0.23607741892E+03  0.28808075647E+03  0.12508973055E+03 0.  0.
          5    1    3    3  502    0 -0.22643315541E+02  0.27307027666E+02  0.16494959317E+03  0.16877272939E+03  0.41800000000E+01 0.  1.
         -5    1    3    3    0  502 -0.83261843719E+02 -0.47172351112E+02  0.71127825750E+02  0.11930802708E+03  0.41800000000E+01 0.  1.
        -11    1    1    2    0    0  0.24762521081E+02  0.53168479638E-01 -0.16285209314E+02  0.29637700983E+02  0.00000000000E+00 0.  1.
         11    1    1    2    0    0  0.81142638179E+02  0.19812154967E+02  0.93497291525E+02  0.12537301439E+03  0.00000000000E+00 0. -1.
</event>
<event>
 7    1  0.3056346E-009  0.1067688E+03  0.7561462E-02  0.1266673E+00
          1   -1    0    0  501    0  0.00000000000E+00  0.00000000000E+00  0.68779303485E+03  0.68779303485E+03  0.00000000000E+00 0. -1.
         -1   -1    0    0    0  501 -0.00000000000E+00 -0.00000000000E+00 -0.27664621706E+02  0.27664621706E+02  0.00000000000E+00 0.  1.
         25    2    1    2    0    0 -0.48890463687E+02  0.38539823719E+02  0.22882553411E+03  0.26811205849E+03  0.12508938962E+03 0.  0.
          5    1    3    3  502    0 -0.56357149807E+02  0.62092388007E+02  0.76006688284E+02  0.11325229378E+03  0.41800000000E+01 0.  1.
         -5    1    3    3    0  502  0.74666861199E+01 -0.23552564288E+02  0.15281884583E+03  0.15485976471E+03  0.41800000000E+01 0.  1.
        -11    1    1    2    0    0 -0.24124466270E+02 -0.87604003835E+01  0.35747848666E+02  0.44007308165E+02  0.00000000000E+00 0.  1.
         11    1    1    2    0    0  0.73014929957E+02 -0.29779423336E+02  0.39555503036E+03  0.40333828989E+03  0.00000000000E+00 0. -1.
</event>
<event>
 7    1  0.3056346E-009  0.1604534E+03  0.7561462E-02  0.1188186E+00
          1   -1    0    0  501    0  0.00000000000E+00  0.00000000000E+00  0.48181153050E+03  0.48181153050E+03  0.00000000000E+00 0. -1.
         -1   -1    0    0    0  501 -0.00000000000E+00 -0.00000000000E+00 -0.91036102532E+02  0.91036102532E+02  0.00000000000E+00 0.  1.
         25    2    1    2    0    0  0.12003809038E+03  0.54854106260E+02  0.36753740934E+03  0.41005966544E+03  0.12508823224E+03 0.  0.
          5    1    3    3  502    0  0.25657536363E+02  0.62503364295E+02  0.25034397824E+03  0.25933484063E+03  0.41800000000E+01 0.  1.
         -5    1    3    3    0  502  0.94380554012E+02 -0.76492580349E+01  0.11719343110E+03  0.15072482482E+03  0.41800000000E+01 0.  1.
        -11    1    1    2    0    0 -0.26474431174E+02 -0.59112459761E+02 -0.50009255536E+01  0.64962971464E+02  0.00000000000E+00 0.  1.
         11    1    1    2    0    0 -0.93563659201E+02  0.42583535014E+01  0.28238944180E+02  0.97824996121E+02  0.00000000000E+00 0. -1.
</event>
<event>
 7    1  0.3056346E-009  0.2482802E+03  0.7561462E-02  0.1114397E+00
         -1   -1    0    0    0  501 -0.00000000000E+00  0.00000000000E+00  0.18225970165E+03  0.18225970165E+03  0.00000000000E+00 0.  1.
          1   -1    0    0  501    0  0.00000000000E+00 -0.00000000000E+00 -0.44141218255E+03  0.44141218255E+03  0.00000000000E+00 0. -1.
         25    2    1    2    0    0  0.17072675371E+03 -0.16161123549E+03 -0.25921026130E+03  0.37162216361E+03  0.12508899655E+03 0.  0.
          5    1    3    3  502    0  0.41326721933E+02 -0.11534273813E+03 -0.16237056562E+03  0.20345397063E+03  0.41800000000E+01 0. -1.
         -5    1    3    3    0  502  0.12940003178E+03 -0.46268497353E+02 -0.96839695677E+02  0.16816819298E+03  0.41800000000E+01 0. -1.
        -11    1    1    2    0    0 -0.28735001355E+02  0.15134914519E+02  0.31962954258E+02  0.45567492638E+02  0.00000000000E+00 0.  1.
         11    1    1    2    0    0 -0.14199175235E+03  0.14647632097E+03 -0.31905173870E+02  0.20648222795E+03  0.00000000000E+00 0. -1.
</event>
<event>
 7    1  0.3056346E-009  0.9330169E+02  0.7561462E-02  0.1295048E+00
         -2   -1    0    0    0  501 -0.00000000000E+00  0.00000000000E+00  0.27197293241E+02  0.27197293241E+02  0.00000000000E+00 0.  1.
          2   -1    0    0  501    0  0.00000000000E+00 -0.00000000000E+00 -0.61184386994E+03  0.61184386994E+03  0.00000000000E+00 0. -1.
         25    2    1    2    0    0  0.56296131908E+01  0.49379888765E+02 -0.44276192220E+03  0.46276923631E+03  0.12508869002E+03 0.  0.
          5    1    3    3  502    0  0.45711278102E+02  0.18541852286E+02 -0.37425763483E+03  0.37751764311E+03  0.41800000000E+01 0.  1.
         -5    1    3    3    0  502 -0.40081664911E+02  0.30838036478E+02 -0.68504287366E+02  0.85251593201E+02  0.41800000000E+01 0.  1.
        -11    1    1    2    0    0 -0.28868257033E+02  0.30258216517E+01 -0.72169994479E+01  0.29910147806E+02  0.00000000000E+00 0.  1.
         11    1    1    2    0    0  0.23238643842E+02 -0.52405710416E+02 -0.13466765505E+03  0.14636177906E+03  0.00000000000E+00 0. -1.
</event>
<event>
 7    1  0.3056346E-009  0.9076635E+02  0.7561462E-02  0.1301006E+00
          2   -1    0    0  501    0  0.00000000000E+00  0.00000000000E+00  0.10811949045E+04  0.10811949045E+04  0.00000000000E+00 0. -1.
         -2   -1    0    0    0  501 -0.00000000000E+00 -0.00000000000E+00 -0.21929397385E+02  0.21929397385E+02  0.00000000000E+00 0.  1.
         25    2    1    2    0    0 -0.34441859392E+02  0.89729826169E+01  0.93487187901E+03  0.94387480682E+03  0.12508982646E+03 0.  0.
          5    1    3    3  502    0  0.22479500179E+02  0.42306437172E+02  0.18687806417E+03  0.19296643704E+03  0.41800000000E+01 0. -1.
         -5    1    3    3    0  502 -0.56921359571E+02 -0.33333454555E+02  0.74799381484E+03  0.75090836978E+03  0.41800000000E+01 0. -1.
        -11    1    1    2    0    0 -0.13275529928E+02  0.93447933370E+01 -0.74370579097E+01  0.17857062685E+02  0.00000000000E+00 0.  1.
         11    1    1    2    0    0  0.47717389320E+02 -0.18317775954E+02  0.13183068597E+03  0.14139243234E+03  0.00000000000E+00 0. -1.
</event>
<event>
 7    1  0.3056346E-009  0.1069364E+03  0.7561462E-02  0.1266351E+00
         -1   -1    0    0    0  501 -0.00000000000E+00  0.00000000000E+00  0.56855569843E+02  0.56855569843E+02  0.00000000000E+00 0.  1.
          1   -1    0    0  501    0  0.00000000000E+00 -0.00000000000E+00 -0.21997364539E+03  0.21997364539E+03  0.00000000000E+00 0. -1.
         25    2    1    2    0    0  0.13786930834E+02  0.25999772804E+02 -0.10994779135E+03  0.16911913972E+03  0.12508676568E+03 0.  0.
          5    1    3    3  502    0  0.64357971427E+02  0.37812562990E+02 -0.77802576635E+02  0.10790019341E+03  0.41800000000E+01 0. -1.
         -5    1    3    3    0  502 -0.50571040593E+02 -0.11812790186E+02 -0.32145214710E+02  0.61218946311E+02  0.41800000000E+01 0. -1.
        -11    1    1    2    0    0 -0.25843141574E+02  0.24187531657E+02 -0.26662411671E+01  0.35496668802E+02  0.00000000000E+00 0.  1.
         11    1    1    2    0    0  0.12056210739E+02 -0.50187304461E+02 -0.50504043035E+02  0.72213406715E+02  0.00000000000E+00 0. -1.
</event>
<event>
 7    1  0.3056346E-009  0.9531147E+02  0.7561462E-02  0.1290476E+00
         -3   -1    0    0    0  501 -0.00000000000E+00  0.00000000000E+00  0.17532736759E+03  0.17532736759E+03  0.00000000000E+00 0.  1.
          3   -1    0    0  501    0  0.00000000000E+00 -0.00000000000E+00 -0.79607132285E+02  0.79607132285E+02  0.00000000000E+00 0. -1.
         25    2    1    2    0    0  0.44463891275E+02  0.88246997319E+01  0.39999719900E+02  0.13893205254E+03  0.12508886712E+03 0.  0.
          5    1    3    3  502    0 -0.74610616368E+01 -0.34024099830E+02  0.59188330791E+02  0.68804343698E+02  0.41800000000E+01 0.  1.
         -5    1    3    3    0  502  0.51924952912E+02  0.42848799561E+02 -0.19188610891E+02  0.70127708837E+02  0.41800000000E+01 0.  1.
        -11    1    1    2    0    0 -0.26498059785E+01  0.30543652393E+02 -0.64879513771E+01  0.31337352892E+02  0.00000000000E+00 0. -1.
         11    1    1    2    0    0 -0.41814085297E+02 -0.39368352124E+02  0.62208466778E+02  0.84665094444E+02  0.00000000000E+00 0.  1.
</event>
<event>
 7    1  0.3056346E-009  0.1199459E+03  0.7561462E-02  0.1243186E+00
          2   -1    0    0  501    0  0.00000000000E+00  0.00000000000E+00  0.96811606529E+03  0.96811606529E+03  0.00000000000E+00 0. -1.
         -2   -1    0    0    0  501 -0.00000000000E+00 -0.00000000000E+00 -0.42398382065E+02  0.42398382065E+02  0.00000000000E+00 0.  1.
         25    2    1    2    0    0 -0.91845048878E+02  0.19632428062E+02  0.83831814608E+03  0.85278742221E+03  0.12509247859E+03 0.  0.
          5    1    3    3  502    0 -0.19974480477E+02  0.58209323170E+02  0.53926479082E+03  0.54278107207E+03  0.41800000000E+01 0.  1.
         -5    1    3    3    0  502 -0.71870568402E+02 -0.38576895108E+02  0.29905335526E+03  0.31000635014E+03  0.41800000000E+01 0.  1.
        -11    1    1    2    0    0  0.19973476456E+02  0.49420375224E+01 -0.18320230162E+02  0.27549851720E+02  0.00000000000E+00 0.  1.
         11    1    1    2    0    0  0.71871572423E+02 -0.24574465584E+02  0.10571976731E+03  0.13017717342E+03  0.00000000000E+00 0. -1.
</event>
<event>
 7    1  0.3056346E-009  0.1798890E+03  0.7561462E-02  0.1167910E+00
          1   -1    0    0  501    0  0.00000000000E+00  0.00000000000E+00  0.27546544279E+04  0.27546544279E+04  0.00000000000E+00 0. -1.
         -1   -1    0    0    0  501 -0.00000000000E+00 -0.00000000000E+00 -0.20997230050E+02  0.20997230050E+02  0.00000000000E+00 0.  1.
         25    2    1    2    0    0  0.77554694872E+02 -0.14394080907E+03  0.21714585014E+04  0.21811985823E+04  0.12514609498E+03 0.  0.
          5    1    3    3  502    0  0.54245821783E+02 -0.12714661487E+03  0.20926156393E+04  0.20971806210E+04  0.41800000000E+01 0. -1.
         -5    1    3    3    0  502  0.23308873088E+02 -0.16794194199E+02  0.78842862069E+02  0.84017961310E+02  0.41800000000E+01 0. -1.
        -11    1    1    2    0    0 -0.95325167149E+02  0.75109199201E+02  0.32955453706E+03  0.35119007986E+03  0.00000000000E+00 0.  1.
         11    1    1    2    0    0  0.17770472277E+02  0.68831609872E+02  0.23264415942E+03  0.24326299578E+03  0.00000000000E+00 0. -1.
</event>
<event>
 7    1  0.3056346E-009  0.9239683E+02  0.7561462E-02  0.1297149E+00
         -2   -1    0    0    0  501 -0.00000000000E+00  0.00000000000E+00  0.29281481582E+02  0.29281481582E+02  0.00000000000E+00 0.  1.
          2   -1    0    0  501    0  0.00000000000E+00 -0.00000000000E+00 -0.49192355043E+03  0.49192355043E+03  0.00000000000E+00 0. -1.
         25    2    1    2    0    0  0.32152087400E+02 -0.28325196888E+02 -0.32457710316E+03  0.35047376083E+03  0.12508192368E+03 0.  0.
          5    1    3    3  502    0  0.46778116147E+02 -0.66785207979E+02 -0.14707672198E+03  0.16821858014E+03  0.41800000000E+01 0. -1.
         -5    1    3    3    0  502 -0.14626028747E+02  0.38460011091E+02 -0.17750038118E+03  0.18225518069E+03  0.41800000000E+01 0. -1.
        -11    1    1    2    0    0 -0.31950853663E+02 -0.14786086139E+01 -0.13723730351E+03  0.14091529658E+03  0.00000000000E+00 0. -1.
         11    1    1    2    0    0 -0.20123373715E+00  0.29803805502E+02 -0.82766217950E+00  0.29815974613E+02  0.00000000000E+00 0.  1.
</event>
<event>
 7    1  0.3056346E-009  0.1002600E+03  0.7561462E-02  0.1279750E+00
         -2   -1    0    0    0  501 -0.00000000000E+00  0.00000000000E+00  0.84383905694E+02  0.84383905694E+02  0.00000000000E+00 0.  1.
          2   -1    0    0  501    0  0.00000000000E+00 -0.00000000000E+00 -0.23078813934E+03  0.23078813934E+03  0.00000000000E+00 0. -1.
         25    2    1    2    0    0  0.40188395184E+02  0.69082753795E+02 -0.39318539466E+02  0.15356235563E+03  0.12509162858E+03 0.  0.
          5    1    3    3  502    0  0.71149744462E+01  0.73183035706E+01 -0.74318830624E+02  0.75132825142E+02  0.41800000000E+01 0.  1.
         -5    1    3    3    0  502  0.33073420738E+02  0.61764450224E+02  0.35000291157E+02  0.78429530484E+02  0.41800000000E+01 0.  1.
        -11    1    1    2    0    0  0.25487945166E+02 -0.22260896950E+01 -0.35102498242E+02  0.43437037272E+02  0.00000000000E+00 0. -1.
         11    1    1    2    0    0 -0.65676340349E+02 -0.66856664100E+02 -0.71983195940E+02  0.11817265214E+03  0.00000000000E+00 0.  1.
</event>
<event>
 7    1  0.3056346E-009  0.8580867E+02  0.7561462E-02  0.1313331E+00
         -2   -1    0    0    0  501 -0.00000000000E+00  0.00000000000E+00  0.92983317731E+02  0.92983317731E+02  0.00000000000E+00 0.  1.
          2   -1    0    0  501    0  0.00000000000E+00 -0.00000000000E+00 -0.16484113578E+03  0.16484113578E+03  0.00000000000E+00 0. -1.
         25    2    1    2    0    0 -0.27394075119E+02 -0.88058638493E+01  0.32714731278E+02  0.13246502643E+03  0.12509496790E+03 0.  0.
          5    1    3    3  502    0  0.12179548271E+02 -0.54910834089E+02 -0.11043801343E+02  0.57471549871E+02  0.41800000000E+01 0. -1.
         -5    1    3    3    0  502 -0.39573623390E+02  0.46104970240E+02  0.43758532621E+02  0.74993476557E+02  0.41800000000E+01 0. -1.
        -11    1    1    2    0    0 -0.15134831781E+01 -0.16091308231E+02 -0.75987717449E+02  0.77687541054E+02  0.00000000000E+00 0. -1.
         11    1    1    2    0    0  0.28907558297E+02  0.24897172080E+02 -0.28584831880E+02  0.47671886032E+02  0.00000000000E+00 0.  1.
</event>
<event>
 7    1  0.3056346E-009  0.2353192E+03  0.7561462E-02  0.1122951E+00
         -1   -1    0    0    0  501 -0.00000000000E+00  0.00000000000E+00  0.52589354408E+03  0.52589354408E+03  0.00000000000E+00 0.  1.
          1   -1    0    0  501    0  0.00000000000E+00 -0.00000000000E+00 -0.11644784343E+03  0.11644784343E+03  0.00000000000E+00 0. -1.
         25    2    1    2    0    0 -0.19758943939E+03  0.10830870261E+03  0.25317603492E+03  0.36127343303E+03  0.12509207463E+03 0.  0.
          5    1    3    3  502    0  0.74961765934E+01  0.13929510064E+01  0.57903061397E+02  0.58552283432E+02  0.41800000000E+01 0.  1.
         -5    1    3    3    0  502 -0.20508561599E+03  0.10691575160E+03  0.19527297352E+03  0.30272114959E+03  0.41800000000E+01 0.  1.
        -11    1    1    2    0    0  0.49489016018E+02 -0.53051798045E+02  0.29016833585E+02  0.78138547552E+02  0.00000000000E+00 0.  1.
         11    1    1    2    0    0  0.14810042338E+03 -0.55256904560E+02  0.12725283215E+03  0.20292940693E+03  0.00000000000E+00 0. -1.
</event>
<event>
 7    1  0.3056346E-009  0.1353199E+03  0.7561462E-02  0.1219769E+00
          1   -1    0    0  501    0  0.00000000000E+00  0.00000000000E+00  0.71305833023E+02  0.71305833023E+02  0.00000000000E+00 0. -1.
         -1   -1    0    0    0  501 -0.00000000000E+00 -0.00000000000E+00 -0.37855526625E+03  0.37855526625E+03  0.00000000000E+00 0.  1.
         25    2    1    2    0    0  0.32349755481E+02  0.10419180288E+03 -0.86302796687E+02  0.18707639866E+03  0.12508784014E+03 0.  0.
          5    1    3    3  502    0  0.11736025071E+02  0.10721472510E+03 -0.11077567955E+03  0.15466562366E+03  0.41800000000E+01 0. -1.
         -5    1    3    3    0  502  0.20613730410E+02 -0.30229222136E+01  0.24472882866E+02  0.32410774997E+02  0.41800000000E+01 0. -1.
        -11    1    1    2    0    0  0.29866777931E+02 -0.53204060496E+02 -0.10932144760E+03  0.12519534889E+03  0.00000000000E+00 0. -1.
         11    1    1    2    0    0 -0.62216533412E+02 -0.50987742387E+02 -0.11162518894E+03  0.13758935173E+03  0.00000000000E+00 0.  1.
</event>
<event>
 7    1  0.3056346E-009  0.8614679E+02  0.7561462E-02  0.1312461E+00
         -1   -1    0    0    0  501 -0.00000000000E+00  0.00000000000E+00  0.33723160488E+02  0.33723160488E+02  0.00000000000E+00 0.  1.
          1   -1    0    0  501    0  0.00000000000E+00 -0.00000000000E+00 -0.42315545428E+03  0.42315545428E+03  0.00000000000E+00 0. -1.
         25    2    1    2    0    0 -0.34098032335E+00  0.50991634890E+02 -0.21047345562E+03  0.25009414812E+03  0.12509094415E+03 0.  0.
          5    1    3    3  502    0  0.26680962029E+02 -0.18126639374E+02 -0.15222101428E+03  0.15565718222E+03  0.41800000000E+01 0. -1.
         -5    1    3    3    0  502 -0.27021942352E+02  0.69118274264E+02 -0.58252441341E+02  0.94436965897E+02  0.41800000000E+01 0. -1.
        -11    1    1    2    0    0 -0.18880591835E+02 -0.13196021422E+02 -0.16941936572E+00  0.23035633969E+02  0.00000000000E+00 0.  1.
         11    1    1    2    0    0  0.19221572158E+02 -0.37795613468E+02 -0.17878941881E+03  0.18374883268E+03  0.00000000000E+00 0. -1.
</event>
<event>
 7    1  0.3056346E-009  0.9542725E+02  0.7561462E-02  0.1290217E+00
         -1   -1    0    0    0  501 -0.00000000000E+00  0.00000000000E+00  0.28729116275E+03  0.28729116275E+03  0.00000000000E+00 0.  1.
          1   -1    0    0  501    0  0.00000000000E+00 -0.00000000000E+00 -0.82525988525E+02  0.82525988525E+02  0.00000000000E+00 0. -1.
         25    2    1    2    0    0 -0.67747896232E+01 -0.19095135199E+01  0.24011704450E+03  0.27083840458E+03  0.12509077633E+03 0.  0.
          5    1    3    3  502    0 -0.58348829970E+02 -0.29433380874E+02  0.14521489120E+03  0.15929766758E+03  0.41800000000E+01 0. -1.
         -5    1    3    3    0  502  0.51574040346E+02  0.27523867354E+02  0.94902153293E+02  0.11154073700E+03  0.41800000000E+01 0. -1.
        -11    1    1    2    0    0 -0.28579968138E+02  0.10377766864E+02 -0.51018535026E+02  0.59391948445E+02  0.00000000000E+00 0. -1.
         11    1    1    2    0    0  0.35354757762E+02 -0.84682533438E+01  0.15666664755E+02  0.39586798249E+02  0.00000000000E+00 0.  1.
</event>
<event>
 7    1  0.3056346E-009  0.1156697E+03  0.7561462E-02  0.1250417E+00
          2   -1    0    0  501    0  0.00000000000E+00  0.00000000000E+00  0.13790720801E+03  0.13790720801E+03  0.00000000000E+00 0. -1.
         -2   -1    0    0    0  501 -0.00000000000E+00 -0.00000000000E+00 -0.11153460079E+03  0.11153460079E+03  0.00000000000E+00 0.  1.
         25    2    1    2    0    0  0.55384993794E+02 -0.20729291426E+02  0.18540910165E+02  0.13959987459E+03  0.12508860290E+03 0.  0.
          5    1    3    3  502    0  0.24398804754E+02  0.51383573267E+02  0.21478122299E+02  0.60945511833E+02  0.41800000000E+01 0. -1.
         -5    1    3    3    0  502  0.30986189040E+02 -0.72112864693E+02 -0.29372121343E+01  0.78654362756E+02  0.41800000000E+01 0. -1.
        -11    1    1    2    0    0 -0.65085319551E+02 -0.78187727182E+01 -0.20280106595E+02  0.68618618110E+02  0.00000000000E+00 0.  1.
         11    1    1    2    0    0  0.97003257575E+01  0.28548064144E+02  0.28111803644E+02  0.41223316100E+02  0.00000000000E+00 0. -1.
</event>
<event>
 7    1  0.3056346E-009  0.7902122E+02  0.7561462E-02  0.1331852E+00
         -2   -1    0    0    0  501 -0.00000000000E+00  0.00000000000E+00  0.20400293243E+02  0.20400293243E+02  0.00000000000E+00 0.  1.
          2   -1    0    0  501    0  0.00000000000E+00 -0.00000000000E+00 -0.69507111767E+03  0.69507111767E+03  0.00000000000E+00 0. -1.
         25    2    1    2    0    0 -0.41971296144E+02 -0.28742782867E+02 -0.38430705654E+03  0.40734159686E+03  0.12509006976E+03 0.  0.
          5    1    3    3  502    0 -0.12389375425E+02 -0.29619950003E+02 -0.37448262057E+03  0.37587969294E+03  0.41800000000E+01 0.  1.
         -5    1    3    3    0  502 -0.29581920719E+02  0.87716713573E+00 -0.98244359793E+01  0.31461903914E+02  0.41800000000E+01 0.  1.
        -11    1    1    2    0    0  0.66201631887E+02  0.26958587770E+02 -0.25764466958E+03  0.26737650847E+03  0.00000000000E+00 0.  1.
         11    1    1    2    0    0 -0.24230335743E+02  0.17841950973E+01 -0.32719098304E+02  0.40753305586E+02  0.00000000000E+00 0. -1.
</event>
<event>
 7    1  0.3056346E-009  0.1531518E+03  0.7561462E-02  0.1196653E+00
         -3   -1    0    0    0  501 -0.00000000000E+00  0.00000000000E+00  0.36974668045E+03  0.36974668045E+03  0.00000000000E+00 0.  1.
          3   -1    0    0  501    0  0.00000000000E+00 -0.00000000000E+00 -0.73146696571E+02  0.73146696571E+02  0.00000000000E+00 0. -1.
         25    2    1    2    0    0 -0.11561453721E+03  0.38094145339E+02  0.18723998185E+03  0.25597519797E+03  0.12508639433E+03 0.  0.
          5    1    3    3  502    0 -0.12746713127E+03  0.12354428664E+02  0.95330593089E+02  0.15970565375E+03  0.41800000000E+01 0.  1.
         -5    1    3    3    0  502  0.11852594061E+02  0.25739716675E+02  0.91909388764E+02  0.96269544216E+02  0.41800000000E+01 0.  1.
        -11    1    1    2    0    0  0.43548434733E+02  0.27973972809E+02  0.52943229810E+02  0.74040495035E+02  0.00000000000E+00 0.  1.
         11    1    1    2    0    0  0.72066102475E+02 -0.66068118148E+02  0.56416772212E+02  0.11287768401E+03  0.00000000000E+00 0. -1.
</event>
<event>
 7    1  0.3056346E-009  0.2124972E+03  0.7561462E-02  0.1139604E+00
         -2   -1    0    0    0  501 -0.00000000000E+00  0.00000000000E+00  0.81675761638E+03  0.81675761638E+03  0.00000000000E+00 0.  1.
          2   -1    0    0  501    0  0.00000000000E+00 -0.00000000000E+00 -0.65251956374E+02  0.65251956374E+02  0.00000000000E+00 0. -1.
         25    2    1    2    0    0 -0.99672377352E+02 -0.17131566771E+03  0.47040829376E+03  0.52556107076E+03  0.12508731132E+03 0.  0.
          5    1    3    3  502    0 -0.31646146087E+02 -0.14651412010E+03  0.38697035691E+03  0.41500770533E+03  0.41800000000E+01 0.  1.
         -5    1    3    3    0  502 -0.68026231265E+02 -0.24801547614E+02  0.83437936846E+02  0.11055336544E+03  0.41800000000E+01 0.  1.
        -11    1    1    2    0    0  0.63341697118E+02  0.14317892076E+03  0.26493221122E+03  0.30773600778E+03  0.00000000000E+00 0.  1.
         11    1    1    2    0    0  0.36330680234E+02  0.28136746957E+02  0.16165155033E+02  0.48712494217E+02  0.00000000000E+00 0. -1.
</event>
<event>
 7    1  0.3056346E-009  0.2299086E+03  0.7561462E-02  0.1126704E+00
          1   -1    0    0  501    0  0.00000000000E+00  0.00000000000E+00  0.69306965063E+03  0.69306965063E+03  0.00000000000E+00 0. -1.
         -1   -1    0    0    0  501 -0.00000000000E+00 -0.00000000000E+00 -0.87361577217E+02  0.87361577217E+02  0.00000000000E+00 0.  1.
         25    2    1    2    0    0  0.19120651377E+03 -0.10668541825E+03  0.36058897947E+03  0.44001548120E+03  0.12508997646E+03 0.  0.
          5    1    3    3  502    0  0.10629807584E+03 -0.31060114162E+01  0.95535238498E+02  0.14301532236E+03  0.41800000000E+01 0.  1.
         -5    1    3    3    0  502  0.84908437928E+02 -0.10357940683E+03  0.26505374097E+03  0.29700015884E+03  0.41800000000E+01 0.  1.
        -11    1    1    2    0    0 -0.42921319229E+02  0.30719551501E+02  0.12298817995E+03  0.13383580574E+03  0.00000000000E+00 0. -1.
         11    1    1    2    0    0 -0.14828519454E+03  0.75965866747E+02  0.12213091399E+03  0.20657994090E+03  0.00000000000E+00 0.  1.
</event>
<event>
 7    1  0.3056346E-009  0.1219875E+03  0.7561462E-02  0.1239854E+00
          1   -1    0    0  501    0  0.00000000000E+00  0.00000000000E+00  0.12508135368E+03  0.12508135368E+03  0.00000000000E+00 0. -1.
         -1   -1    0    0    0  501 -0.00000000000E+00 -0.00000000000E+00 -0.16767972362E+03  0.16767972362E+03  0.00000000000E+00 0.  1.
         25    2    1    2    0    0  0.24566783308E+02 -0.73999195996E+02  0.33369801731E+02  0.15115307849E+03  0.12511715158E+03 0.  0.
          5    1    3    3  502    0  0.58130363311E+02 -0.45594336665E+01 -0.14568912858E+02  0.60246603190E+02  0.41800000000E+01 0. -1.
         -5    1    3    3    0  502 -0.33563580004E+02 -0.69439762329E+02  0.47938714589E+02  0.90906475300E+02  0.41800000000E+01 0. -1.
        -11    1    1    2    0    0 -0.26789742661E+00  0.82525596085E+02 -0.80700000465E+02  0.11542545583E+03  0.00000000000E+00 0.  1.
         11    1    1    2    0    0 -0.24298885881E+02 -0.85264000894E+01  0.47318287939E+01  0.26182542987E+02  0.00000000000E+00 0. -1.
</event>
<event>
 7    1  0.3056346E-009  0.7417602E+02  0.7561462E-02  0.1346442E+00
          1   -1    0    0  501    0  0.00000000000E+00  0.00000000000E+00  0.33899412807E+03  0.33899412807E+03  0.00000000000E+00 0. -1.
         -1   -1    0    0    0  501 -0.00000000000E+00 -0.00000000000E+00 -0.49225276725E+02  0.49225276725E+02  0.00000000000E+00 0.  1.
         25    2    1    2    0    0  0.26746491851E+02 -0.43659642802E+02  0.85792974226E+02  0.16009266063E+03  0.12509071239E+03 0.  0.
          5    1    3    3  502    0 -0.98797907148E+01 -0.36863083606E+02  0.10929980025E+03  0.11584651886E+03  0.41800000000E+01 0.  1.
         -5    1    3    3    0  502  0.36626282566E+02 -0.67965591964E+01 -0.23506826028E+02  0.44246141769E+02  0.41800000000E+01 0.  1.
        -11    1    1    2    0    0 -0.37124921300E+02  0.11781701771E+02  0.25557406842E+02  0.46585934816E+02  0.00000000000E+00 0.  1.
         11    1    1    2    0    0  0.10378429448E+02  0.31877941031E+02  0.17841847027E+03  0.18154080934E+03  0.00000000000E+00 0. -1.
</event>
<event>
 7    1  0.3056346E-009  0.1061844E+03  0.7561462E-02  0.1267803E+00
         -1   -1    0    0    0  501 -0.00000000000E+00  0.00000000000E+00  0.12786927849E+03  0.12786927849E+03  0.00000000000E+00 0. -1.
          1   -1    0    0  501    0  0.00000000000E+00 -0.00000000000E+00 -0.21613856922E+03  0.21613856922E+03  0.00000000000E+00 0.  1.
         25    2    1    2    0    0 -0.56518047809E+02 -0.61406899942E+02 -0.14474579401E+03  0.20868649961E+03  0.12503444784E+03 0.  0.
          5    1    3    3  502    0  0.26759224104E+02 -0.16485103496E+02  0.43986585930E+01  0.32009925169E+02  0.41800000000E+01 0.  1.
         -5    1    3    3    0  502 -0.83277271913E+02 -0.44921796446E+02 -0.14914445261E+03  0.17667657444E+03  0.41800000000E+01 0.  1.
        -11    1    1    2    0    0  0.37635663310E+02  0.25750013304E+02 -0.19264463794E+02  0.49503796856E+02  0.00000000000E+00 0.  1.
         11    1    1    2    0    0  0.18882384499E+02  0.35656886638E+02  0.75740967071E+02  0.85817551246E+02  0.00000000000E+00 0. -1.
</event>
<event>
 7    1  0.3056346E-009  0.1314663E+03  0.7561462E-02  0.1225296E+00
          1   -1    0    0  501    0  0.00000000000E+00  0.00000000000E+00  0.45989157187E+03  0.45989157187E+03  0.00000000000E+00 0. -1.
         -1   -1    0    0    0  501 -0.00000000000E+00 -0.00000000000E+00 -0.46124931665E+02  0.46124931665E+02  0.00000000000E+00 0.  1.
         25    2    1    2    0    0 -0.83274881493E+02  0.73700861886E+01  0.14205787287E+03  0.20692232752E+03  0.12508951325E+03 0.  0.
          5    1    3    3  502    0  0.14872533108E+02  0.42292425918E+02  0.31448567306E+02  0.54921091729E+02  0.41800000000E+01 0.  1.
         -5    1    3    3    0  502 -0.98147414601E+02 -0.34922339729E+02  0.11060930557E+03  0.15200123579E+03  0.41800000000E+01 0.  1.
        -11    1    1    2    0    0  0.33529044474E+02 -0.41475727879E+02  0.19119617617E+03  0.19849536672E+03  0.00000000000E+00 0. -1.
         11    1    1    2    0    0  0.49745837019E+02  0.34105641690E+02  0.80512591165E+02  0.10059880930E+03  0.00000000000E+00 0.  1.
</event>
<event>
 7    1  0.3056346E-009  0.8281735E+02  0.7561462E-02  0.1321241E+00
         -1   -1    0    0    0  501 -0.00000000000E+00  0.00000000000E+00  0.27576562416E+02  0.27576562416E+02  0.00000000000E+00 0.  1.
          1   -1    0    0  501    0  0.00000000000E+00 -0.00000000000E+00 -0.66414824108E+03  0.66414824108E+03  0.00000000000E+00 0. -1.
         25    2    1    2    0    0  0.29901558599E+02 -0.44084095107E+01 -0.52067673655E+03  0.53634876001E+03  0.12510871710E+03 0.  0.
          5    1    3    3  502    0  0.64096375646E+02  0.37019287658E+02 -0.27367398568E+03  0.28353782088E+03  0.41800000000E+01 0. -1.
         -5    1    3    3    0  502 -0.34194817048E+02 -0.41427697168E+02 -0.24700275087E+03  0.25281093913E+03  0.41800000000E+01 0. -1.
        -11    1    1    2    0    0 -0.51331471566E+01  0.10869965966E+02  0.16564058577E+02  0.20466396761E+02  0.00000000000E+00 0.  1.
         11    1    1    2    0    0 -0.24768411442E+02 -0.64615564553E+01 -0.13245900069E+03  0.13490964673E+03  0.00000000000E+00 0. -1.
</event>
<event>
 7    1  0.3940570E-009  0.1424723E+03  0.7561462E-02  0.1210040E+00
         -2   -1    0    0    0  501 -0.00000000000E+00  0.00000000000E+00  0.47550498878E+02  0.47550498878E+02  0.00000000000E+00 0. -1.
          2   -1    0    0  501    0  0.00000000000E+00 -0.00000000000E+00 -0.66303380337E+03  0.66303380337E+03  0.00000000000E+00 0.  1.
         25    2    1    2    0    0  0.13422665946E+03  0.30527712283E+02 -0.27201449495E+03  0.32952600273E+03  0.12508702445E+03 0.  0.
          5    1    3    3  502    0  0.72562622212E+02  0.34264209632E+02 -0.40712348551E+02  0.90079619941E+02  0.41800000000E+01 0. -1.
         -5    1    3    3    0  502  0.61664037248E+02 -0.37364973492E+01 -0.23130214640E+03  0.23944638279E+03  0.41800000000E+01 0. -1.
        -11    1    1    2    0    0 -0.29661041676E+02 -0.23550702946E+02 -0.19905631346E+03  0.20262731536E+03  0.00000000000E+00 0.  1.
         11    1    1    2    0    0 -0.10456561778E+03 -0.69770093373E+01 -0.14441249608E+03  0.17843098415E+03  0.00000000000E+00 0. -1.
</event>
<event>
 7    1  0.3056346E-009  0.7635673E+02  0.7561462E-02  0.1339720E+00
         -1   -1    0    0    0  501 -0.00000000000E+00  0.00000000000E+00  0.55237100244E+03  0.55237100244E+03  0.00000000000E+00 0.  1.
          1   -1    0    0  501    0  0.00000000000E+00 -0.00000000000E+00 -0.25281153074E+02  0.25281153074E+02  0.00000000000E+00 0. -1.
         25    2    1    2    0    0 -0.40188994049E+02  0.34328313575E+02  0.30249111251E+03  0.33157582310E+03  0.12509222581E+03 0.  0.
          5    1    3    3  502    0 -0.13122184394E+02  0.85112113374E+01  0.29207487541E+03  0.29252322590E+03  0.41800000000E+01 0. -1.
         -5    1    3    3    0  502 -0.27066809655E+02  0.25817102237E+02  0.10416237103E+02  0.39052597202E+02  0.41800000000E+01 0. -1.
        -11    1    1    2    0    0  0.51990681346E+02 -0.54622412971E+02  0.18839955974E+03  0.20293110421E+03  0.00000000000E+00 0.  1.
         11    1    1    2    0    0 -0.11801687298E+02  0.20294099397E+02  0.36199177112E+02  0.43145228206E+02  0.00000000000E+00 0. -1.
</event>
<event>
 7    1  0.3056346E-009  0.9454842E+02  0.7561462E-02  0.1292196E+00
          2   -1    0    0  501    0  0.00000000000E+00  0.00000000000E+00  0.30821550565E+03  0.30821550565E+03  0.00000000000E+00 0. -1.
         -2   -1    0    0    0  501 -0.00000000000E+00 -0.00000000000E+00 -0.41042451890E+02  0.41042451890E+02  0.00000000000E+00 0.  1.
         25    2    1    2    0    0 -0.69151853211E+01 -0.29384664445E+02  0.14052042755E+03  0.19053115675E+03  0.12507938615E+03 0.  0.
          5    1    3    3  502    0 -0.49809457269E+02  0.15255143863E+02  0.10912024653E+03  0.12098926420E+03  0.41800000000E+01 0.  1.
         -5    1    3    3    0  502  0.42894271948E+02 -0.44639808307E+02  0.31400181020E+02  0.69541892553E+02  0.41800000000E+01 0.  1.
        -11    1    1    2    0    0  0.24518221774E+02 -0.13812249678E+02  0.51905513055E+01  0.28615786954E+02  0.00000000000E+00 0.  1.
         11    1    1    2    0    0 -0.17603036453E+02  0.43196914123E+02  0.12146207490E+03  0.13011101384E+03  0.00000000000E+00 0. -1.
</event>
<event>
 7    1  0.3056346E-009  0.7291282E+02  0.7561462E-02  0.1350459E+00
         -2   -1    0    0    0  501 -0.00000000000E+00  0.00000000000E+00  0.14407237539E+03  0.14407237539E+03  0.00000000000E+00 0.  1.
          2   -1    0    0  501    0  0.00000000000E+00 -0.00000000000E+00 -0.10523744285E+03  0.10523744285E+03  0.00000000000E+00 0. -1.
         25    2    1    2    0    0  0.68752221383E+01  0.14349230252E+02 -0.34382634106E+02  0.13070295414E+03  0.12509167679E+03 0.  0.
          5    1    3    3  502    0 -0.18660935333E+02 -0.63916122001E+01 -0.75346765683E+02  0.77998017365E+02  0.41800000000E+01 0. -1.
         -5    1    3    3    0  502  0.25536157472E+02  0.20740842452E+02  0.40964131577E+02  0.52704936770E+02  0.41800000000E+01 0. -1.
        -11    1    1    2    0    0  0.24518397836E+02  0.29634083488E+02  0.22862493344E+02  0.44743986618E+02  0.00000000000E+00 0.  1.
         11    1    1    2    0    0 -0.31393619974E+02 -0.43983313741E+02  0.50355073308E+02  0.73862877486E+02  0.00000000000E+00 0. -1.
</event>
<event>
 7    1  0.3056346E-009  0.9969379E+02  0.7561462E-02  0.1280941E+00
         -2   -1    0    0    0  501 -0.00000000000E+00  0.00000000000E+00  0.10833566125E+04  0.10833566125E+04  0.00000000000E+00 0.  1.
          2   -1    0    0  501    0  0.00000000000E+00 -0.00000000000E+00 -0.22296211606E+02  0.22296211606E+02  0.00000000000E+00 0. -1.
         25    2    1    2    0    0  0.72827446787E+02 -0.33016781127E+02  0.84026634418E+03  0.85328160280E+03  0.12509204485E+03 0.  0.
          5    1    3    3  502    0  0.50346899994E+02 -0.60593477855E+02  0.25511404567E+03  0.26703375928E+03  0.41800000000E+01 0. -1.
         -5    1    3    3    0  502  0.22480546793E+02  0.27576696728E+02  0.58515229851E+03  0.58624784352E+03  0.41800000000E+01 0. -1.
        -11    1    1    2    0    0 -0.32490357490E+02 -0.87678924678E-01  0.18789593847E+03  0.19068433263E+03  0.00000000000E+00 0.  1.
         11    1    1    2    0    0 -0.40337089296E+02  0.33104460052E+02  0.32898118218E+02  0.61686888644E+02  0.00000000000E+00 0. -1.
</event>
<event>
 7    1  0.3056346E-009  0.9098538E+02  0.7561462E-02  0.1300483E+00
          1   -1    0    0  501    0  0.00000000000E+00  0.00000000000E+00  0.10428421095E+04  0.10428421095E+04  0.00000000000E+00 0. -1.
         -1   -1    0    0    0  501 -0.00000000000E+00 -0.00000000000E+00 -0.27376387365E+02  0.27376387365E+02  0.00000000000E+00 0.  1.
         25    2    1    2    0    0 -0.53991898344E+02 -0.27817288894E+02  0.90354374299E+03  0.91418058912E+03  0.12508368153E+03 0.  0.
          5    1    3    3  502    0  0.42411015042E+01  0.22727199145E+02  0.34662509832E+02  0.41874509081E+02  0.41800000000E+01 0. -1.
         -5    1    3    3    0  502 -0.58232999848E+02 -0.50544488039E+02  0.86888123316E+03  0.87230608004E+03  0.41800000000E+01 0. -1.
        -11    1    1    2    0    0  0.38168154355E+01 -0.14885599782E+02  0.82432584496E+02  0.83852728921E+02  0.00000000000E+00 0. -1.
         11    1    1    2    0    0  0.50175082908E+02  0.42702888676E+02  0.29489394665E+02  0.72185178838E+02  0.00000000000E+00 0.  1.
</event>
<event>
 7    1  0.3056346E-009  0.1344663E+03  0.7561462E-02  0.1220975E+00
         -1   -1    0    0    0  501 -0.00000000000E+00  0.00000000000E+00  0.68228406052E+03  0.68228406052E+03  0.00000000000E+00 0.  1.
          1   -1    0    0  501    0  0.00000000000E+00 -0.00000000000E+00 -0.47567181149E+02  0.47567181149E+02  0.00000000000E+00 0. -1.
         25    2    1    2    0    0  0.32391075006E+02  0.10116383322E+03  0.14002075285E+03  0.21572380408E+03  0.12509054932E+03 0.  0.
          5    1    3    3  502    0  0.68042040500E+01 -0.28877519749E+02  0.15115066946E+02  0.33558098700E+02  0.41800000000E+01 0.  1.
         -5    1    3    3    0  502  0.25586870956E+02  0.13004135296E+03  0.12490568590E+03  0.18216570538E+03  0.41800000000E+01 0.  1.
        -11    1    1    2    0    0 -0.37428577462E+01 -0.18740262003E+02  0.98651661059E+01  0.21506461967E+02  0.00000000000E+00 0. -1.
         11    1    1    2    0    0 -0.28648217259E+02 -0.82423571213E+02  0.48483096041E+03  0.49262097562E+03  0.00000000000E+00 0.  1.
</event>
<event>
 7    1  0.3056346E-009  0.7708211E+02  0.7561462E-02  0.1337542E+00
          1   -1    0    0  501    0  0.00000000000E+00  0.00000000000E+00  0.39077270148E+02  0.39077270148E+02  0.00000000000E+00 0. -1.
         -1   -1    0    0    0  501 -0.00000000000E+00 -0.00000000000E+00 -0.39813989557E+03  0.39813989557E+03  0.00000000000E+00 0.  1.
         25    2    1    2    0    0  0.57418854074E+02  0.78714999301E+01 -0.16544703475E+03  0.21535839090E+03  0.12509048689E+03 0.  0.
          5    1    3    3  502    0  0.31026837398E+02  0.32039962761E+01 -0.18125226850E+03  0.18396409287E+03  0.41800000000E+01 0.  1.
         -5    1    3    3    0  502  0.26392016677E+02  0.46675036540E+01  0.15805233750E+02  0.31394298025E+02  0.41800000000E+01 0.  1.
        -11    1    1    2    0    0 -0.68311045319E+02  0.15264937716E+02 -0.84199735243E+02  0.10949434986E+03  0.00000000000E+00 0. -1.
         11    1    1    2    0    0  0.10892191245E+02 -0.23136437646E+02 -0.10941585543E+03  0.11236442496E+03  0.00000000000E+00 0.  1.
</event>
<event>
 7    1  0.3056346E-009  0.1170785E+03  0.7561462E-02  0.1247996E+00
         -4   -1    0    0    0  501 -0.00000000000E+00  0.00000000000E+00  0.12100263960E+03  0.12100263960E+03  0.00000000000E+00 0.  1.
          4   -1    0    0  501    0  0.00000000000E+00 -0.00000000000E+00 -0.11727168838E+03  0.11727168838E+03  0.00000000000E+00 0. -1.
         25    2    1    2    0    0 -0.50812616178E+02  0.18845410667E+00  0.35280295120E+00  0.13501444474E+03  0.12508724292E+03 0.  0.
          5    1    3    3  502    0 -0.84348822070E+02 -0.25908737129E+02 -0.15073858512E+02  0.89614061702E+02  0.41800000000E+01 0. -1.
         -5    1    3    3    0  502  0.33536205892E+02  0.26097191236E+02  0.15426661464E+02  0.45400383038E+02  0.41800000000E+01 0. -1.
        -11    1    1    2    0    0 -0.95775370984E+00 -0.38628099251E+02 -0.74752696147E+00  0.38647200940E+02  0.00000000000E+00 0.  1.
         11    1    1    2    0    0  0.51770369888E+02  0.38439645145E+02  0.41256752281E+01  0.64612682294E+02  0.00000000000E+00 0. -1.
</event>
<event>
 7    1  0.3056346E-009  0.1122158E+03  0.7561462E-02  0.1256521E+00
         -3   -1    0    0    0  501 -0.00000000000E+00  0.00000000000E+00  0.48594395030E+03  0.48594395030E+03  0.00000000000E+00 0.  1.
          3   -1    0    0  501    0  0.00000000000E+00 -0.00000000000E+00 -0.31429119787E+02  0.31429119787E+02  0.00000000000E+00 0. -1.
         25    2    1    2    0    0  0.56295138727E+01  0.49861554322E+02  0.33627716847E+03  0.36228139462E+03  0.12509040262E+03 0.  0.
          5    1    3    3  502    0 -0.30883872059E+01 -0.41123874856E+02  0.78925907356E+02  0.89148653780E+02  0.41800000000E+01 0.  1.
         -5    1    3    3    0  502  0.87179010786E+01  0.90985429178E+02  0.25735126111E+03  0.27313274084E+03  0.41800000000E+01 0.  1.
        -11    1    1    2    0    0 -0.17961123092E+02 -0.67563000286E+02  0.11302336662E+03  0.13289711190E+03  0.00000000000E+00 0.  1.
         11    1    1    2    0    0  0.12331609219E+02  0.17701445963E+02  0.52142954284E+01  0.22194563567E+02  0.00000000000E+00 0. -1.
</event>
<event>
 7    1  0.3056346E-009  0.4311310E+03  0.7561462E-02  0.1033503E+00
          2   -1    0    0  501    0  0.00000000000E+00  0.00000000000E+00  0.15442116964E+04  0.15442116964E+04  0.00000000000E+00 0. -1.
         -2   -1    0    0    0  501 -0.00000000000E+00 -0.00000000000E+00 -0.12066411903E+03  0.12066411903E+03  0.00000000000E+00 0.  1.
         25    2    1    2    0    0  0.32629976277E+03  0.25989733664E+03  0.67891799199E+03  0.80659770377E+03  0.12510817356E+03 0.  0.
          5    1    3    3  502    0 -0.91515860718E+01  0.22033951378E+02  0.35248066610E+02  0.42768506412E+02  0.41800000000E+01 0. -1.
         -5    1    3    3    0  502  0.33545134884E+03  0.23786338527E+03  0.64366992538E+03  0.76382919736E+03  0.41800000000E+01 0. -1.
        -11    1    1    2    0    0 -0.29580463012E+03 -0.19279721183E+03  0.61906427020E+03  0.71267925094E+03  0.00000000000E+00 0.  1.
         11    1    1    2    0    0 -0.30495132655E+02 -0.67100124811E+02  0.12556531518E+03  0.14559886071E+03  0.00000000000E+00 0. -1.
</event>
<event>
 7    1  0.3056346E-009  0.9924920E+02  0.7561462E-02  0.1281883E+00
         -1   -1    0    0    0  501 -0.00000000000E+00  0.00000000000E+00  0.18128094177E+02  0.18128094177E+02  0.00000000000E+00 0.  1.
          1   -1    0    0  501    0  0.00000000000E+00 -0.00000000000E+00 -0.73056781870E+03  0.73056781870E+03  0.00000000000E+00 0. -1.
         25    2    1    2    0    0 -0.14169015861E+02 -0.23369961381E+02 -0.49737143468E+03  0.51358806645E+03  0.12508973523E+03 0.  0.
          5    1    3    3  502    0  0.25772959232E+02  0.41936572440E+02 -0.24042565383E+03  0.24544834274E+03  0.41800000000E+01 0. -1.
         -5    1    3    3    0  502 -0.39941975093E+02 -0.65306533821E+02 -0.25694578085E+03  0.26813972371E+03  0.41800000000E+01 0. -1.
        -11    1    1    2    0    0 -0.20406835101E+02 -0.11417653769E+02 -0.12161570778E+02  0.26357267314E+02  0.00000000000E+00 0.  1.
         11    1    1    2    0    0  0.34575850963E+02  0.34787615150E+02 -0.20290671906E+03  0.20875057911E+03  0.00000000000E+00 0. -1.
</event>
<event>
 7    1  0.3056346E-009  0.9369359E+02  0.7561462E-02  0.1294146E+00
         -3   -1    0    0    0  501 -0.00000000000E+00  0.00000000000E+00  0.13428816348E+02  0.13428816348E+02  0.00000000000E+00 0.  1.
          3   -1    0    0  501    0  0.00000000000E+00 -0.00000000000E+00 -0.13097965554E+04  0.13097965554E+04  0.00000000000E+00 0. -1.
         25    2    1    2    0    0 -0.35210328001E+02 -0.23179818722E+02 -0.10448597129E+04  0.10531650766E+04  0.12509111837E+03 0.  0.
          5    1    3    3  502    0 -0.71368513042E+02 -0.40558051471E+02 -0.86199300678E+03  0.86590290237E+03  0.41800000000E+01 0. -1.
         -5    1    3    3    0  502  0.36158185041E+02  0.17378232748E+02 -0.18286670609E+03  0.18726217427E+03  0.41800000000E+01 0. -1.
        -11    1    1    2    0    0  0.46892815915E+02  0.11380858106E+02 -0.24855496932E+03  0.25319564153E+03  0.00000000000E+00 0. -1.
         11    1    1    2    0    0 -0.11682487915E+02  0.11798960616E+02 -0.29530568698E+01  0.16864653580E+02  0.00000000000E+00 0.  1.
</event>
<event>
 7    1  0.3056346E-009  0.1017932E+03  0.7561462E-02  0.1276570E+00
          1   -1    0    0  501    0  0.00000000000E+00  0.00000000000E+00  0.11020709579E+04  0.11020709579E+04  0.00000000000E+00 0. -1.
         -1   -1    0    0    0  501 -0.00000000000E+00 -0.00000000000E+00 -0.12829984735E+02  0.12829984735E+02  0.00000000000E+00 0.  1.
         25    2    1    2    0    0  0.47232423517E+01 -0.29575163520E+02  0.79931648657E+03  0.80959925235E+03  0.12508838629E+03 0.  0.
          5    1    3    3  502    0 -0.14139708875E+01  0.44410100842E+02  0.46379038960E+03  0.46593267137E+03  0.41800000000E+01 0. -1.
         -5    1    3    3    0  502  0.61372132392E+01 -0.73985264363E+02  0.33552609697E+03  0.34366658097E+03  0.41800000000E+01 0. -1.
        -11    1    1    2    0    0  0.16699357183E+02 -0.22656880062E+02  0.38944895245E+02  0.48051093745E+02  0.00000000000E+00 0.  1.
         11    1    1    2    0    0 -0.21422599534E+02  0.52232043583E+02  0.25097959139E+03  0.25725059658E+03  0.00000000000E+00 0. -1.
</event>
<event>
 7    1  0.3056346E-009  0.7241065E+02  0.7561462E-02  0.1352082E+00
          2   -1    0    0  501    0  0.00000000000E+00  0.00000000000E+00  0.33164217811E+03  0.33164217811E+03  0.00000000000E+00 0. -1.
         -2   -1    0    0    0  501 -0.00000000000E+00 -0.00000000000E+00 -0.40097514651E+02  0.40097514651E+02  0.00000000000E+00 0.  1.
         25    2    1    2    0    0  0.22845831494E+02 -0.25859971045E+02  0.14454688601E+03  0.19424769116E+03  0.12509073966E+03 0.  0.
          5    1    3    3  502    0 -0.36235009169E+01  0.11825519027E+02 -0.19690081642E+02  0.23625079349E+02  0.41800000000E+01 0.  1.
         -5    1    3    3    0  502  0.26469332411E+02 -0.37685490071E+02  0.16423696765E+03  0.17062261181E+03  0.41800000000E+01 0.  1.
        -11    1    1    2    0    0 -0.38686088376E+02  0.45868502590E+02  0.13791686857E+03  0.15040477253E+03  0.00000000000E+00 0. -1.
         11    1    1    2    0    0  0.15840256883E+02 -0.20008531545E+02  0.90809088906E+01  0.27087229075E+02  0.00000000000E+00 0.  1.
</event>
<event>
 7    1  0.5863069E-009  0.1557315E+03  0.7561462E-02  0.1193602E+00
         -1   -1    0    0    0  501 -0.00000000000E+00  0.00000000000E+00  0.36949432565E+02  0.36949432565E+02  0.00000000000E+00 0.  1.
          1   -1    0    0  501    0  0.00000000000E+00 -0.00000000000E+00 -0.73670124551E+03  0.73670124551E+03  0.00000000000E+00 0. -1.
         25    2    1    2    0    0 -0.71414307654E+02 -0.98453868481E+02 -0.43009683354E+03  0.46413409639E+03  0.12507599951E+03 0.  0.
          5    1    3    3  502    0 -0.10588676424E+03 -0.85162220072E+02 -0.31227022870E+03  0.34058006210E+03  0.41800000000E+01 0. -1.
         -5    1    3    3    0  502  0.34472456588E+02 -0.13291648409E+02 -0.11782660484E+03  0.12355403429E+03  0.41800000000E+01 0. -1.
        -11    1    1    2    0    0  0.73451051660E+02  0.47794377350E+02 -0.10256274445E+03  0.13490172737E+03  0.00000000000E+00 0.  1.
         11    1    1    2    0    0 -0.20367440060E+01  0.50659491130E+02 -0.16709223496E+03  0.17461485432E+03  0.00000000000E+00 0. -1.
</event>
<event>
 7    1  0.3056346E-009  0.1170455E+03  0.7561462E-02  0.1248052E+00
         -2   -1    0    0    0  501 -0.00000000000E+00  0.00000000000E+00  0.13466024429E+03  0.13466024429E+03  0.00000000000E+00 0.  1.
          2   -1    0    0  501    0  0.00000000000E+00 -0.00000000000E+00 -0.10644569270E+03  0.10644569270E+03  0.00000000000E+00 0. -1.
         25    2    1    2    0    0 -0.43473948651E+02  0.65561734569E-01  0.35253603973E-01  0.13242390032E+03  0.12508437002E+03 0.  0.
          5    1    3    3  502    0  0.42122564789E+02 -0.96861216571E+01  0.12711447700E+02  0.45245825441E+02  0.41800000000E+01 0. -1.
         -5    1    3    3    0  502 -0.85596513440E+02  0.97516833916E+01 -0.12676194096E+02  0.87178074875E+02  0.41800000000E+01 0. -1.
        -11    1    1    2    0    0 -0.30447264498E+02  0.14102499797E+01  0.32324490968E+01  0.30650831108E+02  0.00000000000E+00 0.  1.
         11    1    1    2    0    0  0.73921213149E+02 -0.14758117143E+01  0.24946848891E+02  0.78031205573E+02  0.00000000000E+00 0. -1.
</event>
<event>
 7    1  0.3056346E-009  0.1076877E+03  0.7561462E-02  0.1264913E+00
          1   -1    0    0  501    0  0.00000000000E+00  0.00000000000E+00  0.51550516801E+03  0.51550516801E+03  0.00000000000E+00 0. -1.
         -1   -1    0    0    0  501 -0.00000000000E+00 -0.00000000000E+00 -0.34926352527E+02  0.34926352527E+02  0.00000000000E+00 0.  1.
         25    2    1    2    0    0  0.56581135758E+02  0.15626413997E+02  0.16099906600E+03  0.21216524236E+03  0.12509109112E+03 0.  0.
          5    1    3    3  502    0  0.92095246244E+02  0.39653812574E+01  0.14367468247E+03  0.17075463512E+03  0.41800000000E+01 0. -1.
         -5    1    3    3    0  502 -0.35514110486E+02  0.11661032739E+02  0.17324383521E+02  0.41410607247E+02  0.41800000000E+01 0. -1.
        -11    1    1    2    0    0  0.13326868298E+02 -0.69879049690E+01  0.49397225434E+01  0.15837837393E+02  0.00000000000E+00 0.  1.
         11    1    1    2    0    0 -0.69908004056E+02 -0.86385090279E+01  0.31464002694E+03  0.32242844078E+03  0.00000000000E+00 0. -1.
</event>
<event>
 7    1  0.3056346E-009  0.1143705E+03  0.7561462E-02  0.1252684E+00
          1   -1    0    0  501    0  0.00000000000E+00  0.00000000000E+00  0.91392017262E+03  0.91392017262E+03  0.00000000000E+00 0. -1.
         -1   -1    0    0    0  501 -0.00000000000E+00 -0.00000000000E+00 -0.24294119310E+02  0.24294119310E+02  0.00000000000E+00 0.  1.
         25    2    1    2    0    0 -0.45042289445E+02  0.88292476995E+02  0.38772010302E+03  0.41928421436E+03  0.12509198534E+03 0.  0.
          5    1    3    3  502    0 -0.33990616653E+02  0.10102397704E+03  0.38749909631E+03  0.40191320953E+03  0.41800000000E+01 0.  1.
         -5    1    3    3    0  502 -0.11051672792E+02 -0.12731500043E+02  0.22100671191E+00  0.17371004831E+02  0.41800000000E+01 0.  1.
        -11    1    1    2    0    0  0.29117823526E+02 -0.82936432837E+02  0.49121152568E+03  0.49901409048E+03  0.00000000000E+00 0. -1.
         11    1    1    2    0    0  0.15924465919E+02 -0.53560441576E+01  0.10694424610E+02  0.19915987085E+02  0.00000000000E+00 0.  1.
</event>
<event>
 7    1  0.3056346E-009  0.1328532E+03  0.7561462E-02  0.1223282E+00
         -1   -1    0    0    0  501 -0.00000000000E+00  0.00000000000E+00  0.10128865420E+03  0.10128865420E+03  0.00000000000E+00 0.  1.
          1   -1    0    0  501    0  0.00000000000E+00 -0.00000000000E+00 -0.20868791061E+03  0.20868791061E+03  0.00000000000E+00 0. -1.
         25    2    1    2    0    0  0.92467303832E+02  0.10205729717E+02 -0.86708007355E+02  0.17838319458E+03  0.12509167187E+03 0.  0.
          5    1    3    3  502    0  0.13781692885E+02 -0.40632466932E+02  0.93833848203E+01  0.44118621221E+02  0.41800000000E+01 0.  1.
         -5    1    3    3    0  502  0.78685610948E+02  0.50838196649E+02 -0.96091392175E+02  0.13426457336E+03  0.41800000000E+01 0.  1.
        -11    1    1    2    0    0 -0.76341346123E+02  0.32653301904E+02 -0.49802379488E+01  0.83180779169E+02  0.00000000000E+00 0.  1.
         11    1    1    2    0    0 -0.16125957709E+02 -0.42859031621E+02 -0.15711011104E+02  0.48412591063E+02  0.00000000000E+00 0. -1.
</event>
<event>
 7    1  0.3056346E-009  0.1151818E+03  0.7561462E-02  0.1251264E+00
         -1   -1    0    0    0  501 -0.00000000000E+00  0.00000000000E+00  0.29030228934E+02  0.29030228934E+02  0.00000000000E+00 0.  1.
          1   -1    0    0  501    0  0.00000000000E+00 -0.00000000000E+00 -0.58477742587E+03  0.58477742587E+03  0.00000000000E+00 0. -1.
         25    2    1    2    0    0 -0.25562198875E+02 -0.49403340246E+02 -0.41347477797E+03  0.43555025469E+03  0.12509402983E+03 0.  0.
          5    1    3    3  502    0  0.14084717618E+02 -0.81632634470E+02 -0.21180555317E+03  0.22746720870E+03  0.41800000000E+01 0.  1.
         -5    1    3    3    0  502 -0.39646916493E+02  0.32229294224E+02 -0.20166922481E+03  0.20808304599E+03  0.41800000000E+01 0.  1.
        -11    1    1    2    0    0  0.51470886106E+02  0.47724347124E+02 -0.61186611842E+02  0.93116415812E+02  0.00000000000E+00 0.  1.
         11    1    1    2    0    0 -0.25908687232E+02  0.16789931213E+01 -0.81085807117E+02  0.85140984301E+02  0.00000000000E+00 0. -1.
</event>
<event>
 7    1  0.3056346E-009  0.1003711E+03  0.7561462E-02  0.1279517E+00
          1   -1    0    0  501    0  0.00000000000E+00  0.00000000000E+00  0.24546272981E+03  0.24546272981E+03  0.00000000000E+00 0. -1.
         -1   -1    0    0    0  501 -0.00000000000E+00 -0.00000000000E+00 -0.73888401077E+02  0.73888401077E+02  0.00000000000E+00 0.  1.
         25    2    1    2    0    0 -0.27298218982E+02 -0.20538166338E+02  0.90694024880E+01  0.12998880119E+03  0.12509126803E+03 0.  0.
          5    1    3    3  502    0 -0.52606555831E+02  0.19263776256E+02 -0.34263038020E+02  0.65802514895E+02  0.41800000000E+01 0.  1.
         -5    1    3    3    0  502  0.25308336850E+02 -0.39801942594E+02  0.43332440508E+02  0.64186286298E+02  0.41800000000E+01 0.  1.
        -11    1    1    2    0    0  0.58821567703E+02 -0.13463671508E+01  0.98541075909E+02  0.11476991406E+03  0.00000000000E+00 0.  1.
         11    1    1    2    0    0 -0.31523348722E+02  0.21884533489E+02  0.63963850340E+02  0.74592415640E+02  0.00000000000E+00 0. -1.
</event>
<event>
 7    1  0.3056346E-009  0.1413216E+03  0.7561462E-02  0.1211562E+00
          1   -1    0    0  501    0  0.00000000000E+00  0.00000000000E+00  0.73411135405E+02  0.73411135405E+02  0.00000000000E+00 0. -1.
         -1   -1    0    0    0  501 -0.00000000000E+00 -0.00000000000E+00 -0.35212681847E+03  0.35212681847E+03  0.00000000000E+00 0.  1.
         25    2    1    2    0    0 -0.23044091931E+02  0.11252797271E+03 -0.17908695939E+03  0.24678866606E+03  0.12505571502E+03 0.  0.
          5    1    3    3  502    0 -0.68989773194E+02  0.94967685164E+02 -0.14590864117E+03  0.18731058165E+03  0.41800000000E+01 0. -1.
         -5    1    3    3    0  502  0.45945681263E+02  0.17560287549E+02 -0.33178318218E+02  0.59478084412E+02  0.41800000000E+01 0. -1.
        -11    1    1    2    0    0  0.19817151868E+02 -0.59839324419E+02 -0.10824678746E+03  0.12526304823E+03  0.00000000000E+00 0.  1.
         11    1    1    2    0    0  0.32269400629E+01 -0.52688648294E+02  0.86180637870E+01  0.53486239582E+02  0.00000000000E+00 0. -1.
</event>
<event>
 7    1  0.3056346E-009  0.1478425E+03  0.7561462E-02  0.1203149E+00
         -1   -1    0    0    0  501 -0.00000000000E+00  0.00000000000E+00  0.59355782866E+02  0.59355782866E+02  0.00000000000E+00 0.  1.
          1   -1    0    0  501    0  0.00000000000E+00 -0.00000000000E+00 -0.47929072315E+03  0.47929072315E+03  0.00000000000E+00 0. -1.
         25    2    1    2    0    0  0.53032882309E+02 -0.11518741451E+03 -0.22168796611E+03  0.28438323801E+03  0.12509054591E+03 0.  0.
          5    1    3    3  502    0 -0.62360442184E+01  0.78904064061E+01  0.10390660606E+02  0.15052740235E+02  0.41800000000E+01 0. -1.
         -5    1    3    3    0  502  0.59268926527E+02 -0.12307782092E+03 -0.23207862672E+03  0.26933049778E+03  0.41800000000E+01 0. -1.
        -11    1    1    2    0    0  0.10515339125E+02  0.68417696090E+02 -0.46992168171E+02  0.83664911191E+02  0.00000000000E+00 0.  1.
         11    1    1    2    0    0 -0.63548221434E+02  0.46769718422E+02 -0.15125480600E+03  0.17059835682E+03  0.00000000000E+00 0. -1.
</event>
<event>
 7    1  0.3056346E-009  0.1057562E+03  0.7561462E-02  0.1268637E+00
          2   -1    0    0  501    0  0.00000000000E+00  0.00000000000E+00  0.59386268520E+03  0.59386268520E+03  0.00000000000E+00 0. -1.
         -2   -1    0    0    0  501 -0.00000000000E+00 -0.00000000000E+00 -0.28017357252E+02  0.28017357252E+02  0.00000000000E+00 0.  1.
         25    2    1    2    0    0 -0.20957197083E+01  0.43127075224E+02  0.18305059892E+03  0.22587598430E+03  0.12509237331E+03 0.  0.
          5    1    3    3  502    0 -0.37749901413E+02 -0.24182894332E+02  0.27855741502E+02  0.52946030726E+02  0.41800000000E+01 0.  1.
         -5    1    3    3    0  502  0.35654181705E+02  0.67309969556E+02  0.15519485741E+03  0.17292995357E+03  0.41800000000E+01 0.  1.
        -11    1    1    2    0    0 -0.26928353793E+02  0.10757678326E+02  0.51494022016E+02  0.59097361907E+02  0.00000000000E+00 0.  1.
         11    1    1    2    0    0  0.29024073501E+02 -0.53884753550E+02  0.33130070702E+03  0.33690669625E+03  0.00000000000E+00 0. -1.
</event>
<event>
 7    1  0.3056346E-009  0.3203965E+03  0.7561462E-02  0.1075467E+00
          2   -1    0    0  501    0  0.00000000000E+00  0.00000000000E+00  0.13696857664E+04  0.13696857664E+04  0.00000000000E+00 0. -1.
         -2   -1    0    0    0  501 -0.00000000000E+00 -0.00000000000E+00 -0.81822124917E+02  0.81822124917E+02  0.00000000000E+00 0.  1.
         25    2    1    2    0    0 -0.27787735552E+03  0.14527565121E+03  0.74563040791E+03  0.81849474711E+03  0.12509239108E+03 0.  0.
          5    1    3    3  502    0 -0.15600238462E+03  0.11417200649E+03  0.31281485380E+03  0.36775344490E+03  0.41800000000E+01 0. -1.
         -5    1    3    3    0  502 -0.12187497090E+03  0.31103644717E+02  0.43281555411E+03  0.45074130222E+03  0.41800000000E+01 0. -1.
        -11    1    1    2    0    0  0.24984567251E+03 -0.10166946697E+03  0.40786754114E+03  0.48899434731E+03  0.00000000000E+00 0.  1.
         11    1    1    2    0    0  0.28031683007E+02 -0.43606184238E+02  0.13436569242E+03  0.14401879688E+03  0.00000000000E+00 0. -1.
</event>
<event>
 7    1  0.3056346E-009  0.1199080E+03  0.7561462E-02  0.1243249E+00
         -3   -1    0    0    0  501 -0.00000000000E+00  0.00000000000E+00  0.91254720092E+02  0.91254720092E+02  0.00000000000E+00 0.  1.
          3   -1    0    0  501    0  0.00000000000E+00 -0.00000000000E+00 -0.19087706300E+03  0.19087706300E+03  0.00000000000E+00 0. -1.
         25    2    1    2    0    0  0.64137316409E+02  0.16193203833E+02 -0.92635719911E+02  0.16912913074E+03  0.12508985193E+03 0.  0.
          5    1    3    3  502    0 -0.16665310140E+02  0.50413787510E+02 -0.41132143862E+02  0.67294934370E+02  0.41800000000E+01 0. -1.
         -5    1    3    3    0  502  0.80802626549E+02 -0.34220583677E+02 -0.51503576049E+02  0.10183419637E+03  0.41800000000E+01 0. -1.
        -11    1    1    2    0    0 -0.13005162849E+02  0.28159215554E+02 -0.28352237212E+02  0.42022910850E+02  0.00000000000E+00 0.  1.
         11    1    1    2    0    0 -0.51132153560E+02 -0.44352419387E+02  0.21365614214E+02  0.70979741504E+02  0.00000000000E+00 0. -1.
</event>
<event>
 7    1  0.3056346E-009  0.8596684E+02  0.7561462E-02  0.1312923E+00
         -2   -1    0    0    0  501 -0.00000000000E+00  0.00000000000E+00  0.43101323158E+02  0.43101323158E+02  0.00000000000E+00 0.  1.
          2   -1    0    0  501    0  0.00000000000E+00 -0.00000000000E+00 -0.38259555696E+03  0.38259555696E+03  0.00000000000E+00 0. -1.
         25    2    1    2    0    0 -0.28876817001E+02 -0.46674564402E+02 -0.26706609490E+03  0.29997496235E+03  0.12509313918E+03 0.  0.
          5    1    3    3  502    0 -0.76791924783E+01  0.13127472379E+02  0.79788288466E+01  0.17675820715E+02  0.41800000000E+01 0. -1.
         -5    1    3    3    0  502 -0.21197624523E+02 -0.59802036781E+02 -0.27504492375E+03  0.28229914163E+03  0.41800000000E+01 0. -1.
        -11    1    1    2    0    0  0.24152741375E+02 -0.16483426189E+02 -0.51132279143E+02  0.58903040883E+02  0.00000000000E+00 0. -1.
         11    1    1    2    0    0  0.47240756266E+01  0.63157990591E+02 -0.21295859764E+02  0.66818876892E+02  0.00000000000E+00 0.  1.
</event>
<event>
 7    1  0.3056346E-009  0.1175189E+03  0.7561462E-02  0.1247247E+00
         -3   -1    0    0    0  501 -0.00000000000E+00  0.00000000000E+00  0.29318655753E+02  0.29318655753E+02  0.00000000000E+00 0.  1.
          3   -1    0    0  501    0  0.00000000000E+00 -0.00000000000E+00 -0.72072285800E+03  0.72072285800E+03  0.00000000000E+00 0. -1.
         25    2    1    2    0    0 -0.28983550551E+02  0.38463309446E+02 -0.59587669444E+03  0.61076686343E+03  0.12509058366E+03 0.  0.
          5    1    3    3  502    0 -0.61685797029E+02 -0.21439101128E+02 -0.27365520191E+03  0.28137060000E+03  0.41800000000E+01 0.  1.
         -5    1    3    3    0  502  0.32702246478E+02  0.59902410574E+02 -0.32222149253E+03  0.32939626344E+03  0.41800000000E+01 0.  1.
        -11    1    1    2    0    0  0.58215024460E+02 -0.75910501967E+01 -0.58826068393E+02  0.83109081565E+02  0.00000000000E+00 0.  1.
         11    1    1    2    0    0 -0.29231473909E+02 -0.30872259249E+02 -0.36701439411E+02  0.56165568749E+02  0.00000000000E+00 0. -1.
</event>
<event>
 7    1  0.3056346E-009  0.1091519E+03  0.7561462E-02  0.1262149E+00
          1   -1    0    0  501    0  0.00000000000E+00  0.00000000000E+00  0.71279794861E+03  0.71279794861E+03  0.00000000000E+00 0. -1.
         -1   -1    0    0    0  501 -0.00000000000E+00 -0.00000000000E+00 -0.17359539949E+02  0.17359539949E+02  0.00000000000E+00 0.  1.
         25    2    1    2    0    0 -0.41762111486E+02 -0.50933204675E+01  0.37672411427E+03  0.39917199976E+03  0.12508881346E+03 0.  0.
          5    1    3    3  502    0 -0.64555466405E+00 -0.60701438030E+02  0.14333318988E+03  0.15571434436E+03  0.41800000000E+01 0. -1.
         -5    1    3    3    0  502 -0.41116556822E+02  0.55608117562E+02  0.23339092439E+03  0.24345765540E+03  0.41800000000E+01 0. -1.
        -11    1    1    2    0    0  0.64812832030E+02  0.60924101163E+01  0.21038400527E+03  0.22022545341E+03  0.00000000000E+00 0.  1.
         11    1    1    2    0    0 -0.23050720544E+02 -0.99908964881E+00  0.10833028912E+03  0.11076003539E+03  0.00000000000E+00 0. -1.
</event>
<event>
 7    1  0.3056346E-009  0.1984352E+03  0.7561462E-02  0.1151066E+00
         -2   -1    0    0    0  501 -0.00000000000E+00  0.00000000000E+00  0.45847355189E+03  0.45847355189E+03  0.00000000000E+00 0.  1.
          2   -1    0    0  501    0  0.00000000000E+00 -0.00000000000E+00 -0.29289860184E+03  0.29289860184E+03  0.00000000000E+00 0. -1.
         25    2    1    2    0    0 -0.18650619273E+03 -0.24891412014E+02  0.38622304732E+03  0.44746105619E+03  0.12509601192E+03 0.  0.
          5    1    3    3  502    0 -0.13477469623E+03  0.22367618885E+02  0.33112662845E+03  0.35822736577E+03  0.41800000000E+01 0. -1.
         -5    1    3    3    0  502 -0.51731496504E+02 -0.47259030899E+02  0.55096418871E+02  0.89233690411E+02  0.41800000000E+01 0. -1.
        -11    1    1    2    0    0  0.10263993908E+03  0.26895205509E+02 -0.18392252869E+03  0.21233418408E+03  0.00000000000E+00 0.  1.
         11    1    1    2    0    0  0.83866253659E+02 -0.20037934942E+01 -0.36725568590E+02  0.91576913463E+02  0.00000000000E+00 0. -1.
</event>
<event>
 6    1  0.3056346E-009  0.1300280E+03  0.7561462E-02  0.1227414E+00
          1   -1    0    0  501    0  0.00000000000E+00  0.00000000000E+00  0.70035710669E+03  0.70035710669E+03  0.00000000000E+00 0. -1.
         -1   -1    0    0    0  501 -0.00000000000E+00 -0.00000000000E+00 -0.73776746289E+02  0.73776746289E+02  0.00000000000E+00 0.  1.
          5    1    1    2  502    0  0.73188985740E+02  0.78071570944E+02  0.62593613880E+02  0.12404527690E+03  0.41800000000E+01 0. -1.
         -5    1    1    2    0  502 -0.26291345807E+02  0.14190279294E+02 -0.28659711197E+02  0.41610699786E+02  0.41800000000E+01 0. -1.
        -11    1    1    2    0    0 -0.63780539644E+02 -0.67940944060E+02  0.54083076735E+03  0.54880037175E+03  0.00000000000E+00 0. -1.
         11    1    1    2    0    0  0.16882899711E+02 -0.24320906178E+02  0.51815690360E+02  0.59677504534E+02  0.00000000000E+00 0.  1.
</event>
<event>
 7    1  0.3056346E-009  0.9470523E+02  0.7561462E-02  0.1291841E+00
         -1   -1    0    0    0  501 -0.00000000000E+00  0.00000000000E+00  0.31265679602E+03  0.31265679602E+03  0.00000000000E+00 0.  1.
          1   -1    0    0  501    0  0.00000000000E+00 -0.00000000000E+00 -0.41799781521E+02  0.41799781521E+02  0.00000000000E+00 0. -1.
         25    2    1    2    0    0 -0.26534037089E+02 -0.30804268561E+02  0.11983020986E+03  0.17792850581E+03  0.12508523453E+03 0.  0.
          5    1    3    3  502    0  0.25015285301E+02 -0.52849501069E+02  0.17508879869E+02  0.61178979529E+02  0.41800000000E+01 0. -1.
         -5    1    3    3    0  502 -0.51549322390E+02  0.22045232509E+02  0.10232132999E+03  0.11674952628E+03  0.41800000000E+01 0. -1.
        -11    1    1    2    0    0  0.44624976665E+02  0.77962602648E+01  0.13656318470E+03  0.14388076185E+03  0.00000000000E+00 0.  1.
         11    1    1    2    0    0 -0.18090939576E+02  0.23008008296E+02  0.14463619940E+02  0.32647309878E+02  0.00000000000E+00 0. -1.
</event>
<event>
 7    1  0.3056346E-009  0.1696571E+03  0.7561462E-02  0.1178206E+00
         -1   -1    0    0    0  501 -0.00000000000E+00  0.00000000000E+00  0.10766791769E+03  0.10766791769E+03  0.00000000000E+00 0.  1.
          1   -1    0    0  501    0  0.00000000000E+00 -0.00000000000E+00 -0.33144151301E+03  0.33144151301E+03  0.00000000000E+00 0. -1.
         25    2    1    2    0    0  0.13613347500E+03 -0.59212733770E+02 -0.68321166817E+02  0.20579756761E+03  0.12508551532E+03 0.  0.
          5    1    3    3  502    0  0.10718421546E+03 -0.70405336163E+01 -0.91979158358E+02  0.14147672293E+03  0.41800000000E+01 0. -1.
         -5    1    3    3    0  502  0.28949259538E+02 -0.52172200154E+02  0.23657991541E+02  0.64320844681E+02  0.41800000000E+01 0. -1.
        -11    1    1    2    0    0 -0.57231031956E+02  0.72104735796E+02 -0.10055528864E+03  0.13632993074E+03  0.00000000000E+00 0. -1.
         11    1    1    2    0    0 -0.78902443047E+02 -0.12892002026E+02 -0.54897139867E+02  0.96981932341E+02  0.00000000000E+00 0.  1.
</event>
<event>
 7    1  0.3056346E-009  0.3127302E+03  0.7561462E-02  0.1079045E+00
         -2   -1    0    0    0  501 -0.00000000000E+00  0.00000000000E+00  0.84246074445E+02  0.84246074445E+02  0.00000000000E+00 0.  1.
          2   -1    0    0  501    0  0.00000000000E+00 -0.00000000000E+00 -0.12942213561E+04  0.12942213561E+04  0.00000000000E+00 0. -1.
         25    2    1    2    0    0  0.30942417954E+03  0.19767477949E+01 -0.69398552357E+03  0.77007221009E+03  0.12509225161E+03 0.  0.
          5    1    3    3  502    0  0.26030361470E+03  0.14663441412E+02 -0.44355668464E+03  0.51452210179E+03  0.41800000000E+01 0. -1.
         -5    1    3    3    0  502  0.49120564837E+02 -0.12686693617E+02 -0.25042883893E+03  0.25555010830E+03  0.41800000000E+01 0. -1.
        -11    1    1    2    0    0 -0.29234007280E+02 -0.15885088434E+02 -0.20729532526E+02  0.39200468555E+02  0.00000000000E+00 0.  1.
         11    1    1    2    0    0 -0.28019017226E+03  0.13908340639E+02 -0.49526022556E+03  0.56919475190E+03  0.00000000000E+00 0. -1.
</event>
<event>
 7    1  0.3056346E-009  0.2316541E+03  0.7561462E-02  0.1125481E+00
         -2   -1    0    0    0  501 -0.00000000000E+00  0.00000000000E+00  0.89994187612E+02  0.89994187612E+02  0.00000000000E+00 0.  1.
          2   -1    0    0  501    0  0.00000000000E+00 -0.00000000000E+00 -0.75637652331E+03  0.75637652331E+03  0.00000000000E+00 0. -1.
         25    2    1    2    0    0  0.37639056791E+02 -0.22424710742E+03 -0.20753427419E+03  0.33230081543E+03  0.12509953314E+03 0.  0.
          5    1    3    3  502    0  0.54653626220E+02 -0.17377852956E+03 -0.21096854539E+03  0.27876727882E+03  0.41800000000E+01 0.  1.
         -5    1    3    3    0  502 -0.17014569429E+02 -0.50468577855E+02  0.34342711985E+01  0.53533536613E+02  0.41800000000E+01 0.  1.
        -11    1    1    2    0    0 -0.36280925854E+02  0.19241153204E+03 -0.35468396419E+03  0.40514098497E+03  0.00000000000E+00 0. -1.
         11    1    1    2    0    0 -0.13581309376E+01  0.31835575373E+02 -0.10416409732E+03  0.10892891053E+03  0.00000000000E+00 0.  1.
</event>
<event>
 7    1  0.3056346E-009  0.9039024E+02  0.7561462E-02  0.1301909E+00
          1   -1    0    0  501    0  0.00000000000E+00  0.00000000000E+00  0.33419358098E+03  0.33419358098E+03  0.00000000000E+00 0. -1.
         -1   -1    0    0    0  501 -0.00000000000E+00 -0.00000000000E+00 -0.37361823095E+02  0.37361823095E+02  0.00000000000E+00 0.  1.
         25    2    1    2    0    0 -0.13307994587E+02 -0.18724459023E+02  0.19210635902E+03  0.23038955153E+03  0.12508710641E+03 0.  0.
          5    1    3    3  502    0 -0.45489687592E+02  0.37859965869E+02  0.68460885849E+02  0.90592792120E+02  0.41800000000E+01 0. -1.
         -5    1    3    3    0  502  0.32181693005E+02 -0.56584424892E+02  0.12364547317E+03  0.13979675941E+03  0.41800000000E+01 0. -1.
        -11    1    1    2    0    0 -0.18460385298E+02 -0.15624079948E+01 -0.95439254883E+01  0.20840188526E+02  0.00000000000E+00 0.  1.
         11    1    1    2    0    0  0.31768379885E+02  0.20286867018E+02  0.11426932435E+03  0.12032566402E+03  0.00000000000E+00 0. -1.
</event>
<event>
 7    1  0.3056346E-009  0.8867071E+02  0.7561462E-02  0.1306103E+00
          1   -1    0    0  501    0  0.00000000000E+00  0.00000000000E+00  0.22948890390E+02  0.22948890390E+02  0.00000000000E+00 0. -1.
         -1   -1    0    0    0  501 -0.00000000000E+00 -0.00000000000E+00 -0.70911449257E+03  0.70911449257E+03  0.00000000000E+00 0.  1.
         25    2    1    2    0    0 -0.35642418570E+02  0.56795550979E+02 -0.39394403878E+03  0.41873221168E+03  0.12509453542E+03 0.  0.
          5    1    3    3  502    0 -0.36207986132E+02  0.54738159344E+02 -0.40310766955E+03  0.40843671480E+03  0.41800000000E+01 0. -1.
         -5    1    3    3    0  502  0.56556756203E+00  0.20573916349E+01  0.91636307703E+01  0.10295496875E+02  0.41800000000E+01 0. -1.
        -11    1    1    2    0    0  0.58941927103E+02 -0.59104874338E+02 -0.17621362573E+03  0.19498404764E+03  0.00000000000E+00 0. -1.
         11    1    1    2    0    0 -0.23299508534E+02  0.23093233592E+01 -0.11600793767E+03  0.11834712364E+03  0.00000000000E+00 0.  1.
</event>
<event>
 7    1  0.3056346E-009  0.1802066E+03  0.7561462E-02  0.1167603E+00
          3   -1    0    0  501    0  0.00000000000E+00  0.00000000000E+00  0.65670316500E+02  0.65670316500E+02  0.00000000000E+00 0. -1.
         -3   -1    0    0    0  501 -0.00000000000E+00 -0.00000000000E+00 -0.62603996910E+03  0.62603996910E+03  0.00000000000E+00 0.  1.
         25    2    1    2    0    0 -0.14495581135E+03 -0.42895269886E+02 -0.43309012927E+03  0.47546737602E+03  0.12509985674E+03 0.  0.
          5    1    3    3  502    0 -0.16016390427E+03 -0.19075596777E+02 -0.40237741808E+03  0.43352210279E+03  0.41800000000E+01 0.  1.
         -5    1    3    3    0  502  0.15208092920E+02 -0.23819673109E+02 -0.30712711192E+02  0.41945273227E+02  0.41800000000E+01 0.  1.
        -11    1    1    2    0    0  0.82188267963E+02 -0.16784062121E+02 -0.38782251274E+02  0.92415794894E+02  0.00000000000E+00 0.  1.
         11    1    1    2    0    0  0.62767543391E+02  0.59679332007E+02 -0.88497272056E+02  0.12382711469E+03  0.00000000000E+00 0. -1.
</event>
<event>
 7    1  0.3056346E-009  0.1445337E+03  0.7561462E-02  0.1207356E+00
         -1   -1    0    0    0  501 -0.00000000000E+00  0.00000000000E+00  0.23715959231E+02  0.23715959231E+02  0.00000000000E+00 0.  1.
          1   -1    0    0  501    0  0.00000000000E+00 -0.00000000000E+00 -0.12466960878E+04  0.12466960878E+04  0.00000000000E+00 0. -1.
         25    2    1    2    0    0 -0.12748918772E+03  0.44147374520E+01 -0.50608198766E+03  0.53669198612E+03  0.12508527828E+03 0.  0.
          5    1    3    3  502    0 -0.11265285898E+03  0.15608703914E+02 -0.20073717076E+03  0.23075351004E+03  0.41800000000E+01 0.  1.
         -5    1    3    3    0  502 -0.14836328739E+02 -0.11193966462E+02 -0.30534481690E+03  0.30593847608E+03  0.41800000000E+01 0.  1.
        -11    1    1    2    0    0 -0.97559356745E+01 -0.15720570769E+02 -0.85316716410E+02  0.87299809422E+02  0.00000000000E+00 0. -1.
         11    1    1    2    0    0  0.13724512339E+03  0.11305833317E+02 -0.63158142452E+03  0.64642025151E+03  0.00000000000E+00 0.  1.
</event>
<event>
 7    1  0.3056346E-009  0.1666458E+03  0.7561462E-02  0.1181392E+00
          1   -1    0    0  501    0  0.00000000000E+00  0.00000000000E+00  0.39098866837E+03  0.39098866837E+03  0.00000000000E+00 0. -1.
         -1   -1    0    0    0  501 -0.00000000000E+00 -0.00000000000E+00 -0.82759477802E+02  0.82759477802E+02  0.00000000000E+00 0.  1.
         25    2    1    2    0    0 -0.90476987748E+02 -0.10545689481E+03  0.20997207840E+03  0.28114595818E+03  0.12509010400E+03 0.  0.
          5    1    3    3  502    0  0.20639011934E+02 -0.11855153694E+02 -0.18680280759E+01  0.24237892062E+02  0.41800000000E+01 0.  1.
         -5    1    3    3    0  502 -0.11111599968E+03 -0.93601741117E+02  0.21184010648E+03  0.25690806612E+03  0.41800000000E+01 0.  1.
        -11    1    1    2    0    0  0.82002263625E+02  0.29189043137E+02  0.66566886557E+02  0.10957883858E+03  0.00000000000E+00 0.  1.
         11    1    1    2    0    0  0.84747241232E+01  0.76267851674E+02  0.31690225609E+02  0.83023349409E+02  0.00000000000E+00 0. -1.
</event>
<event>
 7    1  0.3056346E-009  0.1622353E+03  0.7561462E-02  0.1186196E+00
          2   -1    0    0  501    0  0.00000000000E+00  0.00000000000E+00  0.38918302366E+03  0.38918302366E+03  0.00000000000E+00 0. -1.
         -2   -1    0    0    0  501 -0.00000000000E+00 -0.00000000000E+00 -0.91112089370E+02  0.91112089370E+02  0.00000000000E+00 0.  1.
         25    2    1    2    0    0  0.10391790007E+03  0.61834853018E+02  0.27595082997E+03  0.32621856734E+03  0.12508882488E+03 0.  0.
          5    1    3    3  502    0  0.74251854578E+01 -0.34528971327E+02  0.38886049668E+02  0.52697063474E+02  0.41800000000E+01 0. -1.
         -5    1    3    3    0  502  0.96492714609E+02  0.96363824345E+02  0.23706478030E+03  0.27352150386E+03  0.41800000000E+01 0. -1.
        -11    1    1    2    0    0 -0.80980773368E+02 -0.86703821140E+02  0.16520279831E+02  0.11978463132E+03  0.00000000000E+00 0.  1.
         11    1    1    2    0    0 -0.22937126699E+02  0.24868968122E+02  0.55998244847E+01  0.34291914367E+02  0.00000000000E+00 0. -1.
</event>
<event>
 7    1  0.4072026E-009  0.9549729E+02  0.7561462E-02  0.1290060E+00
          1   -1    0    0  501    0  0.00000000000E+00  0.00000000000E+00  0.12531454621E+03  0.12531454621E+03  0.00000000000E+00 0. -1.
         -1   -1    0    0    0  501 -0.00000000000E+00 -0.00000000000E+00 -0.10575376838E+03  0.10575376838E+03  0.00000000000E+00 0.  1.
         25    2    1    2    0    0  0.90529226098E+01  0.37759235362E+02  0.49152702138E+01  0.13106686891E+03  0.12508656595E+03 0.  0.
          5    1    3    3  502    0 -0.51556296754E+02  0.17413409870E+02  0.29978863015E+02  0.62269440386E+02  0.41800000000E+01 0. -1.
         -5    1    3    3    0  502  0.60609219364E+02  0.20345825492E+02 -0.25063592801E+02  0.68797428520E+02  0.41800000000E+01 0. -1.
        -11    1    1    2    0    0  0.17462216772E+02 -0.42008805658E+02 -0.25158052269E+02  0.51986501723E+02  0.00000000000E+00 0.  1.
         11    1    1    2    0    0 -0.26515139382E+02  0.42495702962E+01  0.39803559886E+02  0.48014943963E+02  0.00000000000E+00 0. -1.
</event>
<event>
 7    1  0.3056346E-009  0.8940525E+02  0.7561462E-02  0.1304298E+00
         -1   -1    0    0    0  501 -0.00000000000E+00  0.00000000000E+00  0.25238557689E+02  0.25238557689E+02  0.00000000000E+00 0.  1.
          1   -1    0    0  501    0  0.00000000000E+00 -0.00000000000E+00 -0.69791217639E+03  0.69791217639E+03  0.00000000000E+00 0. -1.
         25    2    1    2    0    0 -0.21333176030E+02  0.29069035965E+02 -0.55629827342E+03  0.57132745178E+03  0.12508866816E+03 0.  0.
          5    1    3    3  502    0 -0.30553036296E+02  0.58523362116E+02 -0.15124779762E+03  0.16508131519E+03  0.41800000000E+01 0. -1.
         -5    1    3    3    0  502  0.92198602660E+01 -0.29454326151E+02 -0.40505047579E+03  0.40624613659E+03  0.41800000000E+01 0. -1.
        -11    1    1    2    0    0  0.40967387154E+02 -0.41468812827E+02 -0.36817831930E+02  0.68945935308E+02  0.00000000000E+00 0.  1.
         11    1    1    2    0    0 -0.19634211124E+02  0.12399776862E+02 -0.79557513354E+02  0.82877346988E+02  0.00000000000E+00 0. -1.
</event>
<event>
 7    1  0.3056346E-009  0.1800955E+03  0.7561462E-02  0.1167711E+00
          1   -1    0    0  501    0  0.00000000000E+00  0.00000000000E+00  0.11208898403E+04  0.11208898403E+04  0.00000000000E+00 0. -1.
         -1   -1    0    0    0  501 -0.00000000000E+00 -0.00000000000E+00 -0.34990747696E+02  0.34990747696E+02  0.00000000000E+00 0.  1.
         25    2    1    2    0    0 -0.92954741420E+02 -0.13069741052E+03  0.53507655529E+03  0.57243144059E+03  0.12509371322E+03 0.  0.
          5    1    3    3  502    0 -0.99045308042E+02 -0.11502126456E+03  0.29552104105E+03  0.33224993973E+03  0.41800000000E+01 0.  1.
         -5    1    3    3    0  502  0.60905666212E+01 -0.15676145958E+02  0.23955551424E+03  0.24018150086E+03  0.41800000000E+01 0.  1.
        -11    1    1    2    0    0 -0.27721318662E+01  0.84815161351E+02  0.27953033453E+03  0.29212754789E+03  0.00000000000E+00 0. -1.
         11    1    1    2    0    0  0.95726873287E+02  0.45882249171E+02  0.27129220283E+03  0.29132159957E+03  0.00000000000E+00 0.  1.
</event>
<event>
 7    1  0.3056346E-009  0.9789004E+02  0.7561462E-02  0.1284797E+00
          2   -1    0    0  501    0  0.00000000000E+00  0.00000000000E+00  0.67303667861E+03  0.67303667861E+03  0.00000000000E+00 0. -1.
         -2   -1    0    0    0  501 -0.00000000000E+00 -0.00000000000E+00 -0.35921955002E+02  0.35921955002E+02  0.00000000000E+00 0.  1.
         25    2    1    2    0    0 -0.10469079767E+02 -0.63410865015E+02  0.55061417753E+03  0.56829066490E+03  0.12509103840E+03 0.  0.
          5    1    3    3  502    0 -0.26373830742E+02 -0.91924875316E+02  0.28503782577E+03  0.30068221792E+03  0.41800000000E+01 0.  1.
         -5    1    3    3    0  502  0.15904750974E+02  0.28514010301E+02  0.26557635176E+03  0.26760844699E+03  0.41800000000E+01 0.  1.
        -11    1    1    2    0    0 -0.13338135361E+01  0.46485614206E+02  0.10379988773E+03  0.11374140882E+03  0.00000000000E+00 0. -1.
         11    1    1    2    0    0  0.11802893303E+02  0.16925250810E+02 -0.17299341660E+02  0.26926559884E+02  0.00000000000E+00 0.  1.
</event>
<event>
 7    1  0.3056346E-009  0.1304594E+03  0.7561462E-02  0.1226776E+00
         -4   -1    0    0    0  501 -0.00000000000E+00  0.00000000000E+00  0.36579890333E+03  0.36579890333E+03  0.00000000000E+00 0.  1.
          4   -1    0    0  501    0  0.00000000000E+00 -0.00000000000E+00 -0.58454164324E+02  0.58454164324E+02  0.00000000000E+00 0. -1.
         25    2    1    2    0    0  0.65932835716E+02  0.55583656759E+02  0.10368614506E+03  0.18394454633E+03  0.12509235677E+03 0.  0.
          5    1    3    3  502    0 -0.30708548668E+02  0.42184223549E+02  0.22608608971E+02  0.57018815117E+02  0.41800000000E+01 0. -1.
         -5    1    3    3    0  502  0.96641384384E+02  0.13399433210E+02  0.81077536091E+02  0.12692573122E+03  0.41800000000E+01 0. -1.
        -11    1    1    2    0    0 -0.73799634828E+02 -0.22854860163E+02  0.76326515342E+02  0.10860233735E+03  0.00000000000E+00 0. -1.
         11    1    1    2    0    0  0.78667991121E+01 -0.32728796596E+02  0.12733207861E+03  0.13170618397E+03  0.00000000000E+00 0.  1.
</event>
<event>
 7    1  0.3056346E-009  0.1589644E+03  0.7561462E-02  0.1189871E+00
          2   -1    0    0  501    0  0.00000000000E+00  0.00000000000E+00  0.61467873343E+02  0.61467873343E+02  0.00000000000E+00 0. -1.
         -2   -1    0    0    0  501 -0.00000000000E+00 -0.00000000000E+00 -0.52266464732E+03  0.52266464732E+03  0.00000000000E+00 0.  1.
         25    2    1    2    0    0 -0.62983647155E+02 -0.11696548850E+03 -0.37468604545E+03  0.41675457579E+03  0.12508748329E+03 0.  0.
          5    1    3    3  502    0 -0.49117660705E+02 -0.14148425143E+03 -0.27602606322E+03  0.31406718704E+03  0.41800000000E+01 0. -1.
         -5    1    3    3    0  502 -0.13865986450E+02  0.24518762921E+02 -0.98659982228E+02  0.10268738875E+03  0.41800000000E+01 0. -1.
        -11    1    1    2    0    0  0.69966437457E+01  0.57606004222E+02 -0.54863186714E+02  0.79858462310E+02  0.00000000000E+00 0. -1.
         11    1    1    2    0    0  0.55987003409E+02  0.59359484282E+02 -0.31647541808E+02  0.87519482560E+02  0.00000000000E+00 0.  1.
</event>
<event>
 7    1  0.3056346E-009  0.1105421E+03  0.7561462E-02  0.1259569E+00
         -1   -1    0    0    0  501 -0.00000000000E+00  0.00000000000E+00  0.81082998381E+03  0.81082998381E+03  0.00000000000E+00 0.  1.
          1   -1    0    0  501    0  0.00000000000E+00 -0.00000000000E+00 -0.15347789322E+02  0.15347789322E+02  0.00000000000E+00 0. -1.
         25    2    1    2    0    0 -0.22270552137E+01  0.19590400025E+02  0.48372820232E+03  0.50002944872E+03  0.12509089623E+03 0.  0.
          5    1    3    3  502    0 -0.28271969869E+02 -0.46230607859E+02  0.17416485894E+03  0.18244846909E+03  0.41800000000E+01 0.  1.
         -5    1    3    3    0  502  0.26044914656E+02  0.65821007884E+02  0.30956334337E+03  0.31758097962E+03  0.41800000000E+01 0.  1.
        -11    1    1    2    0    0  0.55218406196E+01 -0.57503106051E+02  0.18843621760E+03  0.19709212575E+03  0.00000000000E+00 0.  1.
         11    1    1    2    0    0 -0.32947854059E+01  0.37912706025E+02  0.12331777457E+03  0.12905619867E+03  0.00000000000E+00 0. -1.
</event>
<event>
 7    1  0.3056346E-009  0.1061570E+03  0.7561462E-02  0.1267857E+00
         -2   -1    0    0    0  501 -0.00000000000E+00  0.00000000000E+00  0.24936219847E+02  0.24936219847E+02  0.00000000000E+00 0.  1.
          2   -1    0    0  501    0  0.00000000000E+00 -0.00000000000E+00 -0.59063972295E+03  0.59063972295E+03  0.00000000000E+00 0. -1.
         25    2    1    2    0    0  0.19927633769E+02  0.46341112570E+02 -0.36862045685E+03  0.39252138353E+03  0.12508951203E+03 0.  0.
          5    1    3    3  502    0  0.27226113871E+02 -0.24460264252E+02 -0.33149435600E+02  0.49557272770E+02  0.41800000000E+01 0. -1.
         -5    1    3    3    0  502 -0.72984801019E+01  0.70801376822E+02 -0.33547102125E+03  0.34296411076E+03  0.41800000000E+01 0. -1.
        -11    1    1    2    0    0  0.35266771421E+02 -0.59104910640E+01 -0.60039272901E+02  0.69881280480E+02  0.00000000000E+00 0. -1.
         11    1    1    2    0    0 -0.55194405190E+02 -0.40430621506E+02 -0.13704377335E+03  0.15317327879E+03  0.00000000000E+00 0.  1.
</event>
<event>
 7    1  0.3056346E-009  0.1481537E+03  0.7561462E-02  0.1202760E+00
         -1   -1    0    0    0  501 -0.00000000000E+00  0.00000000000E+00  0.26409374084E+02  0.26409374084E+02  0.00000000000E+00 0.  1.
          1   -1    0    0  501    0  0.00000000000E+00 -0.00000000000E+00 -0.91384303701E+03  0.91384303701E+03  0.00000000000E+00 0. -1.
         25    2    1    2    0    0 -0.33551690295E+02  0.96336539649E+02 -0.61180678465E+03  0.63274133379E+03  0.12509040309E+03 0.  0.
          5    1    3    3  502    0 -0.81001538801E+02  0.68761244549E+02 -0.39645405386E+03  0.41046637775E+03  0.41800000000E+01 0.  1.
         -5    1    3    3    0  502  0.47449848506E+02  0.27575295100E+02 -0.21535273079E+03  0.22227495604E+03  0.41800000000E+01 0.  1.
        -11    1    1    2    0    0  0.64014428175E+02 -0.65769980810E+02 -0.16575789154E+03  0.18947088430E+03  0.00000000000E+00 0.  1.
         11    1    1    2    0    0 -0.30462737881E+02 -0.30566558838E+02 -0.10986898673E+03  0.11804019300E+03  0.00000000000E+00 0. -1.
</event>
<event>
 7    1  0.3056346E-009  0.1493085E+03  0.7561462E-02  0.1201325E+00
          2   -1    0    0  501    0  0.00000000000E+00  0.00000000000E+00  0.55216283468E+03  0.55216283468E+03  0.00000000000E+00 0. -1.
         -2   -1    0    0    0  501 -0.00000000000E+00 -0.00000000000E+00 -0.62562642681E+02  0.62562642681E+02  0.00000000000E+00 0.  1.
         25    2    1    2    0    0 -0.43085679944E+02  0.13744694848E+03  0.32607300124E+03  0.37778095117E+03  0.12508719147E+03 0.  0.
          5    1    3    3  502    0 -0.50893086106E+02  0.88207059954E+02  0.88454778029E+02  0.13495299847E+03  0.41800000000E+01 0.  1.
         -5    1    3    3    0  502  0.78074061626E+01  0.49239888526E+02  0.23761822321E+03  0.24282795271E+03  0.41800000000E+01 0.  1.
        -11    1    1    2    0    0  0.34527949418E+02 -0.63986516328E+02  0.19880336215E+02  0.75376928372E+02  0.00000000000E+00 0.  1.
         11    1    1    2    0    0  0.85577305260E+01 -0.73460432152E+02  0.14364685454E+03  0.16156759782E+03  0.00000000000E+00 0. -1.
</event>
<event>
 7    1  0.3056346E-009  0.8345813E+02  0.7561462E-02  0.1319515E+00
          1   -1    0    0  501    0  0.00000000000E+00  0.00000000000E+00  0.14114530590E+03  0.14114530590E+03  0.00000000000E+00 0. -1.
         -1   -1    0    0    0  501 -0.00000000000E+00 -0.00000000000E+00 -0.12183198988E+03  0.12183198988E+03  0.00000000000E+00 0.  1.
         25    2    1    2    0    0 -0.12982488865E+01  0.22170069198E+02  0.80803254940E+02  0.15056602112E+03  0.12509102001E+03 0.  0.
          5    1    3    3  502    0 -0.40672467291E+02  0.77405609300E+01  0.96897190905E+02  0.10545474804E+03  0.41800000000E+01 0. -1.
         -5    1    3    3    0  502  0.39374218405E+02  0.14429508268E+02 -0.16093935966E+02  0.45111273078E+02  0.41800000000E+01 0. -1.
        -11    1    1    2    0    0 -0.20308847166E+02 -0.46427656786E+02 -0.61805611951E+02  0.79924403385E+02  0.00000000000E+00 0.  1.
         11    1    1    2    0    0  0.21607096052E+02  0.24257587588E+02  0.31567302964E+00  0.32486871269E+02  0.00000000000E+00 0. -1.
</event>
<event>
 7    1  0.3056346E-009  0.1197786E+03  0.7561462E-02  0.1243463E+00
          1   -1    0    0  501    0  0.00000000000E+00  0.00000000000E+00  0.19478100736E+04  0.19478100736E+04  0.00000000000E+00 0. -1.
         -1   -1    0    0    0  501 -0.00000000000E+00 -0.00000000000E+00 -0.10169245047E+02  0.10169245047E+02  0.00000000000E+00 0.  1.
         25    2    1    2    0    0  0.35489043749E+02 -0.72686788528E+02  0.13311041560E+04  0.13394128401E+04  0.12508253610E+03 0.  0.
          5    1    3    3  502    0  0.34881786592E+02  0.96681867718E+01  0.11773060048E+03  0.12324033253E+03  0.41800000000E+01 0. -1.
         -5    1    3    3    0  502  0.60725715700E+00 -0.82354975300E+02  0.12133735555E+04  0.12161725076E+04  0.41800000000E+01 0. -1.
        -11    1    1    2    0    0  0.22696269987E+02  0.55538381471E+02  0.33577707719E+03  0.34109511585E+03  0.00000000000E+00 0.  1.
         11    1    1    2    0    0 -0.58185313735E+02  0.17148407057E+02  0.27075959536E+03  0.27747136263E+03  0.00000000000E+00 0. -1.
</event>
<event>
 7    1  0.3056346E-009  0.1991607E+03  0.7561462E-02  0.1150449E+00
          2   -1    0    0  501    0  0.00000000000E+00  0.00000000000E+00  0.76235197922E+03  0.76235197922E+03  0.00000000000E+00 0. -1.
         -2   -1    0    0    0  501 -0.00000000000E+00 -0.00000000000E+00 -0.58442487200E+02  0.58442487200E+02  0.00000000000E+00 0.  1.
         25    2    1    2    0    0 -0.16185912413E+03 -0.76828011194E+02  0.32439124941E+03  0.39112346829E+03  0.12508783068E+03 0.  0.
          5    1    3    3  502    0 -0.98423415341E+02 -0.94072767755E+02  0.28091697877E+03  0.31219973684E+03  0.41800000000E+01 0. -1.
         -5    1    3    3    0  502 -0.63435708787E+02  0.17244756561E+02  0.43474270640E+02  0.78923731450E+02  0.41800000000E+01 0. -1.
        -11    1    1    2    0    0 -0.41680421747E+01  0.20492261516E+02  0.79269141357E+02  0.81981108367E+02  0.00000000000E+00 0.  1.
         11    1    1    2    0    0  0.16602716630E+03  0.56335749678E+02  0.30024910125E+03  0.34768988976E+03  0.00000000000E+00 0. -1.
</event>
<event>
 6    1  0.3056346E-009  0.1082873E+03  0.7561462E-02  0.1263775E+00
          2   -1    0    0  501    0  0.00000000000E+00  0.00000000000E+00  0.96172537755E+03  0.96172537755E+03  0.00000000000E+00 0. -1.
         -2   -1    0    0    0  501 -0.00000000000E+00 -0.00000000000E+00 -0.22064880513E+02  0.22064880513E+02  0.00000000000E+00 0.  1.
          5    1    1    2  502    0  0.69689728957E+02 -0.24139363636E+02  0.63552734436E+03  0.63980609955E+03  0.41800000000E+01 0.  1.
         -5    1    1    2    0  502  0.13884089130E+02 -0.90306167545E+01  0.34089823600E+01  0.17418769494E+02  0.41800000000E+01 0.  1.
        -11    1    1    2    0    0 -0.10215819241E+03  0.31774121474E+02  0.27243812634E+03  0.29269168720E+03  0.00000000000E+00 0.  1.
         11    1    1    2    0    0  0.18584374319E+02  0.13958589171E+01  0.28286043977E+02  0.33873701817E+02  0.00000000000E+00 0. -1.
</event>
<event>
 7    1  0.3056346E-009  0.1474631E+03  0.7561462E-02  0.1203625E+00
          3   -1    0    0  501    0  0.00000000000E+00  0.00000000000E+00  0.55211519017E+03  0.55211519017E+03  0.00000000000E+00 0. -1.
         -3   -1    0    0    0  501 -0.00000000000E+00 -0.00000000000E+00 -0.51986839119E+02  0.51986839119E+02  0.00000000000E+00 0.  1.
         25    2    1    2    0    0 -0.36278070177E+02  0.12058209405E+03  0.29866822737E+03  0.34742968362E+03  0.12509410552E+03 0.  0.
          5    1    3    3  502    0 -0.56816515363E+02  0.10328006010E+03  0.12583514520E+03  0.17247273233E+03  0.41800000000E+01 0. -1.
         -5    1    3    3    0  502  0.20538445187E+02  0.17302033958E+02  0.17283308217E+03  0.17495695129E+03  0.41800000000E+01 0. -1.
        -11    1    1    2    0    0 -0.25474916089E+02 -0.49250075447E+02  0.11933319137E+03  0.13158629048E+03  0.00000000000E+00 0. -1.
         11    1    1    2    0    0  0.61752986265E+02 -0.71332018606E+02  0.82126932313E+02  0.12508605519E+03  0.00000000000E+00 0.  1.
</event>
<event>
 7    1  0.3056346E-009  0.1243816E+03  0.7561462E-02  0.1236039E+00
          1   -1    0    0  501    0  0.00000000000E+00  0.00000000000E+00  0.11515413582E+04  0.11515413582E+04  0.00000000000E+00 0. -1.
         -1   -1    0    0    0  501 -0.00000000000E+00 -0.00000000000E+00 -0.16930225829E+02  0.16930225829E+02  0.00000000000E+00 0.  1.
         25    2    1    2    0    0  0.39861856476E+02 -0.34248244227E+02  0.85566240882E+03  0.86635403953E+03  0.12509697883E+03 0.  0.
          5    1    3    3  502    0 -0.44429408361E+02 -0.23302907184E+02  0.34345939684E+03  0.34712941029E+03  0.41800000000E+01 0.  1.
         -5    1    3    3    0  502  0.84291264838E+02 -0.10945337043E+02  0.51220301197E+03  0.51922462924E+03  0.41800000000E+01 0.  1.
        -11    1    1    2    0    0 -0.73933063549E+02  0.24304339923E+02  0.15895023053E+03  0.17698015315E+03  0.00000000000E+00 0. -1.
         11    1    1    2    0    0  0.34071207073E+02  0.99439043035E+01  0.11999849299E+03  0.12513739131E+03  0.00000000000E+00 0.  1.
</event>
<event>
 7    1  0.3056346E-009  0.1050490E+03  0.7561462E-02  0.1270023E+00
         -2   -1    0    0    0  501 -0.00000000000E+00  0.00000000000E+00  0.46724953353E+03  0.46724953353E+03  0.00000000000E+00 0.  1.
          2   -1    0    0  501    0  0.00000000000E+00 -0.00000000000E+00 -0.29735369427E+02  0.29735369427E+02  0.00000000000E+00 0. -1.
         25    2    1    2    0    0 -0.41699195965E+02  0.18483052218E+02  0.23908355364E+03  0.27365685796E+03  0.12508670642E+03 0.  0.
          5    1    3    3  502    0 -0.49890916862E+02 -0.33548934492E+02  0.19728392508E+03  0.20628391621E+03  0.41800000000E+01 0.  1.
         -5    1    3    3    0  502  0.81917208968E+01  0.52031986710E+02  0.41799628563E+02  0.67372941751E+02  0.41800000000E+01 0.  1.
        -11    1    1    2    0    0  0.26015374890E+02 -0.53021471922E+02  0.15383120935E+03  0.16477899497E+03  0.00000000000E+00 0.  1.
         11    1    1    2    0    0  0.15683821075E+02  0.34538419705E+02  0.44599401120E+02  0.58549050031E+02  0.00000000000E+00 0. -1.
</event>
<event>
 6    1  0.3056346E-009  0.1060894E+03  0.7561462E-02  0.1267988E+00
          1   -1    0    0  501    0  0.00000000000E+00  0.00000000000E+00  0.28851173389E+03  0.28851173389E+03  0.00000000000E+00 0.  1.
         -1   -1    0    0    0  501 -0.00000000000E+00 -0.00000000000E+00 -0.99574588174E+02  0.99574588174E+02  0.00000000000E+00 0. -1.
          5    1    1    2  502    0 -0.33441146827E+02 -0.10591717579E+02 -0.62214084400E+02  0.71544108633E+02  0.41800000000E+01 0. -1.
         -5    1    1    2    0  502 -0.25851236806E+02 -0.55734548400E+02  0.54459964345E+02  0.82206973221E+02  0.41800000000E+01 0. -1.
        -11    1    1    2    0    0  0.87468709627E+00  0.55929711531E+02  0.14580984856E+03  0.15617109094E+03  0.00000000000E+00 0.  1.
         11    1    1    2    0    0  0.58417696536E+02  0.10396554447E+02  0.50881417212E+02  0.78164149266E+02  0.00000000000E+00 0. -1.
</event>
<event>
 7    1  0.3056346E-009  0.8631401E+02  0.7561462E-02  0.1312032E+00
         -1   -1    0    0    0  501 -0.00000000000E+00  0.00000000000E+00  0.34211611306E+02  0.34211611306E+02  0.00000000000E+00 0.  1.
          1   -1    0    0  501    0  0.00000000000E+00 -0.00000000000E+00 -0.33731278489E+03  0.33731278489E+03  0.00000000000E+00 0. -1.
         25    2    1    2    0    0 -0.25986074344E+02  0.95241593424E+01 -0.18980992468E+03  0.22900028314E+03  0.12508931409E+03 0.  0.
          5    1    3    3  502    0 -0.60292598808E+02  0.20431135684E+02 -0.18070135858E+03  0.19163267511E+03  0.41800000000E+01 0. -1.
         -5    1    3    3    0  502  0.34306524464E+02 -0.10906976342E+02 -0.91085661010E+01  0.37367608033E+02  0.41800000000E+01 0. -1.
        -11    1    1    2    0    0  0.23445002411E+02  0.27125063699E+02 -0.17431664316E+02  0.39866027386E+02  0.00000000000E+00 0.  1.
         11    1    1    2    0    0  0.25410719329E+01 -0.36649223041E+02 -0.95859584585E+02  0.10265808567E+03  0.00000000000E+00 0. -1.
</event>
<event>
 7    1  0.3056346E-009  0.1238428E+03  0.7561462E-02  0.1236889E+00
          1   -1    0    0  501    0  0.00000000000E+00  0.00000000000E+00  0.25863424543E+03  0.25863424543E+03  0.00000000000E+00 0. -1.
         -1   -1    0    0    0  501 -0.00000000000E+00 -0.00000000000E+00 -0.81729124887E+02  0.81729124887E+02  0.00000000000E+00 0.  1.
         25    2    1    2    0    0 -0.90435715130E+02  0.21188227423E+02  0.65307677269E+02  0.16892895634E+03  0.12507733619E+03 0.  0.
          5    1    3    3  502    0  0.15791627878E+02 -0.11990945433E+02 -0.20131122349E+02  0.28563836761E+02  0.41800000000E+01 0. -1.
         -5    1    3    3    0  502 -0.10622734301E+03  0.33179172856E+02  0.85438799619E+02  0.14036511958E+03  0.41800000000E+01 0. -1.
        -11    1    1    2    0    0 -0.11860261715E+01  0.16820192628E+02 -0.57176217517E+01  0.17804963820E+02  0.00000000000E+00 0.  1.
         11    1    1    2    0    0  0.91621741302E+02 -0.38008420051E+02  0.11731506503E+03  0.15362945016E+03  0.00000000000E+00 0. -1.
</event>
<event>
 7    1  0.3056346E-009  0.1222953E+03  0.7561462E-02  0.1239358E+00
         -1   -1    0    0    0  501 -0.00000000000E+00  0.00000000000E+00  0.10735906859E+03  0.10735906859E+03  0.00000000000E+00 0.  1.
          1   -1    0    0  501    0  0.00000000000E+00 -0.00000000000E+00 -0.17188836164E+03  0.17188836164E+03  0.00000000000E+00 0. -1.
         25    2    1    2    0    0  0.62891251401E+02 -0.21752748744E+02 -0.81959602746E+02  0.16368408657E+03  0.12508641866E+03 0.  0.
          5    1    3    3  502    0  0.34591842713E+02 -0.68131501853E+02 -0.16091814271E+02  0.78197928448E+02  0.41800000000E+01 0.  1.
         -5    1    3    3    0  502  0.28299408688E+02  0.46378753110E+02 -0.65867788475E+02  0.85486158123E+02  0.41800000000E+01 0.  1.
        -11    1    1    2    0    0 -0.68057202540E+02 -0.20445165417E+02  0.16914961408E+02  0.73047269121E+02  0.00000000000E+00 0.  1.
         11    1    1    2    0    0  0.51659511395E+01  0.42197914160E+02  0.51534828715E+00  0.42516074543E+02  0.00000000000E+00 0. -1.
</event>
<event>
 7    1  0.3056346E-009  0.9810495E+02  0.7561462E-02  0.1284332E+00
          2   -1    0    0  501    0  0.00000000000E+00  0.00000000000E+00  0.32369019264E+03  0.32369019264E+03  0.00000000000E+00 0. -1.
         -2   -1    0    0    0  501 -0.00000000000E+00 -0.00000000000E+00 -0.61736569323E+02  0.61736569323E+02  0.00000000000E+00 0.  1.
         25    2    1    2    0    0 -0.63717882904E+02  0.11714949908E+02  0.22359255566E+03  0.26426886985E+03  0.12508875239E+03 0.  0.
          5    1    3    3  502    0 -0.47080664057E+02  0.34337584851E+02  0.24814519080E+02  0.63473548968E+02  0.41800000000E+01 0. -1.
         -5    1    3    3    0  502 -0.16637218847E+02 -0.22622634943E+02  0.19877803658E+03  0.20079532088E+03  0.41800000000E+01 0. -1.
        -11    1    1    2    0    0  0.46625185219E+02 -0.49453832720E+02  0.53365526719E+01  0.68176742822E+02  0.00000000000E+00 0.  1.
         11    1    1    2    0    0  0.17092697685E+02  0.37738882812E+02  0.33024514993E+02  0.52981149295E+02  0.00000000000E+00 0. -1.
</event>
<event>
 7    1  0.3056346E-009  0.2169693E+03  0.7561462E-02  0.1136163E+00
          2   -1    0    0  501    0  0.00000000000E+00  0.00000000000E+00  0.95198156175E+03  0.95198156175E+03  0.00000000000E+00 0. -1.
         -2   -1    0    0    0  501 -0.00000000000E+00 -0.00000000000E+00 -0.77404611402E+02  0.77404611402E+02  0.00000000000E+00 0.  1.
         25    2    1    2    0    0  0.16172853387E+03 -0.10667471678E+03  0.73909575575E+03  0.77423800703E+03  0.12508533687E+03 0.  0.
          5    1    3    3  502    0  0.16770958212E+03 -0.12441831932E+03  0.63738377529E+03  0.67073241424E+03  0.41800000000E+01 0.  1.
         -5    1    3    3    0  502 -0.59810482552E+01  0.17743602537E+02  0.10171198046E+03  0.10350559279E+03  0.41800000000E+01 0.  1.
        -11    1    1    2    0    0 -0.60352439131E+02  0.81537916092E+02  0.10577942242E+03  0.14656102782E+03  0.00000000000E+00 0. -1.
         11    1    1    2    0    0 -0.10137609474E+03  0.25136800689E+02  0.29701772182E+02  0.10858713830E+03  0.00000000000E+00 0.  1.
</event>
<event>
 7    1  0.3056346E-009  0.1786797E+03  0.7561462E-02  0.1169087E+00
          1   -1    0    0  501    0  0.00000000000E+00  0.00000000000E+00  0.12651989264E+04  0.12651989264E+04  0.00000000000E+00 0. -1.
         -1   -1    0    0    0  501 -0.00000000000E+00 -0.00000000000E+00 -0.32421138736E+02  0.32421138736E+02  0.00000000000E+00 0.  1.
         25    2    1    2    0    0  0.16965993689E+03 -0.29129452974E+01  0.57589475272E+03  0.61326589492E+03  0.12508921705E+03 0.  0.
          5    1    3    3  502    0  0.60524137891E+02  0.17761407113E+02  0.40159043844E+03  0.40653535086E+03  0.41800000000E+01 0.  1.
         -5    1    3    3    0  502  0.10913579900E+03 -0.20674352410E+02  0.17430431428E+03  0.20673054407E+03  0.41800000000E+01 0.  1.
        -11    1    1    2    0    0 -0.11383429998E+03  0.34371242151E+02  0.51690978731E+03  0.53041055641E+03  0.00000000000E+00 0. -1.
         11    1    1    2    0    0 -0.55825636916E+02 -0.31458296854E+02  0.13997324765E+03  0.15394361382E+03  0.00000000000E+00 0.  1.
</event>
<event>
 7    1  0.3056346E-009  0.2001079E+03  0.7561462E-02  0.1149648E+00
         -2   -1    0    0    0  501 -0.00000000000E+00  0.00000000000E+00  0.30321568813E+02  0.30321568813E+02  0.00000000000E+00 0. -1.
          2   -1    0    0  501    0  0.00000000000E+00 -0.00000000000E+00 -0.15046609604E+04  0.15046609604E+04  0.00000000000E+00 0.  1.
         25    2    1    2    0    0 -0.10006366154E+03  0.14662351411E+03 -0.90650017486E+03  0.93214886053E+03  0.12509092661E+03 0.  0.
          5    1    3    3  502    0  0.24209582547E+02  0.42040044172E+02 -0.31491528231E+03  0.31865745972E+03  0.41800000000E+01 0. -1.
         -5    1    3    3    0  502 -0.12427324409E+03  0.10458346994E+03 -0.59158489255E+03  0.61349140081E+03  0.41800000000E+01 0. -1.
        -11    1    1    2    0    0  0.89927601718E+02 -0.76123901444E+02 -0.24017765850E+03  0.26752033486E+03  0.00000000000E+00 0.  1.
         11    1    1    2    0    0  0.10136059827E+02 -0.70499612670E+02 -0.32766155819E+03  0.33531333378E+03  0.00000000000E+00 0. -1.
</event>
<event>
 7    1  0.3056346E-009  0.1205918E+03  0.7561462E-02  0.1242124E+00
         -2   -1    0    0    0  501 -0.00000000000E+00  0.00000000000E+00  0.63273025919E+02  0.63273025919E+02  0.00000000000E+00 0.  1.
          2   -1    0    0  501    0  0.00000000000E+00 -0.00000000000E+00 -0.31054445739E+03  0.31054445739E+03  0.00000000000E+00 0. -1.
         25    2    1    2    0    0 -0.86830223019E+02  0.19698947015E+02 -0.95374830706E+02  0.18075505540E+03  0.12509394700E+03 0.  0.
          5    1    3    3  502    0 -0.15004674693E+02 -0.49007464573E+02 -0.48861101173E+02  0.70934839497E+02  0.41800000000E+01 0. -1.
         -5    1    3    3    0  502 -0.71825548326E+02  0.68706411588E+02 -0.46513729532E+02  0.10982021590E+03  0.41800000000E+01 0. -1.
        -11    1    1    2    0    0  0.29978160521E+02 -0.14164743679E+02 -0.26540904277E+01  0.33262204793E+02  0.00000000000E+00 0.  1.
         11    1    1    2    0    0  0.56852062498E+02 -0.55342033364E+01 -0.14924251033E+03  0.15980022312E+03  0.00000000000E+00 0. -1.
</event>
<event>
 7    1  0.3056346E-009  0.1117871E+03  0.7561462E-02  0.1257296E+00
          4   -1    0    0  501    0  0.00000000000E+00  0.00000000000E+00  0.82742011480E+02  0.82742011480E+02  0.00000000000E+00 0. -1.
         -4   -1    0    0    0  501 -0.00000000000E+00 -0.00000000000E+00 -0.17745061166E+03  0.17745061166E+03  0.00000000000E+00 0.  1.
         25    2    1    2    0    0  0.27599890159E+02 -0.31579547461E+02 -0.17365760713E+02  0.13307201602E+03  0.12509024762E+03 0.  0.
          5    1    3    3  502    0  0.54974458373E+02 -0.61045332530E+02 -0.34444157506E+02  0.89177329425E+02  0.41800000000E+01 0. -1.
         -5    1    3    3    0  502 -0.27374568214E+02  0.29465785068E+02  0.17078396793E+02  0.43894686599E+02  0.41800000000E+01 0. -1.
        -11    1    1    2    0    0 -0.39305988225E+02 -0.22675498876E+02 -0.35315428395E+02  0.57500595148E+02  0.00000000000E+00 0. -1.
         11    1    1    2    0    0  0.11706098066E+02  0.54255046337E+02 -0.42027411073E+02  0.69620011968E+02  0.00000000000E+00 0.  1.
</event>
<event>
 7    1  0.3056346E-009  0.1035094E+03  0.7561462E-02  0.1273085E+00
         -1   -1    0    0    0  501 -0.00000000000E+00  0.00000000000E+00  0.42488816110E+02  0.42488816110E+02  0.00000000000E+00 0.  1.
          1   -1    0    0  501    0  0.00000000000E+00 -0.00000000000E+00 -0.28948322570E+03  0.28948322570E+03  0.00000000000E+00 0. -1.
         25    2    1    2    0    0 -0.43969436588E+01 -0.15082323043E+02 -0.15465929476E+03  0.19953408543E+03  0.12509014433E+03 0.  0.
          5    1    3    3  502    0  0.28528233975E+02  0.43382242840E+02 -0.36556858640E+02  0.63637688843E+02  0.41800000000E+01 0. -1.
         -5    1    3    3    0  502 -0.32925177634E+02 -0.58464565883E+02 -0.11810243612E+03  0.13589639658E+03  0.41800000000E+01 0. -1.
        -11    1    1    2    0    0 -0.19079805364E+02 -0.30759789251E+02 -0.64325415608E+02  0.73810315679E+02  0.00000000000E+00 0. -1.
         11    1    1    2    0    0  0.23476749023E+02  0.45842112294E+02 -0.28009699217E+02  0.58627640704E+02  0.00000000000E+00 0.  1.
</event>
<event>
 7    1  0.3056346E-009  0.1008444E+03  0.7561462E-02  0.1278530E+00
         -2   -1    0    0    0  501 -0.00000000000E+00  0.00000000000E+00  0.11129693263E+03  0.11129693263E+03  0.00000000000E+00 0.  1.
          2   -1    0    0  501    0  0.00000000000E+00 -0.00000000000E+00 -0.13840426429E+03  0.13840426429E+03  0.00000000000E+00 0. -1.
         25    2    1    2    0    0 -0.20066454349E+02 -0.49195911902E+02  0.84815684924E+00  0.13590968352E+03  0.12509125616E+03 0.  0.
          5    1    3    3  502    0 -0.23491000969E+02  0.14195476152E+02 -0.48167835155E+02  0.55596325537E+02  0.41800000000E+01 0.  1.
         -5    1    3    3    0  502  0.34245466203E+01 -0.63391388054E+02  0.49015992004E+02  0.80313357987E+02  0.41800000000E+01 0.  1.
        -11    1    1    2    0    0  0.88442811215E+01 -0.29507530563E+02 -0.78929167759E+01  0.31799588106E+02  0.00000000000E+00 0.  1.
         11    1    1    2    0    0  0.11222173227E+02  0.78703442466E+02 -0.20062571734E+02  0.81991925288E+02  0.00000000000E+00 0. -1.
</event>
<event>
 7    1  0.3056346E-009  0.1419940E+03  0.7561462E-02  0.1210671E+00
          1   -1    0    0  501    0  0.00000000000E+00  0.00000000000E+00  0.28701715715E+03  0.28701715715E+03  0.00000000000E+00 0. -1.
         -1   -1    0    0    0  501 -0.00000000000E+00 -0.00000000000E+00 -0.90396264266E+02  0.90396264266E+02  0.00000000000E+00 0.  1.
         25    2    1    2    0    0  0.12834070841E+02  0.11959595004E+03  0.12271584370E+03  0.21254332085E+03  0.12509028861E+03 0.  0.
          5    1    3    3  502    0  0.56003570244E+02  0.52530322335E+02  0.14835966686E+02  0.78316109149E+02  0.41800000000E+01 0.  1.
         -5    1    3    3    0  502 -0.43169499403E+02  0.67065627702E+02  0.10787987701E+03  0.13422721171E+03  0.41800000000E+01 0.  1.
        -11    1    1    2    0    0 -0.27809642467E+02 -0.87313073792E+02  0.10597352294E+02  0.92245612063E+02  0.00000000000E+00 0.  1.
         11    1    1    2    0    0  0.14975571626E+02 -0.32282876246E+02  0.63307696889E+02  0.72624488498E+02  0.00000000000E+00 0. -1.
</event>
<event>
 7    1  0.3056346E-009  0.2452992E+03  0.7561462E-02  0.1116312E+00
          2   -1    0    0  501    0  0.00000000000E+00  0.00000000000E+00  0.16399430002E+04  0.16399430002E+04  0.00000000000E+00 0. -1.
         -2   -1    0    0    0  501 -0.00000000000E+00 -0.00000000000E+00 -0.91408506924E+02  0.91408506924E+02  0.00000000000E+00 0.  1.
         25    2    1    2    0    0  0.19443662661E+03  0.12208002046E+03  0.14424553737E+04  0.14659585656E+04  0.12509147839E+03 0.  0.
          5    1    3    3  502    0  0.11912478986E+03  0.70630065879E+01  0.53696459461E+03  0.55008094849E+03  0.41800000000E+01 0. -1.
         -5    1    3    3    0  502  0.75311836750E+02  0.11501701387E+03  0.90549077904E+03  0.91587761713E+03  0.41800000000E+01 0. -1.
        -11    1    1    2    0    0 -0.13355665169E+03 -0.59086588182E+02  0.29405920091E+02  0.14897419995E+03  0.00000000000E+00 0.  1.
         11    1    1    2    0    0 -0.60879974919E+02 -0.62993432278E+02  0.76673199482E+02  0.11641874151E+03  0.00000000000E+00 0. -1.
</event>
<event>
 7    1  0.3056346E-009  0.1159347E+03  0.7561462E-02  0.1249958E+00
         -2   -1    0    0    0  501 -0.00000000000E+00  0.00000000000E+00  0.44889847062E+03  0.44889847062E+03  0.00000000000E+00 0.  1.
          2   -1    0    0  501    0  0.00000000000E+00 -0.00000000000E+00 -0.40700778782E+02  0.40700778782E+02  0.00000000000E+00 0. -1.
         25    2    1    2    0    0  0.36440084238E+02 -0.63398186365E+02  0.28882084254E+03  0.32312516363E+03  0.12508070399E+03 0.  0.
          5    1    3    3  502    0 -0.41655950388E+02 -0.47364062288E+02  0.15354305795E+03  0.16604672729E+03  0.41800000000E+01 0.  1.
         -5    1    3    3    0  502  0.78096034625E+02 -0.16034124077E+02  0.13527778459E+03  0.15707843634E+03  0.41800000000E+01 0.  1.
        -11    1    1    2    0    0  0.12268642252E+02  0.20619226991E+02 -0.65231443386E+01  0.24864100959E+02  0.00000000000E+00 0. -1.
         11    1    1    2    0    0 -0.48708726490E+02  0.42778959374E+02  0.12589999363E+03  0.14160998481E+03  0.00000000000E+00 0.  1.
</event>
<event>
 7    1  0.3056346E-009  0.8349597E+02  0.7561462E-02  0.1319413E+00
         -1   -1    0    0    0  501 -0.00000000000E+00  0.00000000000E+00  0.54331513582E+03  0.54331513582E+03  0.00000000000E+00 0.  1.
          1   -1    0    0  501    0  0.00000000000E+00 -0.00000000000E+00 -0.52225591378E+02  0.52225591378E+02  0.00000000000E+00 0. -1.
         25    2    1    2    0    0  0.12002463168E+01 -0.67176206432E+01  0.49111996140E+03  0.50684661005E+03  0.12509237632E+03 0.  0.
          5    1    3    3  502    0 -0.21154512562E+02  0.53198651268E+02  0.29461622571E+03  0.30015629721E+03  0.41800000000E+01 0.  1.
         -5    1    3    3    0  502  0.22354758879E+02 -0.59916271911E+02  0.19650373569E+03  0.20669031284E+03  0.41800000000E+01 0.  1.
        -11    1    1    2    0    0 -0.21172739041E+02  0.12653935169E+02  0.38015402972E+02  0.45316418844E+02  0.00000000000E+00 0.  1.
         11    1    1    2    0    0  0.19972492725E+02 -0.59363145259E+01 -0.38045819932E+02  0.43377698303E+02  0.00000000000E+00 0. -1.
</event>
<event>
 7    1  0.3056346E-009  0.9117775E+02  0.7561462E-02  0.1300024E+00
          2   -1    0    0  501    0  0.00000000000E+00  0.00000000000E+00  0.38963379395E+03  0.38963379395E+03  0.00000000000E+00 0. -1.
         -2   -1    0    0    0  501 -0.00000000000E+00 -0.00000000000E+00 -0.30113176184E+02  0.30113176184E+02  0.00000000000E+00 0.  1.
         25    2    1    2    0    0 -0.39692698698E+01 -0.84284311503E+01  0.20265544283E+03  0.23833375620E+03  0.12508779829E+03 0.  0.
          5    1    3    3  502    0  0.15470485946E+02  0.38765730545E+02  0.16189690371E+02  0.44963276953E+02  0.41800000000E+01 0. -1.
         -5    1    3    3    0  502 -0.19439755816E+02 -0.47194161695E+02  0.18646575246E+03  0.19337047924E+03  0.41800000000E+01 0. -1.
        -11    1    1    2    0    0 -0.12927344485E+02  0.46116262009E+02  0.65462203650E+02  0.81111811494E+02  0.00000000000E+00 0.  1.
         11    1    1    2    0    0  0.16896614354E+02 -0.37687830858E+02  0.91402971291E+02  0.10030140244E+03  0.00000000000E+00 0. -1.
</event>
<event>
 7    1  0.3056346E-009  0.1203144E+03  0.7561462E-02  0.1242579E+00
          2   -1    0    0  501    0  0.00000000000E+00  0.00000000000E+00  0.10326922010E+03  0.10326922010E+03  0.00000000000E+00 0. -1.
         -2   -1    0    0    0  501 -0.00000000000E+00 -0.00000000000E+00 -0.18431723419E+03  0.18431723419E+03  0.00000000000E+00 0.  1.
         25    2    1    2    0    0 -0.30127026396E+02 -0.77132425553E+02 -0.28565623445E+02  0.15270942102E+03  0.12508846324E+03 0.  0.
          5    1    3    3  502    0 -0.35122136734E+02  0.27692782120E+02 -0.65002911495E+01  0.45389215187E+02  0.41800000000E+01 0.  1.
         -5    1    3    3    0  502  0.49951103379E+01 -0.10482520767E+03 -0.22065332296E+02  0.10732020583E+03  0.41800000000E+01 0.  1.
        -11    1    1    2    0    0  0.12337823246E+02  0.86791675222E+00 -0.55149969240E+02  0.56519857299E+02  0.00000000000E+00 0.  1.
         11    1    1    2    0    0  0.17789203150E+02  0.76264508800E+02  0.26675785977E+01  0.78357175975E+02  0.00000000000E+00 0. -1.
</event>
<event>
 7    1  0.3056346E-009  0.8926638E+02  0.7561462E-02  0.1304638E+00
         -2   -1    0    0    0  501 -0.00000000000E+00  0.00000000000E+00  0.45571414460E+02  0.45571414460E+02  0.00000000000E+00 0.  1.
          2   -1    0    0  501    0  0.00000000000E+00 -0.00000000000E+00 -0.31255485876E+03  0.31255485876E+03  0.00000000000E+00 0. -1.
         25    2    1    2    0    0  0.43880993225E+02  0.53832132200E+01 -0.19059277217E+03  0.23222220980E+03  0.12508808644E+03 0.  0.
          5    1    3    3  502    0  0.58005491545E+02  0.48065179152E+02 -0.67965726375E+02  0.10154659452E+03  0.41800000000E+01 0.  1.
         -5    1    3    3    0  502 -0.14124498319E+02 -0.42681965932E+02 -0.12262704580E+03  0.13067561529E+03  0.41800000000E+01 0.  1.
        -11    1    1    2    0    0 -0.67350725839E+01 -0.17587764743E+02  0.16551298699E+02  0.25072617733E+02  0.00000000000E+00 0.  1.
         11    1    1    2    0    0 -0.37145920641E+02  0.12204551523E+02 -0.92941970825E+02  0.10083144569E+03  0.00000000000E+00 0. -1.
</event>
<event>
 7    1  0.3056346E-009  0.1589669E+03  0.7561462E-02  0.1189868E+00
          2   -1    0    0  501    0  0.00000000000E+00  0.00000000000E+00  0.17814498772E+04  0.17814498772E+04  0.00000000000E+00 0. -1.
         -2   -1    0    0    0  501 -0.00000000000E+00 -0.00000000000E+00 -0.21253086240E+02  0.21253086240E+02  0.00000000000E+00 0.  1.
         25    2    1    2    0    0  0.11431105884E+03  0.38087627003E+02  0.14207468181E+04  0.14313232529E+04  0.12508815904E+03 0.  0.
          5    1    3    3  502    0  0.13206038460E+03  0.41297592432E+01  0.97638847725E+03  0.98529636709E+03  0.41800000000E+01 0.  1.
         -5    1    3    3    0  502 -0.17749325759E+02  0.33957867760E+02  0.44435834085E+03  0.44602688577E+03  0.41800000000E+01 0.  1.
        -11    1    1    2    0    0 -0.38408880672E+02 -0.57226137699E+02  0.11996022314E+03  0.13834929739E+03  0.00000000000E+00 0.  1.
         11    1    1    2    0    0 -0.75902178170E+02  0.19138510696E+02  0.21948974970E+03  0.23303041318E+03  0.00000000000E+00 0. -1.
</event>
<event>
 7    1  0.3056346E-009  0.9205288E+02  0.7561462E-02  0.1297955E+00
          2   -1    0    0  501    0  0.00000000000E+00  0.00000000000E+00  0.13328958516E+03  0.13328958516E+03  0.00000000000E+00 0. -1.
         -2   -1    0    0    0  501 -0.00000000000E+00 -0.00000000000E+00 -0.11849575948E+03  0.11849575948E+03  0.00000000000E+00 0.  1.
         25    2    1    2    0    0 -0.30537130241E+02 -0.27371087788E+02  0.55091601635E+02  0.14270500540E+03  0.12509173125E+03 0.  0.
          5    1    3    3  502    0  0.42746728598E+02  0.80641176073E+01  0.41124455809E+02  0.60008383283E+02  0.41800000000E+01 0.  1.
         -5    1    3    3    0  502 -0.73283858839E+02 -0.35435205396E+02  0.13967145826E+02  0.82696622121E+02  0.41800000000E+01 0.  1.
        -11    1    1    2    0    0 -0.10631540698E+02  0.84836510442E+01 -0.58651908648E+02  0.60208374672E+02  0.00000000000E+00 0.  1.
         11    1    1    2    0    0  0.41168670939E+02  0.18887436744E+02  0.18354132689E+02  0.48871964565E+02  0.00000000000E+00 0. -1.
</event>
<event>
 7    1  0.3056346E-009  0.1727771E+03  0.7561462E-02  0.1174982E+00
         -1   -1    0    0    0  501 -0.00000000000E+00  0.00000000000E+00  0.50926905716E+02  0.50926905716E+02  0.00000000000E+00 0.  1.
          1   -1    0    0  501    0  0.00000000000E+00 -0.00000000000E+00 -0.68485094054E+03  0.68485094054E+03  0.00000000000E+00 0. -1.
         25    2    1    2    0    0  0.10309830455E+03  0.10356136619E+03 -0.25695669643E+03  0.32098493483E+03  0.12510142917E+03 0.  0.
          5    1    3    3  502    0  0.12522400922E+03  0.59485522099E+02 -0.15730423859E+03  0.20971808626E+03  0.41800000000E+01 0. -1.
         -5    1    3    3    0  502 -0.22125704662E+02  0.44075844095E+02 -0.99652457833E+02  0.11126684857E+03  0.41800000000E+01 0. -1.
        -11    1    1    2    0    0 -0.10683138559E+02 -0.48767780900E+02 -0.21292180262E+03  0.21869641043E+03  0.00000000000E+00 0. -1.
         11    1    1    2    0    0 -0.92415165994E+02 -0.54793585294E+02 -0.16404553578E+03  0.19609650100E+03  0.00000000000E+00 0.  1.
</event>
<event>
 7    1  0.3056346E-009  0.1198993E+03  0.7561462E-02  0.1243263E+00
          1   -1    0    0  501    0  0.00000000000E+00  0.00000000000E+00  0.11631875063E+03  0.11631875063E+03  0.00000000000E+00 0. -1.
         -1   -1    0    0    0  501 -0.00000000000E+00 -0.00000000000E+00 -0.13455661820E+03  0.13455661820E+03  0.00000000000E+00 0.  1.
         25    2    1    2    0    0  0.38348387500E+02  0.44291351389E+02 -0.33535841903E+02  0.14213826445E+03  0.12508521454E+03 0.  0.
          5    1    3    3  502    0  0.34434298321E+02 -0.40059700954E+02 -0.65658886313E+01  0.53395541339E+02  0.41800000000E+01 0.  1.
         -5    1    3    3    0  502  0.39140891790E+01  0.84351052343E+02 -0.26969953271E+02  0.88742723109E+02  0.41800000000E+01 0.  1.
        -11    1    1    2    0    0  0.26811833796E+02 -0.98767078812E+01 -0.10823316268E+02  0.30554344456E+02  0.00000000000E+00 0.  1.
         11    1    1    2    0    0 -0.65160221296E+02 -0.34414643507E+02  0.26121290606E+02  0.78182759929E+02  0.00000000000E+00 0. -1.
</event>
<event>
 7    1  0.3056346E-009  0.1233185E+03  0.7561462E-02  0.1237721E+00
          2   -1    0    0  501    0  0.00000000000E+00  0.00000000000E+00  0.58820630422E+02  0.58820630422E+02  0.00000000000E+00 0. -1.
         -2   -1    0    0    0  501 -0.00000000000E+00 -0.00000000000E+00 -0.40141812623E+03  0.40141812623E+03  0.00000000000E+00 0.  1.
         25    2    1    2    0    0  0.97045102838E+02 -0.22458080876E+02 -0.11817286379E+03  0.19883272859E+03  0.12509001095E+03 0.  0.
          5    1    3    3  502    0  0.33704261624E+02  0.42976764058E+02 -0.86376725964E+02  0.10228094001E+03  0.41800000000E+01 0. -1.
         -5    1    3    3    0  502  0.63340841214E+02 -0.65434844935E+02 -0.31796137830E+02  0.96551788581E+02  0.41800000000E+01 0. -1.
        -11    1    1    2    0    0 -0.59221689986E+02  0.21027695760E+02 -0.21268727335E+03  0.22177747586E+03  0.00000000000E+00 0.  1.
         11    1    1    2    0    0 -0.37823412853E+02  0.14303851157E+01 -0.11737358665E+02  0.39628552205E+02  0.00000000000E+00 0. -1.
</event>
<event>
 7    1  0.3056346E-009  0.1221129E+03  0.7561462E-02  0.1239652E+00
         -2   -1    0    0    0  501 -0.00000000000E+00  0.00000000000E+00  0.23105729847E+02  0.23105729847E+02  0.00000000000E+00 0.  1.
          2   -1    0    0  501    0  0.00000000000E+00 -0.00000000000E+00 -0.11590562993E+04  0.11590562993E+04  0.00000000000E+00 0. -1.
         25    2    1    2    0    0  0.11115848380E+03 -0.30227065229E+02 -0.76705483595E+03  0.78567819057E+03  0.12508882358E+03 0.  0.
          5    1    3    3  502    0  0.63498652888E+01 -0.17689190898E+02 -0.10789908391E+02  0.22070858318E+02  0.41800000000E+01 0. -1.
         -5    1    3    3    0  502  0.10480861852E+03 -0.12537874331E+02 -0.75626492756E+03  0.76360733225E+03  0.41800000000E+01 0. -1.
        -11    1    1    2    0    0 -0.13014010849E+02  0.15257946329E+02 -0.70368970401E+01  0.21252936844E+02  0.00000000000E+00 0.  1.
         11    1    1    2    0    0 -0.98144472955E+02  0.14969118900E+02 -0.36185883648E+03  0.37523090176E+03  0.00000000000E+00 0. -1.
</event>
<event>
 7    1  0.3056346E-009  0.1130402E+03  0.7561462E-02  0.1255041E+00
         -3   -1    0    0    0  501 -0.00000000000E+00  0.00000000000E+00  0.78511668614E+02  0.78511668614E+02  0.00000000000E+00 0.  1.
          3   -1    0    0  501    0  0.00000000000E+00 -0.00000000000E+00 -0.24860615069E+03  0.24860615069E+03  0.00000000000E+00 0. -1.
         25    2    1    2    0    0 -0.34966027938E+02  0.29455978476E+02 -0.18298844621E+03  0.22632885000E+03  0.12509875746E+03 0.  0.
          5    1    3    3  502    0  0.40540808632E+02  0.38800208884E+02 -0.66242734027E+02  0.86917119059E+02  0.41800000000E+01 0.  1.
         -5    1    3    3    0  502 -0.75506836570E+02 -0.93442304085E+01 -0.11674571218E+03  0.13941173094E+03  0.41800000000E+01 0.  1.
        -11    1    1    2    0    0  0.60417556927E+02 -0.92658112577E+01 -0.87571116352E+01  0.61748064322E+02  0.00000000000E+00 0. -1.
         11    1    1    2    0    0 -0.25451528989E+02 -0.20190167218E+02  0.21651075767E+02  0.39040904985E+02  0.00000000000E+00 0.  1.
</event>
<event>
 7    1  0.3620427E-009  0.1384803E+03  0.7561462E-02  0.1215389E+00
         -2   -1    0    0    0  501 -0.00000000000E+00  0.00000000000E+00  0.22555149578E+02  0.22555149578E+02  0.00000000000E+00 0.  1.
          2   -1    0    0  501    0  0.00000000000E+00 -0.00000000000E+00 -0.16576535411E+04  0.16576535411E+04  0.00000000000E+00 0. -1.
         25    2    1    2    0    0  0.95819933651E+02 -0.81080974587E+02 -0.12861232506E+04  0.12982741372E+04  0.12508851093E+03 0.  0.
          5    1    3    3  502    0  0.27562156460E+02 -0.21955666780E+02 -0.93587177073E+03  0.93654426880E+03  0.41800000000E+01 0.  1.
         -5    1    3    3    0  502  0.68257777191E+02 -0.59125307807E+02 -0.35025147986E+03  0.36172986843E+03  0.41800000000E+01 0.  1.
        -11    1    1    2    0    0 -0.35284334406E+02 -0.14326898601E+02 -0.54162369553E+02  0.66210320597E+02  0.00000000000E+00 0.  1.
         11    1    1    2    0    0 -0.60535599245E+02  0.95407873188E+02 -0.29481277141E+03  0.31572423288E+03  0.00000000000E+00 0. -1.
</event>
<event>
 7    1  0.3056346E-009  0.1463890E+03  0.7561462E-02  0.1204982E+00
          1   -1    0    0  501    0  0.00000000000E+00  0.00000000000E+00  0.96949419219E+03  0.96949419219E+03  0.00000000000E+00 0. -1.
         -1   -1    0    0    0  501 -0.00000000000E+00 -0.00000000000E+00 -0.28993275062E+02  0.28993275062E+02  0.00000000000E+00 0.  1.
         25    2    1    2    0    0  0.11562045275E+03  0.12239197370E+02  0.34504848987E+03  0.38499866110E+03  0.12509045386E+03 0.  0.
          5    1    3    3  502    0  0.54538789722E+02 -0.50288490089E+02  0.22124890853E+03  0.23339229582E+03  0.41800000000E+01 0. -1.
         -5    1    3    3    0  502  0.61081663027E+02  0.62527687459E+02  0.12379958133E+03  0.15160636529E+03  0.41800000000E+01 0. -1.
        -11    1    1    2    0    0 -0.80250309904E+02 -0.36410684140E+02  0.51357668622E+03  0.52108239540E+03  0.00000000000E+00 0. -1.
         11    1    1    2    0    0 -0.35370142845E+02  0.24171486771E+02  0.81875741037E+02  0.92406410751E+02  0.00000000000E+00 0.  1.
</event>
<event>
 7    1  0.3056346E-009  0.1129796E+03  0.7561462E-02  0.1255150E+00
         -1   -1    0    0    0  501 -0.00000000000E+00  0.00000000000E+00  0.12331854339E+04  0.12331854339E+04  0.00000000000E+00 0.  1.
          1   -1    0    0  501    0  0.00000000000E+00 -0.00000000000E+00 -0.14430520976E+02  0.14430520976E+02  0.00000000000E+00 0. -1.
         25    2    1    2    0    0  0.32628751010E+02 -0.56685850600E+02  0.86485206322E+03  0.87629580129E+03  0.12508924432E+03 0.  0.
          5    1    3    3  502    0 -0.33846414240E+02 -0.59562471476E+02  0.31334720797E+03  0.32077595437E+03  0.41800000000E+01 0.  1.
         -5    1    3    3    0  502  0.66475165250E+02  0.28766208761E+01  0.55150485526E+03  0.55551984691E+03  0.41800000000E+01 0.  1.
        -11    1    1    2    0    0 -0.70734907665E+01  0.63750683183E+02  0.32814338716E+03  0.33435350516E+03  0.00000000000E+00 0.  1.
         11    1    1    2    0    0 -0.25555260243E+02 -0.70648325832E+01  0.25759462551E+02  0.36966648434E+02  0.00000000000E+00 0. -1.
</event>
<event>
 7    1  0.3056346E-009  0.1575324E+03  0.7561462E-02  0.1191511E+00
         -1   -1    0    0    0  501 -0.00000000000E+00  0.00000000000E+00  0.54867266934E+03  0.54867266934E+03  0.00000000000E+00 0.  1.
          1   -1    0    0  501    0  0.00000000000E+00 -0.00000000000E+00 -0.84527486272E+02  0.84527486272E+02  0.00000000000E+00 0. -1.
         25    2    1    2    0    0  0.14481528763E+03 -0.57320444744E+02  0.38955111162E+03  0.43777997452E+03  0.12507652300E+03 0.  0.
          5    1    3    3  502    0  0.63963886259E+02 -0.18983469221E+02  0.31266082049E+03  0.31972802805E+03  0.41800000000E+01 0. -1.
         -5    1    3    3    0  502  0.80851401366E+02 -0.38336975523E+02  0.76890291133E+02  0.11805194647E+03  0.41800000000E+01 0. -1.
        -11    1    1    2    0    0 -0.13758933317E+03  0.45754965565E+02  0.29051213187E+02  0.14787939161E+03  0.00000000000E+00 0. -1.
         11    1    1    2    0    0 -0.72259544570E+01  0.11565479179E+02  0.45542858264E+02  0.47540789490E+02  0.00000000000E+00 0.  1.
</event>
<event>
 7    1  0.3056346E-009  0.1136039E+03  0.7561462E-02  0.1254038E+00
          1   -1    0    0  501    0  0.00000000000E+00  0.00000000000E+00  0.97670694341E+02  0.97670694341E+02  0.00000000000E+00 0. -1.
         -1   -1    0    0    0  501 -0.00000000000E+00 -0.00000000000E+00 -0.16761813926E+03  0.16761813926E+03  0.00000000000E+00 0.  1.
         25    2    1    2    0    0 -0.72350053048E+02  0.26321004444E+02 -0.51993214191E+02  0.15581568487E+03  0.12509159796E+03 0.  0.
          5    1    3    3  502    0  0.24491919073E+02  0.13152973309E+02 -0.50714051523E+02  0.57984844819E+02  0.41800000000E+01 0.  1.
         -5    1    3    3    0  502 -0.96841972121E+02  0.13168031135E+02 -0.12791626681E+01  0.97830840053E+02  0.41800000000E+01 0.  1.
        -11    1    1    2    0    0 -0.70027358972E+01  0.11424636024E+02 -0.16934172836E+02  0.21594601825E+02  0.00000000000E+00 0.  1.
         11    1    1    2    0    0  0.79352788945E+02 -0.37745640468E+02 -0.10200578904E+01  0.87878546903E+02  0.00000000000E+00 0. -1.
</event>
<event>
 7    1  0.3056346E-009  0.1026428E+03  0.7561462E-02  0.1274835E+00
         -2   -1    0    0    0  501 -0.00000000000E+00  0.00000000000E+00  0.15215670895E+02  0.15215670895E+02  0.00000000000E+00 0.  1.
          2   -1    0    0  501    0  0.00000000000E+00 -0.00000000000E+00 -0.82447267716E+03  0.82447267716E+03  0.00000000000E+00 0. -1.
         25    2    1    2    0    0  0.14759115891E+02 -0.34285605148E+00 -0.56928707526E+03  0.58305453630E+03  0.12508744616E+03 0.  0.
          5    1    3    3  502    0 -0.35581798441E+02  0.41869867152E+02 -0.34256067626E+03  0.34696460839E+03  0.41800000000E+01 0. -1.
         -5    1    3    3    0  502  0.50340914332E+02 -0.42212723203E+02 -0.22672639900E+03  0.23608992791E+03  0.41800000000E+01 0. -1.
        -11    1    1    2    0    0  0.11906372919E+02 -0.36770674808E+02 -0.15926973995E+03  0.16389232534E+03  0.00000000000E+00 0. -1.
         11    1    1    2    0    0 -0.26665488810E+02  0.37113530859E+02 -0.80700191052E+02  0.92741486414E+02  0.00000000000E+00 0.  1.
</event>
<event>
 7    1  0.3056346E-009  0.2473990E+03  0.7561462E-02  0.1114960E+00
          2   -1    0    0  501    0  0.00000000000E+00  0.00000000000E+00  0.10015313491E+04  0.10015313491E+04  0.00000000000E+00 0. -1.
         -2   -1    0    0    0  501 -0.00000000000E+00 -0.00000000000E+00 -0.12839613724E+03  0.12839613724E+03  0.00000000000E+00 0.  1.
         25    2    1    2    0    0  0.28996178643E+02 -0.23175181044E+03  0.84252754770E+03  0.88320403911E+03  0.12508807316E+03 0.  0.
          5    1    3    3  502    0  0.61597868429E+02 -0.65489629259E+02  0.38260768818E+03  0.39305127450E+03  0.41800000000E+01 0.  1.
         -5    1    3    3    0  502 -0.32601689785E+02 -0.16626218118E+03  0.45991985953E+03  0.49015276461E+03  0.41800000000E+01 0.  1.
        -11    1    1    2    0    0 -0.43036962894E+01  0.14637914020E+03  0.51845707840E+02  0.15534912909E+03  0.00000000000E+00 0. -1.
         11    1    1    2    0    0 -0.24692482354E+02  0.85372670239E+02 -0.21238043706E+02  0.91374318104E+02  0.00000000000E+00 0.  1.
</event>
<event>
 7    1  0.3056346E-009  0.1623902E+03  0.7561462E-02  0.1186024E+00
          1   -1    0    0  501    0  0.00000000000E+00  0.00000000000E+00  0.33760494089E+04  0.33760494089E+04  0.00000000000E+00 0. -1.
         -1   -1    0    0    0  501 -0.00000000000E+00 -0.00000000000E+00 -0.10475960479E+02  0.10475960479E+02  0.00000000000E+00 0.  1.
         25    2    1    2    0    0  0.11896975534E+03  0.22794797325E+02  0.26190525261E+04  0.26248346804E+04  0.12509020571E+03 0.  0.
          5    1    3    3  502    0  0.52461010148E+02 -0.51890842115E+02  0.10630426801E+04  0.10656087599E+04  0.41800000000E+01 0.  1.
         -5    1    3    3    0  502  0.66508745191E+02  0.74685639440E+02  0.15560098460E+04  0.15592259205E+04  0.41800000000E+01 0.  1.
        -11    1    1    2    0    0 -0.10383866484E+03  0.19682091010E+02  0.49454609567E+03  0.50571305477E+03  0.00000000000E+00 0.  1.
         11    1    1    2    0    0 -0.15131090496E+02 -0.42476888335E+02  0.25197482668E+03  0.25597763423E+03  0.00000000000E+00 0. -1.
</event>
<event>
 7    1  0.3056346E-009  0.1428757E+03  0.7561462E-02  0.1209511E+00
          2   -1    0    0  501    0  0.00000000000E+00  0.00000000000E+00  0.17024332824E+04  0.17024332824E+04  0.00000000000E+00 0. -1.
         -2   -1    0    0    0  501 -0.00000000000E+00 -0.00000000000E+00 -0.19364048056E+02  0.19364048056E+02  0.00000000000E+00 0.  1.
         25    2    1    2    0    0 -0.65045587009E+02 -0.11567787787E+03  0.11667352319E+04  0.11809022233E+04  0.12508660961E+03 0.  0.
          5    1    3    3  502    0 -0.23912631523E+02 -0.34340058599E+02  0.85639419553E+03  0.85742611583E+03  0.41800000000E+01 0.  1.
         -5    1    3    3    0  502 -0.41132955486E+02 -0.81337819269E+02  0.31034103634E+03  0.32347610747E+03  0.41800000000E+01 0.  1.
        -11    1    1    2    0    0 -0.16714484299E+02  0.12844553267E+02  0.27124151725E+02  0.34352236329E+02  0.00000000000E+00 0.  1.
         11    1    1    2    0    0  0.81760071308E+02  0.10283332460E+03  0.48920985072E+03  0.50654287079E+03  0.00000000000E+00 0. -1.
</event>
<event>
 7    1  0.3056346E-009  0.1747206E+03  0.7561462E-02  0.1173013E+00
          3   -1    0    0  501    0  0.00000000000E+00  0.00000000000E+00  0.72603269862E+02  0.72603269862E+02  0.00000000000E+00 0. -1.
         -3   -1    0    0    0  501 -0.00000000000E+00 -0.00000000000E+00 -0.45261804350E+03  0.45261804350E+03  0.00000000000E+00 0.  1.
         25    2    1    2    0    0  0.34869981948E+02  0.14075134154E+03 -0.18805149314E+03  0.26839415614E+03  0.12508078665E+03 0.  0.
          5    1    3    3  502    0  0.21849422052E+02  0.16151031898E+03 -0.14264689371E+03  0.21663007424E+03  0.41800000000E+01 0. -1.
         -5    1    3    3    0  502  0.13020559896E+02 -0.20758977445E+02 -0.45404599434E+02  0.51764081894E+02  0.41800000000E+01 0. -1.
        -11    1    1    2    0    0 -0.51749493404E+02 -0.13349509253E+03 -0.19062581508E+03  0.23840543444E+03  0.00000000000E+00 0.  1.
         11    1    1    2    0    0  0.16879511456E+02 -0.72562490065E+01 -0.13374654199E+01  0.18421722786E+02  0.00000000000E+00 0. -1.
</event>
<event>
 7    1  0.3056346E-009  0.1239331E+03  0.7561462E-02  0.1236746E+00
          2   -1    0    0  501    0  0.00000000000E+00  0.00000000000E+00  0.41102964976E+03  0.41102964976E+03  0.00000000000E+00 0.  1.
         -2   -1    0    0    0  501 -0.00000000000E+00 -0.00000000000E+00 -0.57494360209E+02  0.57494360209E+02  0.00000000000E+00 0. -1.
         25    2    1    2    0    0  0.75223444708E+02  0.66414721399E+02  0.10191441614E+03  0.19001373544E+03  0.12509672093E+03 0.  0.
          5    1    3    3  502    0  0.53487256793E+02  0.85029093478E+02  0.19157715098E+02  0.10234902943E+03  0.41800000000E+01 0. -1.
         -5    1    3    3    0  502  0.21736187914E+02 -0.18614372080E+02  0.82756701043E+02  0.87664706013E+02  0.41800000000E+01 0. -1.
        -11    1    1    2    0    0 -0.25483783475E+02  0.98771233432E+01  0.74321810918E+02  0.79187829645E+02  0.00000000000E+00 0. -1.
         11    1    1    2    0    0 -0.49739661233E+02 -0.76291844742E+02  0.17729906249E+03  0.19932244488E+03  0.00000000000E+00 0.  1.
</event>
<event>
 7    1  0.3056346E-009  0.9175163E+02  0.7561462E-02  0.1298664E+00
         -2   -1    0    0    0  501 -0.00000000000E+00  0.00000000000E+00  0.74967848470E+02  0.74967848470E+02  0.00000000000E+00 0.  1.
          2   -1    0    0  501    0  0.00000000000E+00 -0.00000000000E+00 -0.20976355471E+03  0.20976355471E+03  0.00000000000E+00 0. -1.
         25    2    1    2    0    0  0.15436302133E+02 -0.44104390028E+02 -0.28810996982E+02  0.13660540672E+03  0.12508991548E+03 0.  0.
          5    1    3    3  502    0 -0.44647230510E+02 -0.30537545994E+02  0.20083662693E+02  0.57851039876E+02  0.41800000000E+01 0.  1.
         -5    1    3    3    0  502  0.60083532643E+02 -0.13566844034E+02 -0.48894659675E+02  0.78754366842E+02  0.41800000000E+01 0.  1.
        -11    1    1    2    0    0  0.15280800843E+02  0.20252080523E+01  0.11748274129E+02  0.19381080648E+02  0.00000000000E+00 0.  1.
         11    1    1    2    0    0 -0.30717102976E+02  0.42079181976E+02 -0.11773298339E+03  0.12874491582E+03  0.00000000000E+00 0. -1.
</event>
<event>
 7    1  0.3056346E-009  0.9390586E+02  0.7561462E-02  0.1293660E+00
         -2   -1    0    0    0  501 -0.00000000000E+00  0.00000000000E+00  0.91080342735E+02  0.91080342735E+02  0.00000000000E+00 0. -1.
          2   -1    0    0  501    0  0.00000000000E+00 -0.00000000000E+00 -0.24232224825E+03  0.24232224825E+03  0.00000000000E+00 0.  1.
         25    2    1    2    0    0 -0.44370847233E+02  0.43018095028E+02  0.70771705546E+01  0.13971747595E+03  0.12510618753E+03 0.  0.
          5    1    3    3  502    0 -0.62899984790E+02 -0.15122497064E+02 -0.26392834170E+02  0.69993943307E+02  0.41800000000E+01 0.  1.
         -5    1    3    3    0  502  0.18529137557E+02  0.58140592092E+02  0.33470004725E+02  0.69723532640E+02  0.41800000000E+01 0.  1.
        -11    1    1    2    0    0  0.26309710922E+02 -0.26551283644E+02 -0.16432039899E+03  0.16851814465E+03  0.00000000000E+00 0.  1.
         11    1    1    2    0    0  0.18061136311E+02 -0.16466811384E+02  0.60013229165E+01  0.25166970393E+02  0.00000000000E+00 0. -1.
</event>
<event>
 7    1  0.3056346E-009  0.1828824E+03  0.7561462E-02  0.1165042E+00
         -3   -1    0    0    0  501 -0.00000000000E+00  0.00000000000E+00  0.86191547546E+03  0.86191547546E+03  0.00000000000E+00 0.  1.
          3   -1    0    0  501    0  0.00000000000E+00 -0.00000000000E+00 -0.41090687157E+02  0.41090687157E+02  0.00000000000E+00 0. -1.
         25    2    1    2    0    0  0.84669996600E+02 -0.12280419380E+03  0.51263046222E+03  0.54834977098E+03  0.12509037613E+03 0.  0.
          5    1    3    3  502    0  0.11198410817E+03 -0.12267985441E+03  0.45620363468E+03  0.48552035576E+03  0.41800000000E+01 0.  1.
         -5    1    3    3    0  502 -0.27314111567E+02 -0.12433938778E+00  0.56426827535E+02  0.62829415218E+02  0.41800000000E+01 0.  1.
        -11    1    1    2    0    0 -0.65416356847E+02  0.13441734237E+03  0.28776045040E+03  0.32427364753E+03  0.00000000000E+00 0.  1.
         11    1    1    2    0    0 -0.19253639754E+02 -0.11613148575E+02  0.20433875687E+02  0.30382744102E+02  0.00000000000E+00 0. -1.
</event>
<event>
 7    1  0.3056346E-009  0.1037964E+03  0.7561462E-02  0.1272509E+00
         -2   -1    0    0    0  501 -0.00000000000E+00  0.00000000000E+00  0.36697921325E+02  0.36697921325E+02  0.00000000000E+00 0.  1.
          2   -1    0    0  501    0  0.00000000000E+00 -0.00000000000E+00 -0.63172750743E+03  0.63172750743E+03  0.00000000000E+00 0. -1.
         25    2    1    2    0    0  0.93768261349E+02  0.42731053709E+02 -0.27683951822E+03  0.32079453307E+03  0.12510229339E+03 0.  0.
          5    1    3    3  502    0  0.74373050619E+02  0.33828992471E+02 -0.56596598380E+02  0.99480645043E+02  0.41800000000E+01 0.  1.
         -5    1    3    3    0  502  0.19395210730E+02  0.89020612372E+01 -0.22024291984E+03  0.22131388802E+03  0.41800000000E+01 0.  1.
        -11    1    1    2    0    0 -0.20816769538E+02 -0.16312384114E+02 -0.76297871539E+01  0.27525359607E+02  0.00000000000E+00 0.  1.
         11    1    1    2    0    0 -0.72951491811E+02 -0.26418669594E+02 -0.31056028073E+03  0.32010553608E+03  0.00000000000E+00 0. -1.
</event>
<event>
 7    1  0.3056346E-009  0.1108204E+03  0.7561462E-02  0.1259058E+00
         -2   -1    0    0    0  501 -0.00000000000E+00  0.00000000000E+00  0.87029677255E+02  0.87029677255E+02  0.00000000000E+00 0.  1.
          2   -1    0    0  501    0  0.00000000000E+00 -0.00000000000E+00 -0.20974049951E+03  0.20974049951E+03  0.00000000000E+00 0. -1.
         25    2    1    2    0    0  0.60553360685E+02 -0.51011761392E+02 -0.65212285255E+02  0.16177100376E+03  0.12509319014E+03 0.  0.
          5    1    3    3  502    0  0.41150842411E+02 -0.69414792547E+02  0.10390426720E+02  0.81469249554E+02  0.41800000000E+01 0. -1.
         -5    1    3    3    0  502  0.19402518274E+02  0.18403031155E+02 -0.75602711975E+02  0.80301754209E+02  0.41800000000E+01 0. -1.
        -11    1    1    2    0    0 -0.66109486654E+02  0.37849752921E+01 -0.85702969645E+01  0.66770055067E+02  0.00000000000E+00 0.  1.
         11    1    1    2    0    0  0.55561259692E+01  0.47226786100E+02 -0.48928240034E+02  0.68229117933E+02  0.00000000000E+00 0. -1.
</event>
<event>
 7    1  0.3056346E-009  0.6338910E+02  0.7561462E-02  0.1384136E+00
         -1   -1    0    0    0  501 -0.00000000000E+00  0.00000000000E+00  0.40554539874E+03  0.40554539874E+03  0.00000000000E+00 0.  1.
          1   -1    0    0  501    0  0.00000000000E+00 -0.00000000000E+00 -0.48491900261E+02  0.48491900261E+02  0.00000000000E+00 0. -1.
         25    2    1    2    0    0 -0.24289675357E+02  0.55819057098E+01  0.33628723305E+03  0.35966457711E+03  0.12509340077E+03 0.  0.
          5    1    3    3  502    0 -0.35808700674E+02  0.40727433324E+02  0.30838978733E+03  0.31314967699E+03  0.41800000000E+01 0. -1.
         -5    1    3    3    0  502  0.11519025316E+02 -0.35145527614E+02  0.27897445717E+02  0.46514900118E+02  0.41800000000E+01 0. -1.
        -11    1    1    2    0    0  0.78397398733E+01 -0.14478188988E+02 -0.33308400862E+02  0.37155471275E+02  0.00000000000E+00 0. -1.
         11    1    1    2    0    0  0.16449935484E+02  0.88962832785E+01  0.54074666295E+02  0.57217250620E+02  0.00000000000E+00 0.  1.
</event>
<event>
 7    1  0.3056346E-009  0.7804053E+02  0.7561462E-02  0.1334706E+00
          1   -1    0    0  501    0  0.00000000000E+00  0.00000000000E+00  0.21582392940E+03  0.21582392940E+03  0.00000000000E+00 0. -1.
         -1   -1    0    0    0  501 -0.00000000000E+00 -0.00000000000E+00 -0.72768622682E+02  0.72768622682E+02  0.00000000000E+00 0.  1.
         25    2    1    2    0    0  0.51831796625E+01 -0.43674276791E+02  0.19014070863E+02  0.13394439300E+03  0.12508100464E+03 0.  0.
          5    1    3    3  502    0 -0.45893304065E+02 -0.65467154140E+01 -0.28705707969E+02  0.54685874874E+02  0.41800000000E+01 0.  1.
         -5    1    3    3    0  502  0.51076483728E+02 -0.37127561377E+02  0.47719778832E+02  0.79258518126E+02  0.41800000000E+01 0.  1.
        -11    1    1    2    0    0  0.43725361138E+01  0.23819564469E+02 -0.41555376360E+01  0.24571512298E+02  0.00000000000E+00 0.  1.
         11    1    1    2    0    0 -0.95557157762E+01  0.19854712322E+02  0.12819677349E+03  0.13007664678E+03  0.00000000000E+00 0. -1.
</event>
<event>
 7    1  0.3056346E-009  0.1093472E+03  0.7561462E-02  0.1261784E+00
          1   -1    0    0  501    0  0.00000000000E+00  0.00000000000E+00  0.89117982824E+03  0.89117982824E+03  0.00000000000E+00 0. -1.
         -1   -1    0    0    0  501 -0.00000000000E+00 -0.00000000000E+00 -0.19318768689E+02  0.19318768689E+02  0.00000000000E+00 0.  1.
         25    2    1    2    0    0 -0.27032555604E+02  0.16113954210E+02  0.71152839688E+03  0.72312590823E+03  0.12509197021E+03 0.  0.
          5    1    3    3  502    0  0.57175992697E+01  0.64918217828E+02  0.46994573605E+03  0.47446130841E+03  0.41800000000E+01 0. -1.
         -5    1    3    3    0  502 -0.32750154873E+02 -0.48804263619E+02  0.24158266083E+03  0.24866459982E+03  0.41800000000E+01 0. -1.
        -11    1    1    2    0    0 -0.33010021745E+02 -0.68839324187E+01  0.78677563774E+02  0.85599118585E+02  0.00000000000E+00 0. -1.
         11    1    1    2    0    0  0.60042577348E+02 -0.92300217909E+01  0.81655098895E+02  0.10177357011E+03  0.00000000000E+00 0.  1.
</event>
<event>
 6    1  0.3056346E-009  0.1288356E+03  0.7561462E-02  0.1229194E+00
          2   -1    0    0  501    0  0.00000000000E+00  0.00000000000E+00  0.87358310660E+03  0.87358310660E+03  0.00000000000E+00 0. -1.
         -2   -1    0    0    0  501 -0.00000000000E+00 -0.00000000000E+00 -0.25501789644E+02  0.25501789644E+02  0.00000000000E+00 0.  1.
          5    1    1    2  502    0  0.10426989934E+03  0.20557047629E+02  0.49786943418E+03  0.50910337850E+03  0.41800000000E+01 0.  1.
         -5    1    1    2    0  502 -0.20839278981E+02 -0.36325838633E+02  0.12865174345E+03  0.13536094559E+03  0.41800000000E+01 0.  1.
        -11    1    1    2    0    0 -0.94795382779E+02  0.73466865996E+01  0.22086178903E+03  0.24045803845E+03  0.00000000000E+00 0. -1.
         11    1    1    2    0    0  0.11364762423E+02  0.84221044038E+01  0.69835029807E+00  0.14162533695E+02  0.00000000000E+00 0.  1.
</event>
<event>
 7    1  0.3996577E-009  0.1360643E+03  0.7561462E-02  0.1218725E+00
          1   -1    0    0  501    0  0.00000000000E+00  0.00000000000E+00  0.46992192895E+02  0.46992192895E+02  0.00000000000E+00 0. -1.
         -1   -1    0    0    0  501 -0.00000000000E+00 -0.00000000000E+00 -0.50569609679E+03  0.50569609679E+03  0.00000000000E+00 0.  1.
         25    2    1    2    0    0  0.17650838311E+02  0.10710676295E+03 -0.22331928592E+03  0.27803275988E+03  0.12508917356E+03 0.  0.
          5    1    3    3  502    0 -0.28788350915E+02  0.11284135741E+03 -0.17804210365E+03  0.21278722744E+03  0.41800000000E+01 0.  1.
         -5    1    3    3    0  502  0.46439189226E+02 -0.57345944595E+01 -0.45277182271E+02  0.65245532444E+02  0.41800000000E+01 0.  1.
        -11    1    1    2    0    0 -0.99449807537E+01 -0.71512443181E+02 -0.55353460436E+02  0.90977677230E+02  0.00000000000E+00 0.  1.
         11    1    1    2    0    0 -0.77058575575E+01 -0.35594319767E+02 -0.18003115755E+03  0.18367785258E+03  0.00000000000E+00 0. -1.
</event>
<event>
 7    1  0.3056346E-009  0.1523296E+03  0.7561462E-02  0.1197639E+00
         -1   -1    0    0    0  501 -0.00000000000E+00  0.00000000000E+00  0.85047762586E+02  0.85047762586E+02  0.00000000000E+00 0.  1.
          1   -1    0    0  501    0  0.00000000000E+00 -0.00000000000E+00 -0.33002097532E+03  0.33002097532E+03  0.00000000000E+00 0. -1.
         25    2    1    2    0    0 -0.69538416434E+02 -0.10369797596E+03 -0.11033878060E+03  0.20835394519E+03  0.12509140016E+03 0.  0.
          5    1    3    3  502    0 -0.50015970083E+01  0.18466070223E+02 -0.56868918955E+02  0.60146139238E+02  0.41800000000E+01 0.  1.
         -5    1    3    3    0  502 -0.64536819426E+02 -0.12216404618E+03 -0.53469861642E+02  0.14820780595E+03  0.41800000000E+01 0.  1.
        -11    1    1    2    0    0  0.71681039958E+02  0.38025060159E+02 -0.10967015649E+03  0.13642441099E+03  0.00000000000E+00 0.  1.
         11    1    1    2    0    0 -0.21426235235E+01  0.65672915797E+02 -0.24964275646E+02  0.70290381727E+02  0.00000000000E+00 0. -1.
</event>
<event>
 7    1  0.3056346E-009  0.9570859E+02  0.7561462E-02  0.1289588E+00
         -2   -1    0    0    0  501 -0.00000000000E+00  0.00000000000E+00  0.13998803194E+02  0.13998803194E+02  0.00000000000E+00 0.  1.
          2   -1    0    0  501    0  0.00000000000E+00 -0.00000000000E+00 -0.11075801894E+04  0.11075801894E+04  0.00000000000E+00 0. -1.
         25    2    1    2    0    0 -0.26727212451E+02  0.15769221834E+02 -0.84069240548E+03  0.85051454430E+03  0.12509299418E+03 0.  0.
          5    1    3    3  502    0 -0.40318824539E+02  0.60103240160E+02 -0.65805225274E+03  0.66203341821E+03  0.41800000000E+01 0. -1.
         -5    1    3    3    0  502  0.13591612088E+02 -0.44334018325E+02 -0.18264015274E+03  0.18848112609E+03  0.41800000000E+01 0. -1.
        -11    1    1    2    0    0  0.18824712281E+02  0.24741923044E+02 -0.26224281942E+02  0.40672417088E+02  0.00000000000E+00 0.  1.
         11    1    1    2    0    0  0.79025001701E+01 -0.40511144878E+02 -0.22666469881E+03  0.23039203123E+03  0.00000000000E+00 0. -1.
</event>
<event>
 7    1  0.3056346E-009  0.1213561E+03  0.7561462E-02  0.1240877E+00
          2   -1    0    0  501    0  0.00000000000E+00  0.00000000000E+00  0.71637778796E+03  0.71637778796E+03  0.00000000000E+00 0. -1.
         -2   -1    0    0    0  501 -0.00000000000E+00 -0.00000000000E+00 -0.30669798650E+02  0.30669798650E+02  0.00000000000E+00 0.  1.
         25    2    1    2    0    0  0.44783062164E+02 -0.59948597342E+02  0.49027998273E+03  0.51148960500E+03  0.12509115705E+03 0.  0.
          5    1    3    3  502    0 -0.17337102377E+02 -0.75022500255E+02  0.20297354039E+03  0.21712825971E+03  0.41800000000E+01 0.  1.
         -5    1    3    3    0  502  0.62120164540E+02  0.15073902913E+02  0.28730644234E+03  0.29436134529E+03  0.41800000000E+01 0.  1.
        -11    1    1    2    0    0  0.10319325143E+02  0.42508719175E+02  0.16407323893E+03  0.16980432094E+03  0.00000000000E+00 0. -1.
         11    1    1    2    0    0 -0.55102387306E+02  0.17439878167E+02  0.31354767643E+02  0.65753660668E+02  0.00000000000E+00 0.  1.
</event>
<event>
 7    1  0.3056346E-009  0.1434675E+03  0.7561462E-02  0.1208738E+00
          2   -1    0    0  501    0  0.00000000000E+00  0.00000000000E+00  0.11372635126E+04  0.11372635126E+04  0.00000000000E+00 0. -1.
         -2   -1    0    0    0  501 -0.00000000000E+00 -0.00000000000E+00 -0.27428054023E+02  0.27428054023E+02  0.00000000000E+00 0.  1.
         25    2    1    2    0    0  0.98450271835E+02 -0.10028952088E+02  0.90578820455E+03  0.91972471104E+03  0.12509291224E+03 0.  0.
          5    1    3    3  502    0  0.12370879484E+03  0.73022601443E+01  0.62060879208E+03  0.63287434309E+03  0.41800000000E+01 0.  1.
         -5    1    3    3    0  502 -0.25258523005E+02 -0.17331212232E+02  0.28517941247E+03  0.28685036796E+03  0.41800000000E+01 0.  1.
        -11    1    1    2    0    0 -0.48928955390E+02 -0.38824305559E+02  0.69104348860E+02  0.93149237298E+02  0.00000000000E+00 0.  1.
         11    1    1    2    0    0 -0.49521316444E+02  0.48853257648E+02  0.13494290512E+03  0.15181761824E+03  0.00000000000E+00 0. -1.
</event>
<event>
 7    1  0.3056346E-009  0.9401713E+02  0.7561462E-02  0.1293405E+00
          1   -1    0    0  501    0  0.00000000000E+00  0.00000000000E+00  0.86227358046E+03  0.86227358046E+03  0.00000000000E+00 0. -1.
         -1   -1    0    0    0  501 -0.00000000000E+00 -0.00000000000E+00 -0.19736620895E+02  0.19736620895E+02  0.00000000000E+00 0.  1.
         25    2    1    2    0    0 -0.72850594881E+02  0.28187206506E+01  0.46519236783E+03  0.48720269323E+03  0.12508945136E+03 0.  0.
          5    1    3    3  502    0 -0.21910448230E+02  0.17356268233E+02  0.40858682451E+03  0.40956314941E+03  0.41800000000E+01 0.  1.
         -5    1    3    3    0  502 -0.50940146651E+02 -0.14537547582E+02  0.56605543325E+02  0.77639543827E+02  0.41800000000E+01 0.  1.
        -11    1    1    2    0    0  0.21653470359E+02  0.36254760504E+02  0.78872320799E+02  0.89465766783E+02  0.00000000000E+00 0.  1.
         11    1    1    2    0    0  0.51197124522E+02 -0.39073481155E+02  0.29847227093E+03  0.30534174134E+03  0.00000000000E+00 0. -1.
</event>
<event>
 7    1  0.3056346E-009  0.1302574E+03  0.7561462E-02  0.1227074E+00
         -2   -1    0    0    0  501 -0.00000000000E+00  0.00000000000E+00  0.56082612533E+02  0.56082612533E+02  0.00000000000E+00 0. -1.
          2   -1    0    0  501    0  0.00000000000E+00 -0.00000000000E+00 -0.40391179509E+03  0.40391179509E+03  0.00000000000E+00 0.  1.
         25    2    1    2    0    0 -0.87996662068E+02  0.92971920596E+01 -0.26975135684E+03  0.31022500077E+03  0.12507560221E+03 0.  0.
          5    1    3    3  502    0 -0.22788637762E+01  0.53163881459E+02 -0.12930435872E+03  0.13988810205E+03  0.41800000000E+01 0.  1.
         -5    1    3    3    0  502 -0.85717798292E+02 -0.43866689400E+02 -0.14044699813E+03  0.17033689872E+03  0.41800000000E+01 0.  1.
        -11    1    1    2    0    0  0.79005568873E+01  0.23057210878E+02 -0.55299798921E+02  0.60432785252E+02  0.00000000000E+00 0.  1.
         11    1    1    2    0    0  0.80096105181E+02 -0.32354402937E+02 -0.22778026793E+02  0.89336621601E+02  0.00000000000E+00 0. -1.
</event>
<event>
 7    1  0.3056346E-009  0.1008665E+03  0.7561462E-02  0.1278484E+00
         -3   -1    0    0    0  501 -0.00000000000E+00  0.00000000000E+00  0.31035273687E+03  0.31035273687E+03  0.00000000000E+00 0.  1.
          3   -1    0    0  501    0  0.00000000000E+00 -0.00000000000E+00 -0.43502663810E+02  0.43502663810E+02  0.00000000000E+00 0. -1.
         25    2    1    2    0    0 -0.60364347930E+01 -0.41138125464E+02  0.15094438081E+03  0.20040028500E+03  0.12508910511E+03 0.  0.
          5    1    3    3  502    0  0.42882780282E+02 -0.12045392992E+02  0.13338885133E+03  0.14069144394E+03  0.41800000000E+01 0. -1.
         -5    1    3    3    0  502 -0.48919215075E+02 -0.29092732472E+02  0.17555529482E+02  0.59708841067E+02  0.41800000000E+01 0. -1.
        -11    1    1    2    0    0  0.26312532578E+02  0.64101242344E+02  0.88094570025E+02  0.11208020302E+03  0.00000000000E+00 0.  1.
         11    1    1    2    0    0 -0.20276097785E+02 -0.22963116880E+02  0.27811122220E+02  0.41374912657E+02  0.00000000000E+00 0. -1.
</event>
<event>
 7    1  0.3056346E-009  0.1740448E+03  0.7561462E-02  0.1173694E+00
         -1   -1    0    0    0  501 -0.00000000000E+00  0.00000000000E+00  0.13490798254E+03  0.13490798254E+03  0.00000000000E+00 0.  1.
          1   -1    0    0  501    0  0.00000000000E+00 -0.00000000000E+00 -0.27926572696E+03  0.27926572696E+03  0.00000000000E+00 0. -1.
         25    2    1    2    0    0 -0.92935317215E+02 -0.12812478378E+03 -0.78336016277E+02  0.21642760626E+03  0.12510573089E+03 0.  0.
          5    1    3    3  502    0 -0.56137014434E+02 -0.13947737504E+03 -0.28131995468E+02  0.15301694059E+03  0.41800000000E+01 0.  1.
         -5    1    3    3    0  502 -0.36798302781E+02  0.11352591257E+02 -0.50204020809E+02  0.63410665674E+02  0.41800000000E+01 0.  1.
        -11    1    1    2    0    0  0.59561082598E+02  0.69908618380E+02  0.14446057577E+02  0.92970027770E+02  0.00000000000E+00 0.  1.
         11    1    1    2    0    0  0.33374234616E+02  0.58216165403E+02 -0.80467785723E+02  0.10477607546E+03  0.00000000000E+00 0. -1.
</event>
<event>
 7    1  0.3056346E-009  0.2089139E+03  0.7561462E-02  0.1142429E+00
          4   -1    0    0  501    0  0.00000000000E+00  0.00000000000E+00  0.30792944533E+03  0.30792944533E+03  0.00000000000E+00 0. -1.
         -4   -1    0    0    0  501 -0.00000000000E+00 -0.00000000000E+00 -0.17227263883E+03  0.17227263883E+03  0.00000000000E+00 0.  1.
         25    2    1    2    0    0  0.18252109467E+03 -0.53901971743E+02 -0.13588006676E+00  0.22774279392E+03  0.12508952458E+03 0.  0.
          5    1    3    3  502    0  0.15143900009E+03 -0.91242524957E+02  0.12734460486E+02  0.17730935675E+03  0.41800000000E+01 0. -1.
         -5    1    3    3    0  502  0.31082094586E+02  0.37340553214E+02 -0.12870340553E+02  0.50433437163E+02  0.41800000000E+01 0. -1.
        -11    1    1    2    0    0 -0.67917666289E+02  0.33786480891E+02  0.10943581506E+03  0.13315604869E+03  0.00000000000E+00 0. -1.
         11    1    1    2    0    0 -0.11460342839E+03  0.20115490852E+02  0.26356871504E+02  0.11930324155E+03  0.00000000000E+00 0.  1.
</event>
<event>
 7    1  0.3056346E-009  0.7723966E+02  0.7561462E-02  0.1337073E+00
         -4   -1    0    0    0  501 -0.00000000000E+00  0.00000000000E+00  0.26852509561E+02  0.26852509561E+02  0.00000000000E+00 0.  1.
          4   -1    0    0  501    0  0.00000000000E+00 -0.00000000000E+00 -0.63946289718E+03  0.63946289718E+03  0.00000000000E+00 0. -1.
         25    2    1    2    0    0  0.40655382737E+02 -0.31941244794E+02 -0.46889440433E+03  0.48803944006E+03  0.12508968536E+03 0.  0.
          5    1    3    3  502    0  0.13515669350E+02 -0.81553123633E+01  0.13578960678E+01  0.16385930534E+02  0.41800000000E+01 0.  1.
         -5    1    3    3    0  502  0.27139713387E+02 -0.23785932431E+02 -0.47025230039E+03  0.47165350953E+03  0.41800000000E+01 0.  1.
        -11    1    1    2    0    0 -0.67758384836E+02  0.31479072186E+02 -0.82363145287E+02  0.11120170144E+03  0.00000000000E+00 0.  1.
         11    1    1    2    0    0  0.27103002099E+02  0.46217260820E+00 -0.61352838009E+02  0.67074265245E+02  0.00000000000E+00 0. -1.
</event>
<event>
 7    1  0.3056346E-009  0.1193624E+03  0.7561462E-02  0.1244153E+00
         -2   -1    0    0    0  501 -0.00000000000E+00  0.00000000000E+00  0.61036846438E+02  0.61036846438E+02  0.00000000000E+00 0.  1.
          2   -1    0    0  501    0  0.00000000000E+00 -0.00000000000E+00 -0.30120503886E+03  0.30120503886E+03  0.00000000000E+00 0. -1.
         25    2    1    2    0    0 -0.68461600876E+02  0.43469871628E+02 -0.15840255722E+03  0.21752304438E+03  0.12509310200E+03 0.  0.
          5    1    3    3  502    0 -0.92322750034E+02  0.67895558372E+02 -0.12234783426E+03  0.16768948079E+03  0.41800000000E+01 0.  1.
         -5    1    3    3    0  502  0.23861149159E+02 -0.24425686744E+02 -0.36054722955E+02  0.49833563584E+02  0.41800000000E+01 0.  1.
        -11    1    1    2    0    0  0.18004977303E+02 -0.33764717823E+02  0.99974863117E+01  0.39549780150E+02  0.00000000000E+00 0.  1.
         11    1    1    2    0    0  0.50456623573E+02 -0.97051538047E+01 -0.91763121524E+02  0.10516906078E+03  0.00000000000E+00 0. -1.
</event>
<event>
 7    1  0.3056346E-009  0.1323227E+03  0.7561462E-02  0.1224049E+00
          2   -1    0    0  501    0  0.00000000000E+00  0.00000000000E+00  0.65288825407E+03  0.65288825407E+03  0.00000000000E+00 0. -1.
         -2   -1    0    0    0  501 -0.00000000000E+00 -0.00000000000E+00 -0.41606891825E+02  0.41606891825E+02  0.00000000000E+00 0.  1.
         25    2    1    2    0    0 -0.75246737174E+02 -0.73993452811E+02  0.20359159363E+03  0.26121981546E+03  0.12509657261E+03 0.  0.
          5    1    3    3  502    0 -0.51776951715E+02 -0.84269521934E+01  0.18005976605E+03  0.18759226531E+03  0.41800000000E+01 0.  1.
         -5    1    3    3    0  502 -0.23469785460E+02 -0.65566500618E+02  0.23531827581E+02  0.73627550157E+02  0.41800000000E+01 0.  1.
        -11    1    1    2    0    0 -0.22519485107E+02  0.22177598802E+02  0.14183135474E+03  0.14531037913E+03  0.00000000000E+00 0.  1.
         11    1    1    2    0    0  0.97766222281E+02  0.51815854009E+02  0.26585841388E+03  0.28796495130E+03  0.00000000000E+00 0. -1.
</event>
<event>
 7    1  0.3056346E-009  0.8693739E+02  0.7561462E-02  0.1310442E+00
          2   -1    0    0  501    0  0.00000000000E+00  0.00000000000E+00  0.42616974192E+03  0.42616974192E+03  0.00000000000E+00 0. -1.
         -2   -1    0    0    0  501 -0.00000000000E+00 -0.00000000000E+00 -0.35225546777E+02  0.35225546777E+02  0.00000000000E+00 0.  1.
         25    2    1    2    0    0 -0.26013793481E+02 -0.50883685778E+02  0.19657070607E+03  0.23990154322E+03  0.12508733359E+03 0.  0.
          5    1    3    3  502    0 -0.35895833649E+02 -0.42017690502E+02  0.21199854657E+03  0.21912291833E+03  0.41800000000E+01 0. -1.
         -5    1    3    3    0  502  0.98820401675E+01 -0.88659952760E+01 -0.15427840497E+02  0.20778624895E+02  0.41800000000E+01 0. -1.
        -11    1    1    2    0    0  0.33824143813E+02  0.73337480424E+02  0.13203894877E+03  0.15477965865E+03  0.00000000000E+00 0.  1.
         11    1    1    2    0    0 -0.78103503320E+01 -0.22453794645E+02  0.62334540303E+02  0.66714086826E+02  0.00000000000E+00 0. -1.
</event>
<event>
 7    1  0.3056346E-009  0.8154289E+02  0.7561462E-02  0.1324729E+00
         -2   -1    0    0    0  501 -0.00000000000E+00  0.00000000000E+00  0.18132524502E+03  0.18132524502E+03  0.00000000000E+00 0.  1.
          2   -1    0    0  501    0  0.00000000000E+00 -0.00000000000E+00 -0.15413365774E+03  0.15413365774E+03  0.00000000000E+00 0. -1.
         25    2    1    2    0    0  0.23823157737E+02 -0.35716755488E+02  0.13335628478E+03  0.18781527580E+03  0.12508976644E+03 0.  0.
          5    1    3    3  502    0  0.28561153131E+02 -0.69005913138E+02  0.13451354314E+03  0.15391205672E+03  0.41800000000E+01 0. -1.
         -5    1    3    3    0  502 -0.47379953943E+01  0.33289157650E+02 -0.11572583580E+01  0.33903219085E+02  0.41800000000E+01 0. -1.
        -11    1    1    2    0    0 -0.14759076918E+02 -0.26364326341E+01  0.14408102729E+02  0.20793618077E+02  0.00000000000E+00 0.  1.
         11    1    1    2    0    0 -0.90640808193E+01  0.38353188122E+02 -0.12057280022E+03  0.12685000888E+03  0.00000000000E+00 0. -1.
</event>
<event>
 7    1  0.3056346E-009  0.2714839E+03  0.7561462E-02  0.1100433E+00
         -1   -1    0    0    0  501 -0.00000000000E+00  0.00000000000E+00  0.42079689603E+02  0.42079689603E+02  0.00000000000E+00 0.  1.
          1   -1    0    0  501    0  0.00000000000E+00 -0.00000000000E+00 -0.19586611906E+04  0.19586611906E+04  0.00000000000E+00 0. -1.
         25    2    1    2    0    0 -0.42902904499E+02  0.26132582591E+03 -0.10702234834E+04  0.11095756235E+04  0.12509161987E+03 0.  0.
          5    1    3    3  502    0 -0.57072909750E+02  0.22589754928E+03 -0.10204504062E+04  0.10467203656E+04  0.41800000000E+01 0. -1.
         -5    1    3    3    0  502  0.14170005251E+02  0.35428276631E+02 -0.49773077111E+02  0.62855257847E+02  0.41800000000E+01 0. -1.
        -11    1    1    2    0    0 -0.14580523321E+02 -0.32623022691E+02 -0.56454921422E+02  0.66813257835E+02  0.00000000000E+00 0.  1.
         11    1    1    2    0    0  0.57483427819E+02 -0.22870280322E+03 -0.78990309622E+03  0.82435199890E+03  0.00000000000E+00 0. -1.
</event>
<event>
 7    1  0.3056346E-009  0.2267764E+03  0.7561462E-02  0.1128929E+00
          1   -1    0    0  501    0  0.00000000000E+00  0.00000000000E+00  0.12576556134E+04  0.12576556134E+04  0.00000000000E+00 0. -1.
         -1   -1    0    0    0  501 -0.00000000000E+00 -0.00000000000E+00 -0.56328609427E+02  0.56328609427E+02  0.00000000000E+00 0.  1.
         25    2    1    2    0    0  0.21842695586E+03 -0.17988061938E+02  0.87161083600E+03  0.90740699658E+03  0.12509237626E+03 0.  0.
          5    1    3    3  502    0  0.33564723122E+02 -0.35001356308E+02  0.74777935112E+02  0.89223862062E+02  0.41800000000E+01 0. -1.
         -5    1    3    3    0  502  0.18486223273E+03  0.17013294370E+02  0.79683290088E+03  0.81818313452E+03  0.41800000000E+01 0. -1.
        -11    1    1    2    0    0 -0.12166951183E+03  0.11563862100E+02  0.10241425840E+03  0.15945492573E+03  0.00000000000E+00 0. -1.
         11    1    1    2    0    0 -0.96757444030E+02  0.64241998381E+01  0.22730190959E+03  0.24712230054E+03  0.00000000000E+00 0.  1.
</event>
<event>
 7    1  0.3056346E-009  0.9913706E+02  0.7561462E-02  0.1282121E+00
          2   -1    0    0  501    0  0.00000000000E+00  0.00000000000E+00  0.26033099634E+02  0.26033099634E+02  0.00000000000E+00 0. -1.
         -2   -1    0    0    0  501 -0.00000000000E+00 -0.00000000000E+00 -0.63673199123E+03  0.63673199123E+03  0.00000000000E+00 0.  1.
         25    2    1    2    0    0  0.10660761763E+01 -0.67066724196E+02 -0.31613339782E+03  0.34653239045E+03  0.12508113527E+03 0.  0.
          5    1    3    3  502    0 -0.20348982537E+02  0.78409864389E+01 -0.13733391992E+01  0.22246811438E+02  0.41800000000E+01 0.  1.
         -5    1    3    3    0  502  0.21415058713E+02 -0.74907710635E+02 -0.31476005862E+03  0.32428557901E+03  0.41800000000E+01 0.  1.
        -11    1    1    2    0    0  0.79167070661E+01  0.81046347174E+02 -0.28633482154E+03  0.29768912420E+03  0.00000000000E+00 0.  1.
         11    1    1    2    0    0 -0.89827832424E+01 -0.13979622978E+02 -0.82306722403E+01  0.18543576217E+02  0.00000000000E+00 0. -1.
</event>
<event>
 7    1  0.3056346E-009  0.1327155E+03  0.7561462E-02  0.1223481E+00
         -4   -1    0    0    0  501 -0.00000000000E+00  0.00000000000E+00  0.52955615640E+02  0.52955615640E+02  0.00000000000E+00 0.  1.
          4   -1    0    0  501    0  0.00000000000E+00 -0.00000000000E+00 -0.36818342586E+03  0.36818342586E+03  0.00000000000E+00 0. -1.
         25    2    1    2    0    0  0.63198755487E+02 -0.51671950443E+02 -0.16262105519E+03  0.22080925634E+03  0.12508815666E+03 0.  0.
          5    1    3    3  502    0  0.82661047946E+02  0.27849377994E+01 -0.57697171604E+02  0.10093087108E+03  0.41800000000E+01 0.  1.
         -5    1    3    3    0  502 -0.19462292459E+02 -0.54456888242E+02 -0.10492388359E+03  0.11987838526E+03  0.41800000000E+01 0.  1.
        -11    1    1    2    0    0 -0.82918005467E+02  0.16841221853E+02 -0.75253801076E+02  0.11323496351E+03  0.00000000000E+00 0. -1.
         11    1    1    2    0    0  0.19719249980E+02  0.34830728590E+02 -0.77352953950E+02  0.87094821652E+02  0.00000000000E+00 0.  1.
</event>
<event>
 7    1  0.3056346E-009  0.6393145E+02  0.7561462E-02  0.1382037E+00
         -1   -1    0    0    0  501 -0.00000000000E+00  0.00000000000E+00  0.25816028834E+02  0.25816028834E+02  0.00000000000E+00 0.  1.
          1   -1    0    0  501    0  0.00000000000E+00 -0.00000000000E+00 -0.50784124310E+03  0.50784124310E+03  0.00000000000E+00 0. -1.
         25    2    1    2    0    0 -0.39820835333E+02 -0.67178026968E+01 -0.28405196422E+03  0.31299170574E+03  0.12508981446E+03 0.  0.
          5    1    3    3  502    0 -0.77190659385E+01 -0.21364863185E+02 -0.27547157776E+03  0.27643824611E+03  0.41800000000E+01 0. -1.
         -5    1    3    3    0  502 -0.32101769394E+02  0.14647060488E+02 -0.85803864641E+01  0.36553459632E+02  0.41800000000E+01 0. -1.
        -11    1    1    2    0    0  0.15202126836E+02  0.31079333601E+02 -0.17662129646E+03  0.17997808756E+03  0.00000000000E+00 0. -1.
         11    1    1    2    0    0  0.24618708496E+02 -0.24361530904E+02 -0.21351953583E+02  0.40687478637E+02  0.00000000000E+00 0.  1.
</event>
<event>
 7    1  0.3056346E-009  0.1241187E+03  0.7561462E-02  0.1236453E+00
         -1   -1    0    0    0  501 -0.00000000000E+00  0.00000000000E+00  0.40657850168E+02  0.40657850168E+02  0.00000000000E+00 0.  1.
          1   -1    0    0  501    0  0.00000000000E+00 -0.00000000000E+00 -0.69270103442E+03  0.69270103442E+03  0.00000000000E+00 0. -1.
         25    2    1    2    0    0  0.25310518632E+02  0.11787348031E+03 -0.25124903359E+03  0.30546471439E+03  0.12509130723E+03 0.  0.
          5    1    3    3  502    0  0.91407266803E+01  0.19775117664E+01 -0.15092122965E+03  0.15126848117E+03  0.41800000000E+01 0. -1.
         -5    1    3    3    0  502  0.16169791951E+02  0.11589596854E+03 -0.10032780394E+03  0.15419623322E+03  0.41800000000E+01 0. -1.
        -11    1    1    2    0    0 -0.85002031040E+01 -0.61164634373E+02 -0.32960310874E+03  0.33533800149E+03  0.00000000000E+00 0. -1.
         11    1    1    2    0    0 -0.16810315528E+02 -0.56708845937E+02 -0.71191041918E+02  0.92556168703E+02  0.00000000000E+00 0.  1.
</event>
<event>
 7    1  0.4098661E-009  0.1176405E+03  0.7561462E-02  0.1247041E+00
          1   -1    0    0  501    0  0.00000000000E+00  0.00000000000E+00  0.31519927773E+03  0.31519927773E+03  0.00000000000E+00 0. -1.
         -1   -1    0    0    0  501 -0.00000000000E+00 -0.00000000000E+00 -0.52141089468E+02  0.52141089468E+02  0.00000000000E+00 0.  1.
         25    2    1    2    0    0  0.47857214315E+02  0.43075641830E+02  0.11378772174E+03  0.18094754821E+03  0.12509414735E+03 0.  0.
          5    1    3    3  502    0  0.11879321208E+01  0.76491280188E+02  0.37259278098E+02  0.85194209497E+02  0.41800000000E+01 0.  1.
         -5    1    3    3    0  502  0.46669282194E+02 -0.33415638358E+02  0.76528443647E+02  0.95753338712E+02  0.41800000000E+01 0.  1.
        -11    1    1    2    0    0 -0.56529187232E+02  0.65532997734E+00  0.42618669337E+02  0.70797806764E+02  0.00000000000E+00 0.  1.
         11    1    1    2    0    0  0.86719729172E+01 -0.43730971807E+02  0.10665179718E+03  0.11559501222E+03  0.00000000000E+00 0. -1.
</event>
<event>
 7    1  0.3056346E-009  0.1217987E+03  0.7561462E-02  0.1240159E+00
         -2   -1    0    0    0  501 -0.00000000000E+00  0.00000000000E+00  0.60812518833E+03  0.60812518833E+03  0.00000000000E+00 0. -1.
          2   -1    0    0  501    0  0.00000000000E+00 -0.00000000000E+00 -0.95351826196E+02  0.95351826196E+02  0.00000000000E+00 0.  1.
         25    2    1    2    0    0 -0.17359563029E+02  0.94014618809E+02  0.54642643363E+03  0.56865598082E+03  0.12509066380E+03 0.  0.
          5    1    3    3  502    0  0.19101236171E+02  0.10102960799E+02  0.94956680826E+01  0.23970130423E+02  0.41800000000E+01 0.  1.
         -5    1    3    3    0  502 -0.36460799200E+02  0.83911658011E+02  0.53693076555E+03  0.54468585040E+03  0.41800000000E+01 0.  1.
        -11    1    1    2    0    0  0.44333778684E+02 -0.15471030205E+02 -0.62473529084E+01  0.47369464071E+02  0.00000000000E+00 0.  1.
         11    1    1    2    0    0 -0.26974215655E+02 -0.78543588605E+02 -0.27405718587E+02  0.87451569639E+02  0.00000000000E+00 0. -1.
</event>
<event>
 7    1  0.3056346E-009  0.2060346E+03  0.7561462E-02  0.1144745E+00
          3   -1    0    0  501    0  0.00000000000E+00  0.00000000000E+00  0.16419787431E+03  0.16419787431E+03  0.00000000000E+00 0. -1.
         -3   -1    0    0    0  501 -0.00000000000E+00 -0.00000000000E+00 -0.27405491980E+03  0.27405491980E+03  0.00000000000E+00 0.  1.
         25    2    1    2    0    0  0.53088460431E+01  0.18012593108E+03 -0.34872921909E+02  0.22212029603E+03  0.12509104817E+03 0.  0.
          5    1    3    3  502    0  0.47960826684E+02  0.16440816307E+03 -0.13869627738E+02  0.17187240602E+03  0.41800000000E+01 0. -1.
         -5    1    3    3    0  502 -0.42651980640E+02  0.15717768017E+02 -0.21003294172E+02  0.50247890006E+02  0.41800000000E+01 0. -1.
        -11    1    1    2    0    0 -0.36067937023E+02 -0.13988033379E+03 -0.80174828741E+02  0.16521321686E+03  0.00000000000E+00 0.  1.
         11    1    1    2    0    0  0.30759090979E+02 -0.40245597293E+02  0.51907051667E+01  0.50919281215E+02  0.00000000000E+00 0. -1.
</event>
<event>
 7    1  0.3056346E-009  0.1265323E+03  0.7561462E-02  0.1232694E+00
          3   -1    0    0  501    0  0.00000000000E+00  0.00000000000E+00  0.42688995427E+03  0.42688995427E+03  0.00000000000E+00 0. -1.
         -3   -1    0    0    0  501 -0.00000000000E+00 -0.00000000000E+00 -0.40335648416E+02  0.40335648416E+02  0.00000000000E+00 0.  1.
         25    2    1    2    0    0  0.20716802744E+01 -0.72184348100E+02  0.23700062446E+03  0.27754411291E+03  0.12508623685E+03 0.  0.
          5    1    3    3  502    0 -0.50580620421E+02 -0.75578782534E+02  0.13888452767E+03  0.16606304814E+03  0.41800000000E+01 0.  1.
         -5    1    3    3    0  502  0.52652300696E+02  0.33944344336E+01  0.98116096792E+02  0.11148106478E+03  0.41800000000E+01 0.  1.
        -11    1    1    2    0    0  0.24680850270E+02  0.77922870901E+02  0.77623640983E+02  0.11272332420E+03  0.00000000000E+00 0.  1.
         11    1    1    2    0    0 -0.26752530544E+02 -0.57385228008E+01  0.71930040408E+02  0.76958165568E+02  0.00000000000E+00 0. -1.
</event>
<event>
 7    1  0.4044068E-009  0.1304303E+03  0.7561462E-02  0.1226819E+00
          1   -1    0    0  501    0  0.00000000000E+00  0.00000000000E+00  0.17820234383E+03  0.17820234383E+03  0.00000000000E+00 0. -1.
         -1   -1    0    0    0  501 -0.00000000000E+00 -0.00000000000E+00 -0.13019971032E+03  0.13019971032E+03  0.00000000000E+00 0.  1.
         25    2    1    2    0    0 -0.55513858048E+02 -0.86615476071E+02 -0.19034572327E+01  0.16196963410E+03  0.12508601077E+03 0.  0.
          5    1    3    3  502    0  0.24569498315E+02 -0.60633805787E+02  0.29665740099E+02  0.71955869721E+02  0.41800000000E+01 0. -1.
         -5    1    3    3    0  502 -0.80083356363E+02 -0.25981670284E+02 -0.31569197332E+02  0.90013764377E+02  0.41800000000E+01 0. -1.
        -11    1    1    2    0    0 -0.58355318517E+01  0.18210277671E+02 -0.22440912565E+02  0.29483252900E+02  0.00000000000E+00 0.  1.
         11    1    1    2    0    0  0.61349389900E+02  0.68405198400E+02  0.72347003306E+02  0.11694916715E+03  0.00000000000E+00 0. -1.
</event>
<event>
 7    1  0.3056346E-009  0.1560800E+03  0.7561462E-02  0.1193195E+00
         -1   -1    0    0    0  501 -0.00000000000E+00  0.00000000000E+00  0.60731342099E+02  0.60731342099E+02  0.00000000000E+00 0.  1.
          1   -1    0    0  501    0  0.00000000000E+00 -0.00000000000E+00 -0.51434985807E+03  0.51434985807E+03  0.00000000000E+00 0. -1.
         25    2    1    2    0    0  0.65917080917E+02 -0.12161946142E+03 -0.25187889694E+03  0.31341542504E+03  0.12509954027E+03 0.  0.
          5    1    3    3  502    0  0.41069090598E+02 -0.11108223155E+03 -0.25931465349E+03  0.28510961801E+03  0.41800000000E+01 0.  1.
         -5    1    3    3    0  502  0.24847990320E+02 -0.10537229864E+02  0.74357565458E+01  0.28305807029E+02  0.41800000000E+01 0.  1.
        -11    1    1    2    0    0 -0.90608360230E+00  0.96724818757E+02 -0.10950881050E+03  0.14611191303E+03  0.00000000000E+00 0.  1.
         11    1    1    2    0    0 -0.65010997315E+02  0.24894642660E+02 -0.92230808535E+02  0.11555386211E+03  0.00000000000E+00 0. -1.
</event>
<event>
 7    1  0.3056346E-009  0.8823144E+02  0.7561462E-02  0.1307192E+00
         -1   -1    0    0    0  501 -0.00000000000E+00  0.00000000000E+00  0.70433186845E+02  0.70433186845E+02  0.00000000000E+00 0.  1.
          1   -1    0    0  501    0  0.00000000000E+00 -0.00000000000E+00 -0.36153590891E+03  0.36153590891E+03  0.00000000000E+00 0. -1.
         25    2    1    2    0    0 -0.11446189905E+02  0.32668288536E+02 -0.30874805190E+03  0.33491962830E+03  0.12509022955E+03 0.  0.
          5    1    3    3  502    0 -0.38778579636E+02  0.71024024472E+02 -0.21839885671E+03  0.23294575184E+03  0.41800000000E+01 0. -1.
         -5    1    3    3    0  502  0.27332389731E+02 -0.38355735935E+02 -0.90349195192E+02  0.10197387646E+03  0.41800000000E+01 0. -1.
        -11    1    1    2    0    0 -0.49441849129E+01 -0.31317113971E+02 -0.31821700922E+02  0.44920231984E+02  0.00000000000E+00 0. -1.
         11    1    1    2    0    0  0.16390374818E+02 -0.13511745654E+01  0.49467030754E+02  0.52129235473E+02  0.00000000000E+00 0.  1.
</event>
<event>
 7    1  0.3056346E-009  0.2241640E+03  0.7561462E-02  0.1130816E+00
         -1   -1    0    0    0  501 -0.00000000000E+00  0.00000000000E+00  0.12468517519E+03  0.12468517519E+03  0.00000000000E+00 0.  1.
          1   -1    0    0  501    0  0.00000000000E+00 -0.00000000000E+00 -0.42588753647E+03  0.42588753647E+03  0.00000000000E+00 0. -1.
         25    2    1    2    0    0  0.10952834346E+03  0.17299342192E+03 -0.14257274705E+03  0.27910236482E+03  0.12509180548E+03 0.  0.
          5    1    3    3  502    0  0.53402750515E+02  0.17542255027E+03 -0.11369636066E+03  0.21579911894E+03  0.41800000000E+01 0. -1.
         -5    1    3    3    0  502  0.56125592948E+02 -0.24291283535E+01 -0.28876386387E+02  0.63303245881E+02  0.41800000000E+01 0. -1.
        -11    1    1    2    0    0 -0.90480043885E+02 -0.10822609546E+03 -0.14557264584E+03  0.20270895712E+03  0.00000000000E+00 0.  1.
         11    1    1    2    0    0 -0.19048299579E+02 -0.64767326458E+02 -0.13056968391E+02  0.68761389726E+02  0.00000000000E+00 0. -1.
</event>
<event>
 7    1  0.3056346E-009  0.1324931E+03  0.7561462E-02  0.1223803E+00
         -2   -1    0    0    0  501 -0.00000000000E+00  0.00000000000E+00  0.21734196017E+03  0.21734196017E+03  0.00000000000E+00 0.  1.
          2   -1    0    0  501    0  0.00000000000E+00 -0.00000000000E+00 -0.12436147534E+03  0.12436147534E+03  0.00000000000E+00 0. -1.
         25    2    1    2    0    0  0.28657158182E+02 -0.11432728111E+03  0.89151508536E+02  0.19361850109E+03  0.12509265594E+03 0.  0.
          5    1    3    3  502    0  0.81476407193E+01 -0.19148002434E+02  0.93685225407E+02  0.96059481084E+02  0.41800000000E+01 0. -1.
         -5    1    3    3    0  502  0.20509517463E+02 -0.95179278678E+02 -0.45337168706E+01  0.97559020008E+02  0.41800000000E+01 0. -1.
        -11    1    1    2    0    0  0.11990627958E+02  0.10356800507E+03 -0.75259263527E+01  0.10453107864E+03  0.00000000000E+00 0.  1.
         11    1    1    2    0    0 -0.40647786140E+02  0.10759276039E+02  0.11354902653E+02  0.43553855779E+02  0.00000000000E+00 0. -1.
</event>
<event>
 7    1  0.3056346E-009  0.1035203E+03  0.7561462E-02  0.1273063E+00
         -2   -1    0    0    0  501 -0.00000000000E+00  0.00000000000E+00  0.29688324990E+02  0.29688324990E+02  0.00000000000E+00 0.  1.
          2   -1    0    0  501    0  0.00000000000E+00 -0.00000000000E+00 -0.45367584693E+03  0.45367584693E+03  0.00000000000E+00 0. -1.
         25    2    1    2    0    0  0.17570310625E+02 -0.55625674695E+01 -0.16310089542E+03  0.20636880987E+03  0.12508607288E+03 0.  0.
          5    1    3    3  502    0 -0.87579451464E+00  0.55200881530E+02 -0.41748335373E+02  0.69341908282E+02  0.41800000000E+01 0.  1.
         -5    1    3    3    0  502  0.18446105140E+02 -0.60763449000E+02 -0.12135256004E+03  0.13702690159E+03  0.41800000000E+01 0.  1.
        -11    1    1    2    0    0 -0.51979929100E+02  0.11185241133E+02 -0.19881382519E+03  0.20580077680E+03  0.00000000000E+00 0.  1.
         11    1    1    2    0    0  0.34409618475E+02 -0.56226736632E+01 -0.62072801338E+02  0.71194585248E+02  0.00000000000E+00 0. -1.
</event>
<event>
 7    1  0.3056346E-009  0.1067406E+03  0.7561462E-02  0.1266728E+00
         -1   -1    0    0    0  501 -0.00000000000E+00  0.00000000000E+00  0.39879113038E+02  0.39879113038E+02  0.00000000000E+00 0.  1.
          1   -1    0    0  501    0  0.00000000000E+00 -0.00000000000E+00 -0.30841295747E+03  0.30841295747E+03  0.00000000000E+00 0. -1.
         25    2    1    2    0    0  0.20016927998E+02  0.15006890196E+01 -0.16228700978E+03  0.20588167243E+03  0.12508900842E+03 0.  0.
          5    1    3    3  502    0  0.31990288058E+02  0.58711970920E+02 -0.99960776202E+02  0.12033330062E+03  0.41800000000E+01 0.  1.
         -5    1    3    3    0  502 -0.11973360060E+02 -0.57211281900E+02 -0.62326233579E+02  0.85548371814E+02  0.41800000000E+01 0.  1.
        -11    1    1    2    0    0  0.32600149399E+02  0.98616164603E+01 -0.16708776513E+02  0.37936847953E+02  0.00000000000E+00 0.  1.
         11    1    1    2    0    0 -0.52617077397E+02 -0.11362305480E+02 -0.89538058141E+02  0.10447355012E+03  0.00000000000E+00 0. -1.
</event>
<event>
 7    1  0.3464783E-009  0.1399050E+03  0.7561462E-02  0.1213457E+00
          2   -1    0    0  501    0  0.00000000000E+00  0.00000000000E+00  0.62044956961E+03  0.62044956961E+03  0.00000000000E+00 0. -1.
         -2   -1    0    0    0  501 -0.00000000000E+00 -0.00000000000E+00 -0.37319890252E+02  0.37319890252E+02  0.00000000000E+00 0.  1.
         25    2    1    2    0    0  0.22320740893E+02 -0.10172706297E+03  0.35999506678E+03  0.39508416474E+03  0.12509371810E+03 0.  0.
          5    1    3    3  502    0  0.62423361964E+02 -0.96593280943E+02  0.20763418974E+03  0.23739496034E+03  0.41800000000E+01 0. -1.
         -5    1    3    3    0  502 -0.40102621070E+02 -0.51337820257E+01  0.15236087703E+03  0.15768920440E+03  0.41800000000E+01 0. -1.
        -11    1    1    2    0    0 -0.28015483706E+02  0.65993903005E+01  0.12274690301E+02  0.31290370749E+02  0.00000000000E+00 0. -1.
         11    1    1    2    0    0  0.56947428128E+01  0.95127672669E+02  0.21085992228E+03  0.23139492437E+03  0.00000000000E+00 0.  1.
</event>
<event>
 7    1  0.3056346E-009  0.1160797E+03  0.7561462E-02  0.1249708E+00
         -1   -1    0    0    0  501 -0.00000000000E+00  0.00000000000E+00  0.11731832376E+03  0.11731832376E+03  0.00000000000E+00 0.  1.
          1   -1    0    0  501    0  0.00000000000E+00 -0.00000000000E+00 -0.18539353363E+03  0.18539353363E+03  0.00000000000E+00 0. -1.
         25    2    1    2    0    0 -0.15414626090E+02 -0.89866289320E+02 -0.77937709603E+02  0.17330767863E+03  0.12509078400E+03 0.  0.
          5    1    3    3  502    0  0.24662461383E+02 -0.49521797371E+02  0.20829965818E+02  0.59262174212E+02  0.41800000000E+01 0. -1.
         -5    1    3    3    0  502 -0.40077087473E+02 -0.40344491949E+02 -0.98767675421E+02  0.11404550442E+03  0.41800000000E+01 0. -1.
        -11    1    1    2    0    0 -0.41081550370E+01  0.98304180359E+02 -0.11741397124E+02  0.99088088186E+02  0.00000000000E+00 0. -1.
         11    1    1    2    0    0  0.19522781127E+02 -0.84378910389E+01  0.21603896852E+02  0.30316090567E+02  0.00000000000E+00 0.  1.
</event>
<event>
 7    1  0.3056346E-009  0.9010141E+02  0.7561462E-02  0.1302606E+00
          2   -1    0    0  501    0  0.00000000000E+00  0.00000000000E+00  0.20483616964E+03  0.20483616964E+03  0.00000000000E+00 0.  1.
         -2   -1    0    0    0  501 -0.00000000000E+00 -0.00000000000E+00 -0.78962497359E+02  0.78962497359E+02  0.00000000000E+00 0. -1.
         25    2    1    2    0    0  0.13216057933E+02  0.64063072415E+02  0.82498618108E+02  0.16350361021E+03  0.12509463268E+03 0.  0.
          5    1    3    3  502    0 -0.22426931283E+02  0.47310799187E+02 -0.17968285355E+02  0.55512256711E+02  0.41800000000E+01 0.  1.
         -5    1    3    3    0  502  0.35642989217E+02  0.16752273228E+02  0.10046690346E+03  0.10799135350E+03  0.41800000000E+01 0.  1.
        -11    1    1    2    0    0  0.15976676919E+02  0.17548747361E+01  0.45506984652E+02  0.48261987556E+02  0.00000000000E+00 0.  1.
         11    1    1    2    0    0 -0.29192734852E+02 -0.65817947152E+02 -0.21319304837E+01  0.72033069232E+02  0.00000000000E+00 0. -1.
</event>
<event>
 7    1  0.3056346E-009  0.1465293E+03  0.7561462E-02  0.1204804E+00
          2   -1    0    0  501    0  0.00000000000E+00  0.00000000000E+00  0.18082299734E+03  0.18082299734E+03  0.00000000000E+00 0. -1.
         -2   -1    0    0    0  501 -0.00000000000E+00 -0.00000000000E+00 -0.14606045021E+03  0.14606045021E+03  0.00000000000E+00 0.  1.
         25    2    1    2    0    0 -0.59197833155E+02  0.92186214540E+02  0.70735183230E+02  0.18070393775E+03  0.12509102833E+03 0.  0.
          5    1    3    3  502    0 -0.75872951000E+01 -0.29720287651E+02  0.27417520156E+02  0.41352815581E+02  0.41800000000E+01 0.  1.
         -5    1    3    3    0  502 -0.51610538055E+02  0.12190650219E+03  0.43317663074E+02  0.13935112217E+03  0.41800000000E+01 0.  1.
        -11    1    1    2    0    0 -0.98536715498E+01 -0.44888575453E+02  0.14805883979E+02  0.48283467664E+02  0.00000000000E+00 0. -1.
         11    1    1    2    0    0  0.69051504705E+02 -0.47297639087E+02 -0.50778520078E+02  0.97896042139E+02  0.00000000000E+00 0.  1.
</event>
<event>
 7    1  0.3056346E-009  0.1806169E+03  0.7561462E-02  0.1167207E+00
          1   -1    0    0  501    0  0.00000000000E+00  0.00000000000E+00  0.98706445094E+03  0.98706445094E+03  0.00000000000E+00 0. -1.
         -1   -1    0    0    0  501 -0.00000000000E+00 -0.00000000000E+00 -0.38350177854E+02  0.38350177854E+02  0.00000000000E+00 0.  1.
         25    2    1    2    0    0  0.14139675212E+03  0.68773247970E+02  0.57610599316E+03  0.61013801405E+03  0.12508988647E+03 0.  0.
          5    1    3    3  502    0 -0.18345864700E+02  0.24411260127E+02  0.52305576520E+02  0.60711004832E+02  0.41800000000E+01 0.  1.
         -5    1    3    3    0  502  0.15974261682E+03  0.44361987843E+02  0.52380041664E+03  0.54942700922E+03  0.41800000000E+01 0.  1.
        -11    1    1    2    0    0 -0.39049937217E+02  0.36085696905E+01  0.26934243120E+02  0.47574918017E+02  0.00000000000E+00 0. -1.
         11    1    1    2    0    0 -0.10234681491E+03 -0.72381817660E+02  0.34567403681E+03  0.36770169673E+03  0.00000000000E+00 0.  1.
</event>
<event>
 6    1  0.3056346E-009  0.1161603E+03  0.7561462E-02  0.1249569E+00
         -1   -1    0    0    0  501 -0.00000000000E+00  0.00000000000E+00  0.53366005186E+02  0.53366005186E+02  0.00000000000E+00 0.  1.
          1   -1    0    0  501    0  0.00000000000E+00 -0.00000000000E+00 -0.47117074150E+03  0.47117074150E+03  0.00000000000E+00 0. -1.
          5    1    1    2  502    0 -0.48642000599E+02  0.70204632482E+02 -0.26438846715E+03  0.27787311602E+03  0.41800000000E+01 0.  1.
         -5    1    1    2    0  502  0.28438611729E+02 -0.36180231997E+02 -0.13341549223E+03  0.14119111088E+03  0.41800000000E+01 0.  1.
        -11    1    1    2    0    0 -0.37082000128E+02 -0.94532233944E+01 -0.19914959218E+02  0.43139816489E+02  0.00000000000E+00 0. -1.
         11    1    1    2    0    0  0.57285388998E+02 -0.24571177091E+02 -0.85817720899E-01  0.62332703302E+02  0.00000000000E+00 0.  1.
</event>
<event>
 7    1  0.3056346E-009  0.8023498E+02  0.7561462E-02  0.1328386E+00
         -1   -1    0    0    0  501 -0.00000000000E+00  0.00000000000E+00  0.97201171897E+01  0.97201171897E+01  0.00000000000E+00 0. -1.
          1   -1    0    0  501    0  0.00000000000E+00 -0.00000000000E+00 -0.23388763655E+04  0.23388763655E+04  0.00000000000E+00 0.  1.
         25    2    1    2    0    0  0.15557816531E+01 -0.28692971776E+02 -0.20394542726E+04  0.20434891051E+04  0.12509310768E+03 0.  0.
          5    1    3    3  502    0  0.24831088200E+02  0.69200553036E+01 -0.93855064843E+02  0.97420304368E+02  0.41800000000E+01 0.  1.
         -5    1    3    3    0  502 -0.23275306547E+02 -0.35613027079E+02 -0.19455992078E+04  0.19460688008E+04  0.41800000000E+01 0.  1.
        -11    1    1    2    0    0  0.25051660094E+02  0.51042103294E+02 -0.21993710304E+03  0.22716780422E+03  0.00000000000E+00 0. -1.
         11    1    1    2    0    0 -0.26607441747E+02 -0.22349131519E+02 -0.69764872654E+02  0.77939573340E+02  0.00000000000E+00 0.  1.
</event>
<event>
 7    1  0.3056346E-009  0.1070497E+03  0.7561462E-02  0.1266133E+00
          1   -1    0    0  501    0  0.00000000000E+00  0.00000000000E+00  0.12470945113E+03  0.12470945113E+03  0.00000000000E+00 0. -1.
         -1   -1    0    0    0  501 -0.00000000000E+00 -0.00000000000E+00 -0.15934436638E+03  0.15934436638E+03  0.00000000000E+00 0.  1.
         25    2    1    2    0    0  0.78471537974E+02 -0.18925581953E+01 -0.62266040373E+02  0.16026797675E+03  0.12508957007E+03 0.  0.
          5    1    3    3  502    0  0.46937879145E+02 -0.43575029686E+02  0.15920352751E+02  0.66127738072E+02  0.41800000000E+01 0.  1.
         -5    1    3    3    0  502  0.31533658829E+02  0.41682471491E+02 -0.78186393124E+02  0.94140238679E+02  0.41800000000E+01 0.  1.
        -11    1    1    2    0    0 -0.70518140392E+01 -0.21264282189E+02  0.41758220428E+02  0.47388255418E+02  0.00000000000E+00 0. -1.
         11    1    1    2    0    0 -0.71419723935E+02  0.23156840384E+02 -0.14127095306E+02  0.76397585337E+02  0.00000000000E+00 0.  1.
</event>
<event>
 7    1  0.3056346E-009  0.7237725E+02  0.7561462E-02  0.1352191E+00
          4   -1    0    0  501    0  0.00000000000E+00  0.00000000000E+00  0.18943354196E+03  0.18943354196E+03  0.00000000000E+00 0. -1.
         -4   -1    0    0    0  501 -0.00000000000E+00 -0.00000000000E+00 -0.71448345483E+02  0.71448345483E+02  0.00000000000E+00 0.  1.
         25    2    1    2    0    0 -0.18105477415E+02  0.40649493067E+02  0.68245212747E+02  0.14928285148E+03  0.12509105117E+03 0.  0.
          5    1    3    3  502    0  0.24195596427E+02  0.14431276055E+02 -0.28572492986E+02  0.40342885004E+02  0.41800000000E+01 0.  1.
         -5    1    3    3    0  502 -0.42301073842E+02  0.26218217012E+02  0.96817705733E+02  0.10893996647E+03  0.41800000000E+01 0.  1.
        -11    1    1    2    0    0 -0.15477591539E+02 -0.27967090819E+01  0.58205315000E+02  0.60292919284E+02  0.00000000000E+00 0. -1.
         11    1    1    2    0    0  0.33583068954E+02 -0.37852783985E+02 -0.84653312697E+01  0.51306116685E+02  0.00000000000E+00 0.  1.
</event>
<event>
 7    1  0.3056346E-009  0.1148783E+03  0.7561462E-02  0.1251794E+00
         -2   -1    0    0    0  501 -0.00000000000E+00  0.00000000000E+00  0.42263250397E+03  0.42263250397E+03  0.00000000000E+00 0.  1.
          2   -1    0    0  501    0  0.00000000000E+00 -0.00000000000E+00 -0.31343778745E+02  0.31343778745E+02  0.00000000000E+00 0. -1.
         25    2    1    2    0    0  0.39190396375E+02  0.23416151344E+01  0.22258386039E+03  0.25832606911E+03  0.12508961886E+03 0.  0.
          5    1    3    3  502    0  0.39782698979E+02 -0.57876868521E+02  0.10989137394E+03  0.13048364462E+03  0.41800000000E+01 0.  1.
         -5    1    3    3    0  502 -0.59230260382E+00  0.60218483656E+02  0.11269248645E+03  0.12784242449E+03  0.41800000000E+01 0.  1.
        -11    1    1    2    0    0 -0.99173974694E+01 -0.45675811255E+02  0.82702225495E+02  0.94996276813E+02  0.00000000000E+00 0.  1.
         11    1    1    2    0    0 -0.29272998906E+02  0.43334196121E+02  0.86002639340E+02  0.10065393679E+03  0.00000000000E+00 0. -1.
</event>
<event>
 7    1  0.3056346E-009  0.1033087E+03  0.7561462E-02  0.1273488E+00
         -2   -1    0    0    0  501 -0.00000000000E+00  0.00000000000E+00  0.19469402467E+03  0.19469402467E+03  0.00000000000E+00 0.  1.
          2   -1    0    0  501    0  0.00000000000E+00 -0.00000000000E+00 -0.12634740311E+03  0.12634740311E+03  0.00000000000E+00 0. -1.
         25    2    1    2    0    0 -0.33892266607E+02  0.90648492576E+02  0.85873591622E+02  0.17996675582E+03  0.12509166448E+03 0.  0.
          5    1    3    3  502    0 -0.33401553750E+01  0.36702336316E+02 -0.30514951745E+02  0.48029707567E+02  0.41800000000E+01 0.  1.
         -5    1    3    3    0  502 -0.30552111232E+02  0.53946156260E+02  0.11638854337E+03  0.13193704826E+03  0.41800000000E+01 0.  1.
        -11    1    1    2    0    0  0.45189922810E+02 -0.63086702445E+02  0.31464674171E+02  0.83738204361E+02  0.00000000000E+00 0.  1.
         11    1    1    2    0    0 -0.11297656203E+02 -0.27561790131E+02 -0.48991644232E+02  0.57336467588E+02  0.00000000000E+00 0. -1.
</event>
<event>
 7    1  0.3056346E-009  0.2094812E+03  0.7561462E-02  0.1141977E+00
          2   -1    0    0  501    0  0.00000000000E+00  0.00000000000E+00  0.16886314022E+03  0.16886314022E+03  0.00000000000E+00 0. -1.
         -2   -1    0    0    0  501 -0.00000000000E+00 -0.00000000000E+00 -0.37691502603E+03  0.37691502603E+03  0.00000000000E+00 0.  1.
         25    2    1    2    0    0  0.15031353319E+03  0.11469880378E+03 -0.24435768677E+03  0.33332966361E+03  0.12509201298E+03 0.  0.
          5    1    3    3  502    0  0.73154530267E+02  0.11366916553E+03 -0.20757336536E+03  0.24774268687E+03  0.41800000000E+01 0.  1.
         -5    1    3    3    0  502  0.77159002920E+02  0.10296382594E+01 -0.36784321412E+02  0.85586976745E+02  0.41800000000E+01 0.  1.
        -11    1    1    2    0    0 -0.15692148954E+03 -0.90047601267E+02  0.43207537407E+02  0.18601025688E+03  0.00000000000E+00 0. -1.
         11    1    1    2    0    0  0.66079563577E+01 -0.24651202517E+02 -0.69017364508E+01  0.26438245759E+02  0.00000000000E+00 0.  1.
</event>
<event>
 7    1  0.3056346E-009  0.1139129E+03  0.7561462E-02  0.1253491E+00
          2   -1    0    0  501    0  0.00000000000E+00  0.00000000000E+00  0.18247530335E+04  0.18247530335E+04  0.00000000000E+00 0. -1.
         -2   -1    0    0    0  501 -0.00000000000E+00 -0.00000000000E+00 -0.14829569681E+02  0.14829569681E+02  0.00000000000E+00 0.  1.
         25    2    1    2    0    0 -0.21005931080E+02 -0.59368659403E+02  0.15508843828E+04  0.15571952340E+04  0.12509492871E+03 0.  0.
          5    1    3    3  502    0  0.29908871342E+02  0.85302674192E+01  0.92932915794E+03  0.92985883995E+03  0.41800000000E+01 0. -1.
         -5    1    3    3    0  502 -0.50914802422E+02 -0.67898926823E+02  0.62155522489E+03  0.62733639409E+03  0.41800000000E+01 0. -1.
        -11    1    1    2    0    0 -0.22512679655E+02 -0.13753480165E+02  0.46761679024E+02  0.53690162852E+02  0.00000000000E+00 0.  1.
         11    1    1    2    0    0  0.43518610735E+02  0.73122139569E+02  0.21227740201E+03  0.22869720632E+03  0.00000000000E+00 0. -1.
</event>
<event>
 7    1  0.3056346E-009  0.8851389E+02  0.7561462E-02  0.1306491E+00
          1   -1    0    0  501    0  0.00000000000E+00  0.00000000000E+00  0.91495275284E+02  0.91495275284E+02  0.00000000000E+00 0. -1.
         -1   -1    0    0    0  501 -0.00000000000E+00 -0.00000000000E+00 -0.13936657515E+03  0.13936657515E+03  0.00000000000E+00 0.  1.
         25    2    1    2    0    0 -0.43329195902E+01  0.19499781804E+02 -0.66668643400E+02  0.14314621409E+03  0.12508842838E+03 0.  0.
          5    1    3    3  502    0  0.30441453679E+02 -0.25434294789E+02 -0.75600840580E+02  0.85478330294E+02  0.41800000000E+01 0.  1.
         -5    1    3    3    0  502 -0.34774373269E+02  0.44934076593E+02  0.89321971804E+01  0.57667883800E+02  0.41800000000E+01 0.  1.
        -11    1    1    2    0    0  0.22890294230E+02  0.23822935165E+02 -0.73112436992E+01  0.33837140751E+02  0.00000000000E+00 0.  1.
         11    1    1    2    0    0 -0.18557374639E+02 -0.43322716970E+02  0.26108587236E+02  0.53878495586E+02  0.00000000000E+00 0. -1.
</event>
<event>
 7    1  0.3056346E-009  0.1129217E+03  0.7561462E-02  0.1255253E+00
          2   -1    0    0  501    0  0.00000000000E+00  0.00000000000E+00  0.88729142716E+03  0.88729142716E+03  0.00000000000E+00 0. -1.
         -2   -1    0    0    0  501 -0.00000000000E+00 -0.00000000000E+00 -0.16715354941E+02  0.16715354941E+02  0.00000000000E+00 0.  1.
         25    2    1    2    0    0  0.52641568491E+02 -0.21339013536E+02  0.51536632325E+03  0.53336341037E+03  0.12509033598E+03 0.  0.
          5    1    3    3  502    0 -0.86564991157E+01 -0.51947212000E+02  0.10770793211E+03  0.11996632382E+03  0.41800000000E+01 0. -1.
         -5    1    3    3    0  502  0.61298067606E+02  0.30608198464E+02  0.40765839114E+03  0.41339708655E+03  0.41800000000E+01 0. -1.
        -11    1    1    2    0    0 -0.41828120232E+02  0.54953182023E+02  0.26262693944E+03  0.27155543297E+03  0.00000000000E+00 0.  1.
         11    1    1    2    0    0 -0.10813448259E+02 -0.33614168487E+02  0.92582809532E+02  0.99087938758E+02  0.00000000000E+00 0. -1.
</event>
<event>
 7    1  0.3056346E-009  0.8143372E+02  0.7561462E-02  0.1325031E+00
          1   -1    0    0  501    0  0.00000000000E+00  0.00000000000E+00  0.78971154535E+03  0.78971154535E+03  0.00000000000E+00 0. -1.
         -1   -1    0    0    0  501 -0.00000000000E+00 -0.00000000000E+00 -0.15990640328E+02  0.15990640328E+02  0.00000000000E+00 0.  1.
         25    2    1    2    0    0 -0.82382315409E+01  0.32858341249E+01  0.58900570540E+03  0.60220792199E+03  0.12509194676E+03 0.  0.
          5    1    3    3  502    0 -0.10585767636E+02 -0.36959865111E+02  0.58321701894E+02  0.69978449663E+02  0.41800000000E+01 0. -1.
         -5    1    3    3    0  502  0.23475360951E+01  0.40245699236E+02  0.53068400351E+03  0.53222947233E+03  0.41800000000E+01 0. -1.
        -11    1    1    2    0    0 -0.33098828165E+01 -0.42580149464E+02  0.11451904967E+03  0.12222371779E+03  0.00000000000E+00 0. -1.
         11    1    1    2    0    0  0.11548114357E+02  0.39294315339E+02  0.70196149948E+02  0.81270545898E+02  0.00000000000E+00 0.  1.
</event>
<event>
 7    1  0.3056346E-009  0.6538577E+02  0.7561462E-02  0.1376526E+00
         -2   -1    0    0    0  501 -0.00000000000E+00  0.00000000000E+00  0.25973584663E+03  0.25973584663E+03  0.00000000000E+00 0. -1.
          2   -1    0    0  501    0  0.00000000000E+00 -0.00000000000E+00 -0.59951723947E+02  0.59951723947E+02  0.00000000000E+00 0.  1.
         25    2    1    2    0    0  0.46265519445E+02 -0.11003202911E+02  0.60463913676E+02  0.14684660966E+03  0.12508586310E+03 0.  0.
          5    1    3    3  502    0  0.12009205673E+02  0.22251966084E+02  0.87943375088E+02  0.91601750187E+02  0.41800000000E+01 0. -1.
         -5    1    3    3    0  502  0.34256313772E+02 -0.33255168995E+02 -0.27479461413E+02  0.55244859468E+02  0.41800000000E+01 0. -1.
        -11    1    1    2    0    0 -0.21564944841E+02 -0.10936381383E+02  0.13765418087E+03  0.13976167141E+03  0.00000000000E+00 0. -1.
         11    1    1    2    0    0 -0.24700574603E+02  0.21939584294E+02  0.16660281329E+01  0.33079289510E+02  0.00000000000E+00 0.  1.
</event>
<event>
 7    1  0.3056346E-009  0.1079825E+03  0.7561462E-02  0.1264352E+00
          2   -1    0    0  501    0  0.00000000000E+00  0.00000000000E+00  0.42244559273E+03  0.42244559273E+03  0.00000000000E+00 0. -1.
         -2   -1    0    0    0  501 -0.00000000000E+00 -0.00000000000E+00 -0.57314385295E+02  0.57314385295E+02  0.00000000000E+00 0.  1.
         25    2    1    2    0    0  0.77962690914E+02  0.58619889679E+02  0.10801648847E+03  0.19191088810E+03  0.12509098508E+03 0.  0.
          5    1    3    3  502    0  0.68956529360E+02  0.11719303159E+02  0.12310728062E+03  0.14165175590E+03  0.41800000000E+01 0. -1.
         -5    1    3    3    0  502  0.90061615534E+01  0.46900586520E+02 -0.15090792146E+02  0.50259132200E+02  0.41800000000E+01 0. -1.
        -11    1    1    2    0    0 -0.33938026271E+02 -0.31127128427E+02  0.30191461143E+02  0.55065525307E+02  0.00000000000E+00 0.  1.
         11    1    1    2    0    0 -0.44024664642E+02 -0.27492761252E+02  0.22692325782E+03  0.23278356462E+03  0.00000000000E+00 0. -1.
</event>
<event>
 7    1  0.3056346E-009  0.8970167E+02  0.7561462E-02  0.1303576E+00
          1   -1    0    0  501    0  0.00000000000E+00  0.00000000000E+00  0.44829263563E+03  0.44829263563E+03  0.00000000000E+00 0. -1.
         -1   -1    0    0    0  501 -0.00000000000E+00 -0.00000000000E+00 -0.42128706168E+02  0.42128706168E+02  0.00000000000E+00 0.  1.
         25    2    1    2    0    0  0.58199152402E+02  0.31228900643E+02  0.12801056273E+03  0.19078017540E+03  0.12509190852E+03 0.  0.
          5    1    3    3  502    0 -0.18168096183E+02  0.26494650285E+02  0.10631320322E+03  0.11113962296E+03  0.41800000000E+01 0. -1.
         -5    1    3    3    0  502  0.76367248585E+02  0.47342503581E+01  0.21697359512E+02  0.79640552438E+02  0.41800000000E+01 0. -1.
        -11    1    1    2    0    0 -0.45711677982E+02 -0.34731906334E+02  0.28062592270E+03  0.28643807588E+03  0.00000000000E+00 0. -1.
         11    1    1    2    0    0 -0.12487474420E+02  0.35030056908E+01 -0.24725559719E+01  0.13203090520E+02  0.00000000000E+00 0.  1.
</event>
<event>
 7    1  0.3056346E-009  0.1104550E+03  0.7561462E-02  0.1259730E+00
          1   -1    0    0  501    0  0.00000000000E+00  0.00000000000E+00  0.58515196311E+03  0.58515196311E+03  0.00000000000E+00 0. -1.
         -1   -1    0    0    0  501 -0.00000000000E+00 -0.00000000000E+00 -0.33588615322E+02  0.33588615322E+02  0.00000000000E+00 0.  1.
         25    2    1    2    0    0 -0.35883905281E+02 -0.79393332458E+02  0.27796538567E+03  0.31702513662E+03  0.12509686535E+03 0.  0.
          5    1    3    3  502    0 -0.58245558699E+02 -0.39162743626E+02  0.25669119387E+03  0.26614677719E+03  0.41800000000E+01 0. -1.
         -5    1    3    3    0  502  0.22361653418E+02 -0.40230588832E+02  0.21274191797E+02  0.50878359427E+02  0.41800000000E+01 0. -1.
        -11    1    1    2    0    0 -0.77438420237E+01  0.52634085186E+02  0.22476656532E+03  0.23097688823E+03  0.00000000000E+00 0. -1.
         11    1    1    2    0    0  0.43627747305E+02  0.26759247273E+02  0.48831396798E+02  0.70738553581E+02  0.00000000000E+00 0.  1.
</event>
<event>
 7    1  0.3056346E-009  0.8730616E+02  0.7561462E-02  0.1309510E+00
          1   -1    0    0  501    0  0.00000000000E+00  0.00000000000E+00  0.16652639128E+02  0.16652639128E+02  0.00000000000E+00 0. -1.
         -1   -1    0    0    0  501 -0.00000000000E+00 -0.00000000000E+00 -0.80358578045E+03  0.80358578045E+03  0.00000000000E+00 0.  1.
         25    2    1    2    0    0 -0.38879203576E+02 -0.83600258728E+01 -0.52458329419E+03  0.54075637986E+03  0.12509335436E+03 0.  0.
          5    1    3    3  502    0 -0.33537681241E+02 -0.57248744958E+02 -0.16640604392E+03  0.17919441597E+03  0.41800000000E+01 0.  1.
         -5    1    3    3    0  502 -0.53415223357E+01  0.48888719086E+02 -0.35817725027E+03  0.36156196389E+03  0.41800000000E+01 0.  1.
        -11    1    1    2    0    0  0.48005356683E+02  0.27970872573E+01 -0.26428172687E+03  0.26862086502E+03  0.00000000000E+00 0.  1.
         11    1    1    2    0    0 -0.91261531065E+01  0.55629386155E+01  0.19318797411E+01  0.10861174702E+02  0.00000000000E+00 0. -1.
</event>
<event>
 7    1  0.3056346E-009  0.1053397E+03  0.7561462E-02  0.1269452E+00
         -2   -1    0    0    0  501 -0.00000000000E+00  0.00000000000E+00  0.94188631015E+01  0.94188631015E+01  0.00000000000E+00 0.  1.
          2   -1    0    0  501    0  0.00000000000E+00 -0.00000000000E+00 -0.16322432943E+04  0.16322432943E+04  0.00000000000E+00 0. -1.
         25    2    1    2    0    0  0.52836095666E+01  0.46642035591E+02 -0.11438130169E+04  0.11515897448E+04  0.12508927515E+03 0.  0.
          5    1    3    3  502    0  0.53262335208E+02  0.25782260479E+02 -0.91121546863E+03  0.91314440477E+03  0.41800000000E+01 0.  1.
         -5    1    3    3    0  502 -0.47978725641E+02  0.20859775112E+02 -0.23259754826E+03  0.23844534004E+03  0.41800000000E+01 0.  1.
        -11    1    1    2    0    0 -0.24150309362E+02  0.18902298075E+02 -0.88842646294E+02  0.93986967795E+02  0.00000000000E+00 0.  1.
         11    1    1    2    0    0  0.18866699796E+02 -0.65544333666E+02 -0.39016876806E+03  0.39608544483E+03  0.00000000000E+00 0. -1.
</event>
<event>
 7    1  0.3056346E-009  0.9221308E+02  0.7561462E-02  0.1297579E+00
          2   -1    0    0  501    0  0.00000000000E+00  0.00000000000E+00  0.17181744765E+03  0.17181744765E+03  0.00000000000E+00 0.  1.
         -2   -1    0    0    0  501 -0.00000000000E+00 -0.00000000000E+00 -0.14885717808E+03  0.14885717808E+03  0.00000000000E+00 0. -1.
         25    2    1    2    0    0  0.30832676563E+02  0.56348706451E+01 -0.10165135026E+03  0.16420636051E+03  0.12509326965E+03 0.  0.
          5    1    3    3  502    0  0.19100613514E+02  0.63279050755E+02 -0.73239391565E+02  0.98744886338E+02  0.41800000000E+01 0.  1.
         -5    1    3    3    0  502  0.11732063049E+02 -0.57644180110E+02 -0.28411958699E+02  0.65461474175E+02  0.41800000000E+01 0.  1.
        -11    1    1    2    0    0  0.14054399387E+02 -0.86279368702E+00 -0.81314084173E+01  0.16260084807E+02  0.00000000000E+00 0. -1.
         11    1    1    2    0    0 -0.44887075950E+02 -0.47720769580E+01  0.13274302825E+03  0.14020818041E+03  0.00000000000E+00 0.  1.
</event>
<event>
 7    1  0.3062760E-009  0.1230216E+03  0.7561462E-02  0.1238194E+00
         -3   -1    0    0    0  501 -0.00000000000E+00  0.00000000000E+00  0.84890992625E+02  0.84890992625E+02  0.00000000000E+00 0.  1.
          3   -1    0    0  501    0  0.00000000000E+00 -0.00000000000E+00 -0.26713865921E+03  0.26713865921E+03  0.00000000000E+00 0. -1.
         25    2    1    2    0    0  0.13823958114E+02 -0.75656346130E+02 -0.16201572771E+02  0.14773322843E+03  0.12509049242E+03 0.  0.
          5    1    3    3  502    0 -0.33734507345E+02 -0.82627768254E+02  0.14542367904E+02  0.90522471998E+02  0.41800000000E+01 0.  1.
         -5    1    3    3    0  502  0.47558465459E+02  0.69714221233E+01 -0.30743940675E+02  0.57210756432E+02  0.41800000000E+01 0.  1.
        -11    1    1    2    0    0  0.27430443666E+02  0.69323157728E+01 -0.12178843560E+02  0.30802767281E+02  0.00000000000E+00 0.  1.
         11    1    1    2    0    0 -0.41254401780E+02  0.68724030358E+02 -0.15386725026E+03  0.17349365613E+03  0.00000000000E+00 0. -1.
</event>
<event>
 7    1  0.3056346E-009  0.1136866E+03  0.7561462E-02  0.1253891E+00
          2   -1    0    0  501    0  0.00000000000E+00  0.00000000000E+00  0.77062151727E+02  0.77062151727E+02  0.00000000000E+00 0. -1.
         -2   -1    0    0    0  501 -0.00000000000E+00 -0.00000000000E+00 -0.21556009476E+03  0.21556009476E+03  0.00000000000E+00 0.  1.
         25    2    1    2    0    0 -0.46245961639E+02 -0.85265032865E+01 -0.13629371746E+03  0.19087829024E+03  0.12508858477E+03 0.  0.
          5    1    3    3  502    0 -0.66285625902E+01 -0.60616868734E+02 -0.35659516985E+02  0.70763098920E+02  0.41800000000E+01 0. -1.
         -5    1    3    3    0  502 -0.39617399049E+02  0.52090365447E+02 -0.10063420048E+03  0.12011519132E+03  0.41800000000E+01 0. -1.
        -11    1    1    2    0    0  0.72511283184E+02 -0.15882187506E+01 -0.81249657246E+01  0.72982351947E+02  0.00000000000E+00 0.  1.
         11    1    1    2    0    0 -0.26265321545E+02  0.10114722037E+02  0.59207401574E+01  0.28761604297E+02  0.00000000000E+00 0. -1.
</event>
<event>
 7    1  0.4843154E-009  0.1211862E+03  0.7561462E-02  0.1241153E+00
         -2   -1    0    0    0  501 -0.00000000000E+00  0.00000000000E+00  0.11667688320E+03  0.11667688320E+03  0.00000000000E+00 0.  1.
          2   -1    0    0  501    0  0.00000000000E+00 -0.00000000000E+00 -0.17965457140E+03  0.17965457140E+03  0.00000000000E+00 0. -1.
         25    2    1    2    0    0  0.81838905590E+01 -0.88248194501E+02  0.31053596040E+01  0.15333621799E+03  0.12509049760E+03 0.  0.
          5    1    3    3  502    0 -0.48819476500E+02 -0.82162316810E+02 -0.14735732170E+01  0.95674612136E+02  0.41800000000E+01 0. -1.
         -5    1    3    3    0  502  0.57003367059E+02 -0.60858776913E+01  0.45789328210E+01  0.57661605849E+02  0.41800000000E+01 0. -1.
        -11    1    1    2    0    0 -0.76295434008E+01  0.29243955077E+02  0.21712133349E+02  0.37213378987E+02  0.00000000000E+00 0.  1.
         11    1    1    2    0    0 -0.55434715815E+00  0.59004239424E+02 -0.87795181145E+02  0.10578185763E+03  0.00000000000E+00 0. -1.
</event>
<event>
 7    1  0.3056346E-009  0.1284573E+03  0.7561462E-02  0.1229763E+00
          1   -1    0    0  501    0  0.00000000000E+00  0.00000000000E+00  0.71416467107E+03  0.71416467107E+03  0.00000000000E+00 0. -1.
         -1   -1    0    0    0  501 -0.00000000000E+00 -0.00000000000E+00 -0.27836952472E+02  0.27836952472E+02  0.00000000000E+00 0.  1.
         25    2    1    2    0    0  0.93221507259E+01 -0.82208399531E+02  0.28267998445E+03  0.32000131141E+03  0.12509093592E+03 0.  0.
          5    1    3    3  502    0 -0.33351873660E+02  0.17508710514E+02  0.10677813963E+03  0.11330465976E+03  0.41800000000E+01 0. -1.
         -5    1    3    3    0  502  0.42674024386E+02 -0.99717110045E+02  0.17590184482E+03  0.20669665166E+03  0.41800000000E+01 0. -1.
        -11    1    1    2    0    0  0.31293148185E+02  0.48347278410E+02  0.30177548712E+03  0.30722168719E+03  0.00000000000E+00 0. -1.
         11    1    1    2    0    0 -0.40615298911E+02  0.33861121121E+02  0.10187224703E+03  0.11477862495E+03  0.00000000000E+00 0.  1.
</event>
<event>
 7    1  0.3056346E-009  0.1267409E+03  0.7561462E-02  0.1232373E+00
         -2   -1    0    0    0  501 -0.00000000000E+00  0.00000000000E+00  0.16537463600E+03  0.16537463600E+03  0.00000000000E+00 0.  1.
          2   -1    0    0  501    0  0.00000000000E+00 -0.00000000000E+00 -0.10353894504E+03  0.10353894504E+03  0.00000000000E+00 0. -1.
         25    2    1    2    0    0  0.24635671249E+02  0.69363199787E+02  0.14333705057E+02  0.14585710645E+03  0.12510264034E+03 0.  0.
          5    1    3    3  502    0  0.74510809345E+02  0.42880609871E+02  0.21678439991E+02  0.88758292980E+02  0.41800000000E+01 0.  1.
         -5    1    3    3    0  502 -0.49875138096E+02  0.26482589916E+02 -0.73447349339E+01  0.57098813473E+02  0.41800000000E+01 0.  1.
        -11    1    1    2    0    0 -0.49568004777E+02 -0.16335321825E+02  0.35837584903E+02  0.63310049189E+02  0.00000000000E+00 0.  1.
         11    1    1    2    0    0  0.24932333528E+02 -0.53027877962E+02  0.11664401002E+02  0.59746425392E+02  0.00000000000E+00 0. -1.
</event>
<event>
 7    1  0.3056346E-009  0.1520209E+03  0.7561462E-02  0.1198012E+00
          2   -1    0    0  501    0  0.00000000000E+00  0.00000000000E+00  0.45605043685E+02  0.45605043685E+02  0.00000000000E+00 0. -1.
         -2   -1    0    0    0  501 -0.00000000000E+00 -0.00000000000E+00 -0.85124648836E+03  0.85124648836E+03  0.00000000000E+00 0.  1.
         25    2    1    2    0    0 -0.12105002682E+03 -0.68058003308E+02 -0.22372393665E+03  0.29152178436E+03  0.12509016795E+03 0.  0.
          5    1    3    3  502    0  0.10047759238E+01 -0.21171253496E+01  0.14800131707E+02  0.15556609301E+02  0.41800000000E+01 0.  1.
         -5    1    3    3    0  502 -0.12205480274E+03 -0.65940877959E+02 -0.23852406836E+03  0.27596517506E+03  0.41800000000E+01 0.  1.
        -11    1    1    2    0    0  0.92060770411E+02  0.63492575545E+01 -0.41275604504E+03  0.42294568355E+03  0.00000000000E+00 0.  1.
         11    1    1    2    0    0  0.28989256410E+02  0.61708745754E+02 -0.16916146299E+03  0.18238406413E+03  0.00000000000E+00 0. -1.
</event>
<event>
 7    1  0.3056346E-009  0.7058292E+02  0.7561462E-02  0.1358122E+00
         -1   -1    0    0    0  501 -0.00000000000E+00  0.00000000000E+00  0.28195396383E+03  0.28195396383E+03  0.00000000000E+00 0.  1.
          1   -1    0    0  501    0  0.00000000000E+00 -0.00000000000E+00 -0.58303490373E+02  0.58303490373E+02  0.00000000000E+00 0. -1.
         25    2    1    2    0    0 -0.47676323670E+02 -0.21598553805E+02  0.18414337624E+03  0.22868326524E+03  0.12509086066E+03 0.  0.
          5    1    3    3  502    0 -0.60494024484E+02 -0.26391411532E+02  0.19800765554E+03  0.20875952111E+03  0.41800000000E+01 0. -1.
         -5    1    3    3    0  502  0.12817700813E+02  0.47928577266E+01 -0.13864279303E+02  0.19923744124E+02  0.41800000000E+01 0. -1.
        -11    1    1    2    0    0  0.24695860496E+02 -0.53905846823E+01 -0.26518008735E+02  0.36635347906E+02  0.00000000000E+00 0.  1.
         11    1    1    2    0    0  0.22980463174E+02  0.26989138487E+02  0.66025105952E+02  0.74938841064E+02  0.00000000000E+00 0. -1.
</event>
<event>
 7    1  0.3056346E-009  0.1407468E+03  0.7561462E-02  0.1212328E+00
          1   -1    0    0  501    0  0.00000000000E+00  0.00000000000E+00  0.59489030672E+03  0.59489030672E+03  0.00000000000E+00 0. -1.
         -1   -1    0    0    0  501 -0.00000000000E+00 -0.00000000000E+00 -0.46480133649E+02  0.46480133649E+02  0.00000000000E+00 0.  1.
         25    2    1    2    0    0  0.17448168892E+02  0.11332144994E+03  0.18705201472E+03  0.25255244550E+03  0.12509233350E+03 0.  0.
          5    1    3    3  502    0 -0.37716312342E+02  0.95471411922E+02  0.78061636630E+02  0.12902868760E+03  0.41800000000E+01 0.  1.
         -5    1    3    3    0  502  0.55164481234E+02  0.17850038020E+02  0.10899037809E+03  0.12352375789E+03  0.41800000000E+01 0.  1.
        -11    1    1    2    0    0 -0.25877385183E+02 -0.46001433360E+02  0.59973045462E+02  0.79890782429E+02  0.00000000000E+00 0.  1.
         11    1    1    2    0    0  0.84292162907E+01 -0.67320016583E+02  0.30138511289E+03  0.30892721245E+03  0.00000000000E+00 0. -1.
</event>
<event>
 7    1  0.3056346E-009  0.1061874E+03  0.7561462E-02  0.1267798E+00
         -2   -1    0    0    0  501 -0.00000000000E+00  0.00000000000E+00  0.11912455532E+02  0.11912455532E+02  0.00000000000E+00 0. -1.
          2   -1    0    0  501    0  0.00000000000E+00 -0.00000000000E+00 -0.25384059027E+04  0.25384059027E+04  0.00000000000E+00 0.  1.
         25    2    1    2    0    0  0.82140671742E+01  0.15420240453E+02 -0.23081463737E+04  0.23115997520E+04  0.12509387016E+03 0.  0.
          5    1    3    3  502    0 -0.53009882168E+02  0.14814482482E+02 -0.65753206455E+03  0.65984498544E+03  0.41800000000E+01 0.  1.
         -5    1    3    3    0  502  0.61223949342E+02  0.60575797098E+00 -0.16506143091E+04  0.16517547666E+04  0.41800000000E+01 0.  1.
        -11    1    1    2    0    0  0.33201295099E+02  0.22130947064E+02 -0.10523137260E+03  0.11254219916E+03  0.00000000000E+00 0.  1.
         11    1    1    2    0    0 -0.41415362273E+02 -0.37551187517E+02 -0.11311570093E+03  0.12617640712E+03  0.00000000000E+00 0. -1.
</event>
<event>
 7    1  0.3056346E-009  0.1004874E+03  0.7561462E-02  0.1279274E+00
         -2   -1    0    0    0  501 -0.00000000000E+00  0.00000000000E+00  0.41444933193E+02  0.41444933193E+02  0.00000000000E+00 0. -1.
          2   -1    0    0  501    0  0.00000000000E+00 -0.00000000000E+00 -0.48639880876E+03  0.48639880876E+03  0.00000000000E+00 0.  1.
         25    2    1    2    0    0 -0.81507954496E+02 -0.15323454567E+02 -0.31012179110E+03  0.34453058776E+03  0.12508975049E+03 0.  0.
          5    1    3    3  502    0 -0.11844329127E+02  0.13037262000E+02 -0.24288062187E+03  0.24355436192E+03  0.41800000000E+01 0. -1.
         -5    1    3    3    0  502 -0.69663625369E+02 -0.28360716567E+02 -0.67241169238E+02  0.10097622584E+03  0.41800000000E+01 0. -1.
        -11    1    1    2    0    0  0.86078665554E+02  0.30784284562E+02 -0.13926805453E+03  0.16659171604E+03  0.00000000000E+00 0.  1.
         11    1    1    2    0    0 -0.45707110577E+01 -0.15460829995E+02  0.44359700657E+01  0.16721438160E+02  0.00000000000E+00 0. -1.
</event>
<event>
 7    1  0.3056346E-009  0.1161159E+03  0.7561462E-02  0.1249646E+00
          1   -1    0    0  501    0  0.00000000000E+00  0.00000000000E+00  0.99935556172E+02  0.99935556172E+02  0.00000000000E+00 0. -1.
         -1   -1    0    0    0  501 -0.00000000000E+00 -0.00000000000E+00 -0.16500602551E+03  0.16500602551E+03  0.00000000000E+00 0.  1.
         25    2    1    2    0    0  0.49828779225E+02  0.55512200253E+02 -0.44801534959E+02  0.15238077875E+03  0.12509281587E+03 0.  0.
          5    1    3    3  502    0  0.28679207253E+02 -0.36722684821E+02  0.18010622570E+01  0.46816329784E+02  0.41800000000E+01 0.  1.
         -5    1    3    3    0  502  0.21149571972E+02  0.92234885074E+02 -0.46602597216E+02  0.10556444897E+03  0.41800000000E+01 0.  1.
        -11    1    1    2    0    0 -0.44357611525E+02 -0.10760143207E+02  0.22081012880E+02  0.50704531472E+02  0.00000000000E+00 0.  1.
         11    1    1    2    0    0 -0.54711676998E+01 -0.44752057046E+02 -0.42349947263E+02  0.61856271461E+02  0.00000000000E+00 0. -1.
</event>
<event>
 7    1  0.3056346E-009  0.1049205E+03  0.7561462E-02  0.1270276E+00
          1   -1    0    0  501    0  0.00000000000E+00  0.00000000000E+00  0.17948325521E+03  0.17948325521E+03  0.00000000000E+00 0.  1.
         -1   -1    0    0    0  501 -0.00000000000E+00 -0.00000000000E+00 -0.83441510563E+02  0.83441510563E+02  0.00000000000E+00 0. -1.
         25    2    1    2    0    0 -0.23967228623E+02 -0.11376252097E+02  0.10939251160E+03  0.16828255051E+03  0.12509375705E+03 0.  0.
          5    1    3    3  502    0  0.42427640397E+02 -0.25815885449E+02  0.79728496926E+02  0.94024838385E+02  0.41800000000E+01 0.  1.
         -5    1    3    3    0  502 -0.66394869020E+02  0.14439633352E+02  0.29664014670E+02  0.74257712124E+02  0.41800000000E+01 0.  1.
        -11    1    1    2    0    0  0.55347533690E+02  0.20852990072E+02 -0.17303420121E+02  0.61624711183E+02  0.00000000000E+00 0.  1.
         11    1    1    2    0    0 -0.31380305067E+02 -0.94767379750E+01  0.39526531726E+01  0.33017504083E+02  0.00000000000E+00 0. -1.
</event>
<event>
 7    1  0.3056346E-009  0.1257339E+03  0.7561462E-02  0.1233927E+00
          2   -1    0    0  501    0  0.00000000000E+00  0.00000000000E+00  0.35838970985E+03  0.35838970985E+03  0.00000000000E+00 0. -1.
         -2   -1    0    0    0  501 -0.00000000000E+00 -0.00000000000E+00 -0.47309671428E+02  0.47309671428E+02  0.00000000000E+00 0.  1.
         25    2    1    2    0    0  0.42579607124E+02 -0.52959470205E+02  0.13437420612E+03  0.19576240209E+03  0.12509501338E+03 0.  0.
          5    1    3    3  502    0  0.96167980724E+01 -0.88785324717E+02  0.63424577804E+02  0.10961508181E+03  0.41800000000E+01 0.  1.
         -5    1    3    3    0  502  0.32962809051E+02  0.35825854512E+02  0.70949628321E+02  0.86147320278E+02  0.41800000000E+01 0.  1.
        -11    1    1    2    0    0 -0.38348533343E+02 -0.17827570244E+02  0.71266012173E+02  0.82869033790E+02  0.00000000000E+00 0.  1.
         11    1    1    2    0    0 -0.42310737811E+01  0.70787040449E+02  0.10543982013E+03  0.12706794540E+03  0.00000000000E+00 0. -1.
</event>
<event>
 7    1  0.3056346E-009  0.9175108E+02  0.7561462E-02  0.1298666E+00
         -1   -1    0    0    0  501 -0.00000000000E+00  0.00000000000E+00  0.37869608233E+02  0.37869608233E+02  0.00000000000E+00 0.  1.
          1   -1    0    0  501    0  0.00000000000E+00 -0.00000000000E+00 -0.36991794739E+03  0.36991794739E+03  0.00000000000E+00 0. -1.
         25    2    1    2    0    0  0.39222053623E+02 -0.24119654462E+02 -0.16570182911E+03  0.21265878580E+03  0.12508611347E+03 0.  0.
          5    1    3    3  502    0  0.45668071085E+02  0.96761383262E+01 -0.17126036693E+03  0.17755783860E+03  0.41800000000E+01 0. -1.
         -5    1    3    3    0  502 -0.64460174618E+01 -0.33795792788E+02  0.55585378151E+01  0.35100947194E+02  0.41800000000E+01 0. -1.
        -11    1    1    2    0    0 -0.11215729730E+01 -0.33161391208E+02 -0.52118380999E+02  0.61783990084E+02  0.00000000000E+00 0. -1.
         11    1    1    2    0    0 -0.38100480650E+02  0.57281045669E+02 -0.11422812904E+03  0.13334477974E+03  0.00000000000E+00 0.  1.
</event>
<event>
 7    1  0.3056346E-009  0.1755767E+03  0.7561462E-02  0.1172154E+00
         -4   -1    0    0    0  501 -0.00000000000E+00  0.00000000000E+00  0.62011712388E+02  0.62011712388E+02  0.00000000000E+00 0.  1.
          4   -1    0    0  501    0  0.00000000000E+00 -0.00000000000E+00 -0.53669655791E+03  0.53669655791E+03  0.00000000000E+00 0. -1.
         25    2    1    2    0    0 -0.14157265040E+03  0.30493176506E+02 -0.21101910529E+03  0.28486623279E+03  0.12508820342E+03 0.  0.
          5    1    3    3  502    0  0.75785213328E+01  0.37040158739E+02 -0.68889845267E+02  0.78693649845E+02  0.41800000000E+01 0. -1.
         -5    1    3    3    0  502 -0.14915117174E+03 -0.65469822333E+01 -0.14212926002E+03  0.20617258295E+03  0.41800000000E+01 0. -1.
        -11    1    1    2    0    0  0.30244879455E+02 -0.42092517296E+02 -0.46980660157E+02  0.69955093984E+02  0.00000000000E+00 0.  1.
         11    1    1    2    0    0  0.11132777095E+03  0.11599340790E+02 -0.21668508008E+03  0.24388694352E+03  0.00000000000E+00 0. -1.
</event>
<event>
 7    1  0.3056346E-009  0.7126444E+02  0.7561462E-02  0.1355845E+00
          2   -1    0    0  501    0  0.00000000000E+00  0.00000000000E+00  0.64014342537E+02  0.64014342537E+02  0.00000000000E+00 0. -1.
         -2   -1    0    0    0  501 -0.00000000000E+00 -0.00000000000E+00 -0.20832730247E+03  0.20832730247E+03  0.00000000000E+00 0.  1.
         25    2    1    2    0    0 -0.29033712621E+02  0.12536709980E+02 -0.55749873181E+02  0.14055476427E+03  0.12508983905E+03 0.  0.
          5    1    3    3  502    0 -0.49893464887E+02  0.32200615789E+02  0.17281904410E+02  0.61986886643E+02  0.41800000000E+01 0. -1.
         -5    1    3    3    0  502  0.20859752266E+02 -0.19663905809E+02 -0.73031777591E+02  0.78567877624E+02  0.41800000000E+01 0. -1.
        -11    1    1    2    0    0  0.18760647704E+02  0.15394999203E+02 -0.97688812959E+02  0.10065819430E+03  0.00000000000E+00 0.  1.
         11    1    1    2    0    0  0.10273064917E+02 -0.27931709183E+02  0.91257262064E+01  0.31128686439E+02  0.00000000000E+00 0. -1.
</event>
<event>
 7    1  0.3056346E-009  0.2283488E+03  0.7561462E-02  0.1127807E+00
          2   -1    0    0  501    0  0.00000000000E+00  0.00000000000E+00  0.11409644219E+04  0.11409644219E+04  0.00000000000E+00 0. -1.
         -2   -1    0    0    0  501 -0.00000000000E+00 -0.00000000000E+00 -0.63143505603E+02  0.63143505603E+02  0.00000000000E+00 0.  1.
         25    2    1    2    0    0  0.16164102823E+02  0.22578968442E+03  0.32032468600E+03  0.41170119695E+03  0.12509081221E+03 0.  0.
          5    1    3    3  502    0  0.60579695843E+01  0.16226975810E+03  0.12195337620E+03  0.20312132275E+03  0.41800000000E+01 0. -1.
         -5    1    3    3    0  502  0.10106133239E+02  0.63519926313E+02  0.19837130980E+03  0.20857987420E+03  0.41800000000E+01 0. -1.
        -11    1    1    2    0    0  0.13301436533E+02 -0.67693326097E+02  0.17467150005E+03  0.18780161752E+03  0.00000000000E+00 0.  1.
         11    1    1    2    0    0 -0.29465539356E+02 -0.15809635832E+03  0.58282473024E+03  0.60460511303E+03  0.00000000000E+00 0. -1.
</event>
<event>
 7    1  0.3056346E-009  0.9508825E+02  0.7561462E-02  0.1290977E+00
          2   -1    0    0  501    0  0.00000000000E+00  0.00000000000E+00  0.17069536378E+03  0.17069536378E+03  0.00000000000E+00 0. -1.
         -2   -1    0    0    0  501 -0.00000000000E+00 -0.00000000000E+00 -0.11097805331E+03  0.11097805331E+03  0.00000000000E+00 0.  1.
         25    2    1    2    0    0  0.33603444691E+02 -0.31541728389E+02 -0.46436322410E+02  0.14116474119E+03  0.12508828878E+03 0.  0.
          5    1    3    3  502    0 -0.25994111165E+02 -0.30209385412E+02 -0.66913565537E+02  0.77994861594E+02  0.41800000000E+01 0. -1.
         -5    1    3    3    0  502  0.59597555856E+02 -0.13323429766E+01  0.20477243126E+02  0.63169879594E+02  0.41800000000E+01 0. -1.
        -11    1    1    2    0    0  0.68179098696E+01 -0.22129318205E+02  0.39992994773E+02  0.46212879700E+02  0.00000000000E+00 0.  1.
         11    1    1    2    0    0 -0.40421354560E+02  0.53671046594E+02  0.66160638110E+02  0.94295796205E+02  0.00000000000E+00 0. -1.
</event>
<event>
 7    1  0.3056346E-009  0.3092363E+03  0.7561462E-02  0.1080712E+00
         -2   -1    0    0    0  501 -0.00000000000E+00  0.00000000000E+00  0.58229944709E+02  0.58229944709E+02  0.00000000000E+00 0.  1.
          2   -1    0    0  501    0  0.00000000000E+00 -0.00000000000E+00 -0.16695137000E+04  0.16695137000E+04  0.00000000000E+00 0. -1.
         25    2    1    2    0    0 -0.18652669710E+02 -0.29161026613E+03 -0.83083328261E+03  0.88955929559E+03  0.12508927804E+03 0.  0.
          5    1    3    3  502    0 -0.40860657677E+02 -0.20734629232E+02 -0.12445336613E+03  0.13268621231E+03  0.41800000000E+01 0.  1.
         -5    1    3    3    0  502  0.22207987966E+02 -0.27087563689E+03 -0.70637991648E+03  0.75687308328E+03  0.41800000000E+01 0.  1.
        -11    1    1    2    0    0  0.45851738859E+02  0.17533635355E+03 -0.39353506679E+03  0.43326096942E+03  0.00000000000E+00 0.  1.
         11    1    1    2    0    0 -0.27199069149E+02  0.11627391258E+03 -0.38691540589E+03  0.40492337969E+03  0.00000000000E+00 0. -1.
</event>
<event>
 7    1  0.3056346E-009  0.1289796E+03  0.7561462E-02  0.1228978E+00
         -1   -1    0    0    0  501 -0.00000000000E+00  0.00000000000E+00  0.12618276864E+03  0.12618276864E+03  0.00000000000E+00 0.  1.
          1   -1    0    0  501    0  0.00000000000E+00 -0.00000000000E+00 -0.18982255865E+03  0.18982255865E+03  0.00000000000E+00 0. -1.
         25    2    1    2    0    0  0.75223786191E+02  0.80690607904E+02 -0.48104657098E+02  0.17356882481E+03  0.12506992724E+03 0.  0.
          5    1    3    3  502    0  0.66980068850E+02  0.83370975432E+02 -0.84222481704E+02  0.13619085135E+03  0.41800000000E+01 0.  1.
         -5    1    3    3    0  502  0.82437173411E+01 -0.26803675276E+01  0.36117824607E+02  0.37377973460E+02  0.41800000000E+01 0.  1.
        -11    1    1    2    0    0 -0.13709393122E+02 -0.78571844294E+02 -0.43487165149E+01  0.79877365447E+02  0.00000000000E+00 0.  1.
         11    1    1    2    0    0 -0.61514393070E+02 -0.21187636106E+01 -0.11186416395E+02  0.62559137028E+02  0.00000000000E+00 0. -1.
</event>
<event>
 7    1  0.3056346E-009  0.1891947E+03  0.7561462E-02  0.1159190E+00
          2   -1    0    0  501    0  0.00000000000E+00  0.00000000000E+00  0.43108304272E+03  0.43108304272E+03  0.00000000000E+00 0.  1.
         -2   -1    0    0    0  501 -0.00000000000E+00 -0.00000000000E+00 -0.93187906966E+02  0.93187906966E+02  0.00000000000E+00 0. -1.
         25    2    1    2    0    0  0.76824687173E+01  0.16747989834E+03  0.18720147437E+03  0.28071196985E+03  0.12508509639E+03 0.  0.
          5    1    3    3  502    0  0.54404909789E+02  0.14548963103E+03  0.15626264257E+03  0.22036926467E+03  0.41800000000E+01 0. -1.
         -5    1    3    3    0  502 -0.46722441071E+02  0.21990267307E+02  0.30938831798E+02  0.60342705184E+02  0.41800000000E+01 0. -1.
        -11    1    1    2    0    0 -0.21001769588E+02 -0.80112172610E+02  0.12775907226E+03  0.15225444187E+03  0.00000000000E+00 0.  1.
         11    1    1    2    0    0  0.13319300871E+02 -0.87367725729E+02  0.22934589135E+02  0.91304537968E+02  0.00000000000E+00 0. -1.
</event>
<event>
 7    1  0.3056346E-009  0.6196349E+02  0.7561462E-02  0.1389772E+00
          1   -1    0    0  501    0  0.00000000000E+00  0.00000000000E+00  0.17438822705E+03  0.17438822705E+03  0.00000000000E+00 0. -1.
         -1   -1    0    0    0  501 -0.00000000000E+00 -0.00000000000E+00 -0.69293245250E+02  0.69293245250E+02  0.00000000000E+00 0.  1.
         25    2    1    2    0    0 -0.11681337110E+02 -0.11352601528E+02  0.45036669942E+02  0.13393951387E+03  0.12508459752E+03 0.  0.
          5    1    3    3  502    0 -0.26531890405E+02 -0.13706948074E+01  0.85429885838E+02  0.89563149827E+02  0.41800000000E+01 0. -1.
         -5    1    3    3    0  502  0.14850553294E+02 -0.99819067204E+01 -0.40393215896E+02  0.44376364039E+02  0.41800000000E+01 0. -1.
        -11    1    1    2    0    0  0.13446816678E+02  0.43976296263E+02  0.61790484348E+02  0.77024641951E+02  0.00000000000E+00 0. -1.
         11    1    1    2    0    0 -0.17654795673E+01 -0.32623694735E+02 -0.17321724896E+01  0.32717316483E+02  0.00000000000E+00 0.  1.
</event>
<event>
 7    1  0.3056346E-009  0.1119024E+03  0.7561462E-02  0.1257087E+00
         -2   -1    0    0    0  501 -0.00000000000E+00  0.00000000000E+00  0.97122630236E+02  0.97122630236E+02  0.00000000000E+00 0.  1.
          2   -1    0    0  501    0  0.00000000000E+00 -0.00000000000E+00 -0.14952096377E+03  0.14952096377E+03  0.00000000000E+00 0. -1.
         25    2    1    2    0    0  0.25462936341E+02 -0.17434752240E+02 -0.72776226890E+02  0.14796647297E+03  0.12508143831E+03 0.  0.
          5    1    3    3  502    0 -0.12755608736E+02  0.49489883054E+02 -0.34598286015E+02  0.61858450305E+02  0.41800000000E+01 0. -1.
         -5    1    3    3    0  502  0.38218545077E+02 -0.66924635294E+02 -0.38177940875E+02  0.86108022661E+02  0.41800000000E+01 0. -1.
        -11    1    1    2    0    0  0.26055325073E+02  0.32513525112E+02  0.12265821504E+01  0.41683495338E+02  0.00000000000E+00 0.  1.
         11    1    1    2    0    0 -0.51518261413E+02 -0.15078772872E+02  0.19151311201E+02  0.56993625706E+02  0.00000000000E+00 0. -1.
</event>
<event>
 7    1  0.3056346E-009  0.1417691E+03  0.7561462E-02  0.1210968E+00
         -1   -1    0    0    0  501 -0.00000000000E+00  0.00000000000E+00  0.17310935641E+02  0.17310935641E+02  0.00000000000E+00 0.  1.
          1   -1    0    0  501    0  0.00000000000E+00 -0.00000000000E+00 -0.15025345679E+04  0.15025345679E+04  0.00000000000E+00 0. -1.
         25    2    1    2    0    0 -0.97873150843E+02 -0.96588880824E+01 -0.10969246889E+04  0.11084056823E+04  0.12508771231E+03 0.  0.
          5    1    3    3  502    0  0.20469646283E+02  0.16148460002E+02 -0.41166829416E+03  0.41251428581E+03  0.41800000000E+01 0.  1.
         -5    1    3    3    0  502 -0.11834279713E+03 -0.25807348084E+02 -0.68525639472E+03  0.69589139652E+03  0.41800000000E+01 0.  1.
        -11    1    1    2    0    0 -0.65183364147E+01 -0.25082604522E+02 -0.80491762057E+02  0.84560921934E+02  0.00000000000E+00 0. -1.
         11    1    1    2    0    0  0.10439148726E+03  0.34741492604E+02 -0.30780718134E+03  0.32687889929E+03  0.00000000000E+00 0.  1.
</event>
<event>
 7    1  0.3056346E-009  0.1447716E+03  0.7561462E-02  0.1207049E+00
         -1   -1    0    0    0  501 -0.00000000000E+00  0.00000000000E+00  0.25737007714E+03  0.25737007714E+03  0.00000000000E+00 0.  1.
          1   -1    0    0  501    0  0.00000000000E+00 -0.00000000000E+00 -0.12656691494E+03  0.12656691494E+03  0.00000000000E+00 0. -1.
         25    2    1    2    0    0 -0.20982564779E+02  0.11828234168E+03  0.15245526341E+03  0.23091434657E+03  0.12509135755E+03 0.  0.
          5    1    3    3  502    0 -0.16400069393E+02  0.12710081861E+03  0.66793358269E+02  0.14457664223E+03  0.41800000000E+01 0. -1.
         -5    1    3    3    0  502 -0.45824953856E+01 -0.88184769366E+01  0.85661905141E+02  0.86337704346E+02  0.41800000000E+01 0. -1.
        -11    1    1    2    0    0 -0.79705000413E+01 -0.12117964597E+03 -0.24144651011E+02  0.12381841398E+03  0.00000000000E+00 0.  1.
         11    1    1    2    0    0  0.28953064820E+02  0.28973042956E+01  0.24925497966E+01  0.29204231528E+02  0.00000000000E+00 0. -1.
</event>
<event>
 7    1  0.3732821E-009  0.1735003E+03  0.7561462E-02  0.1174246E+00
          2   -1    0    0  501    0  0.00000000000E+00  0.00000000000E+00  0.15769307438E+04  0.15769307438E+04  0.00000000000E+00 0. -1.
         -2   -1    0    0    0  501 -0.00000000000E+00 -0.00000000000E+00 -0.19912981657E+02  0.19912981657E+02  0.00000000000E+00 0.  1.
         25    2    1    2    0    0  0.82616974913E+02  0.11250198235E+03  0.77867232022E+03  0.80091322069E+03  0.12509653957E+03 0.  0.
          5    1    3    3  502    0  0.17954283818E+02 -0.23845744092E+02  0.22574678283E+03  0.22774999051E+03  0.41800000000E+01 0.  1.
         -5    1    3    3    0  502  0.64662691095E+02  0.13634772644E+03  0.55292553739E+03  0.57316323017E+03  0.41800000000E+01 0.  1.
        -11    1    1    2    0    0 -0.19344323448E+02 -0.99423897118E+02  0.44506648661E+03  0.45644659235E+03  0.00000000000E+00 0.  1.
         11    1    1    2    0    0 -0.63272651465E+02 -0.13078085234E+02  0.33327895530E+03  0.33948391240E+03  0.00000000000E+00 0. -1.
</event>
<event>
 7    1  0.3056346E-009  0.9169969E+02  0.7561462E-02  0.1298787E+00
         -2   -1    0    0    0  501 -0.00000000000E+00  0.00000000000E+00  0.11034586115E+03  0.11034586115E+03  0.00000000000E+00 0.  1.
          2   -1    0    0  501    0  0.00000000000E+00 -0.00000000000E+00 -0.11573589749E+03  0.11573589749E+03  0.00000000000E+00 0. -1.
         25    2    1    2    0    0 -0.24586997684E+01 -0.53520191799E+01 -0.35728766928E+02  0.13022964241E+03  0.12509406725E+03 0.  0.
          5    1    3    3  502    0 -0.41270640635E+02 -0.36175111125E+02 -0.54129231098E+02  0.77196829614E+02  0.41800000000E+01 0. -1.
         -5    1    3    3    0  502  0.38811940867E+02  0.30823091945E+02  0.18400464170E+02  0.53032812791E+02  0.41800000000E+01 0. -1.
        -11    1    1    2    0    0 -0.23479990869E+02  0.33135728779E+02  0.39608234374E+02  0.56728288562E+02  0.00000000000E+00 0.  1.
         11    1    1    2    0    0  0.25938690637E+02 -0.27783709599E+02 -0.92695037869E+01  0.39123827670E+02  0.00000000000E+00 0. -1.
</event>
<event>
 7    1  0.3487753E-009  0.9839315E+02  0.7561462E-02  0.1283712E+00
         -2   -1    0    0    0  501 -0.00000000000E+00  0.00000000000E+00  0.16829060614E+03  0.16829060614E+03  0.00000000000E+00 0.  1.
          2   -1    0    0  501    0  0.00000000000E+00 -0.00000000000E+00 -0.11316063128E+03  0.11316063128E+03  0.00000000000E+00 0. -1.
         25    2    1    2    0    0  0.17767243697E+02  0.15512149234E+02  0.11315457046E+03  0.17031553677E+03  0.12508846280E+03 0.  0.
          5    1    3    3  502    0 -0.44127838905E+02  0.40679259200E+02  0.58129273151E+02  0.83657355281E+02  0.41800000000E+01 0.  1.
         -5    1    3    3    0  502  0.61895082603E+02 -0.25167109966E+02  0.55025297309E+02  0.86658181486E+02  0.41800000000E+01 0.  1.
        -11    1    1    2    0    0  0.26971166196E+00  0.25172212504E+02  0.12217840334E+02  0.27981934335E+02  0.00000000000E+00 0.  1.
         11    1    1    2    0    0 -0.18036955359E+02 -0.40684361737E+02 -0.70242435932E+02  0.83153766327E+02  0.00000000000E+00 0. -1.
</event>
<event>
 7    1  0.3056346E-009  0.2394451E+03  0.7561462E-02  0.1120163E+00
         -2   -1    0    0    0  501 -0.00000000000E+00  0.00000000000E+00  0.62415599587E+02  0.62415599587E+02  0.00000000000E+00 0.  1.
          2   -1    0    0  501    0  0.00000000000E+00 -0.00000000000E+00 -0.11104975501E+04  0.11104975501E+04  0.00000000000E+00 0. -1.
         25    2    1    2    0    0  0.59972207527E+02  0.23033130687E+03 -0.59430065460E+03  0.65229523904E+03  0.12508650694E+03 0.  0.
          5    1    3    3  502    0  0.25067680969E+02  0.13397649526E+03 -0.47873746344E+03  0.49778019367E+03  0.41800000000E+01 0. -1.
         -5    1    3    3    0  502  0.34904526559E+02  0.96354811610E+02 -0.11556319116E+03  0.15451504537E+03  0.41800000000E+01 0. -1.
        -11    1    1    2    0    0 -0.15704056390E+02 -0.12083340325E+03 -0.14142067028E+03  0.18667387259E+03  0.00000000000E+00 0.  1.
         11    1    1    2    0    0 -0.44268151137E+02 -0.10949790363E+03 -0.31236062566E+03  0.33394403807E+03  0.00000000000E+00 0. -1.
</event>
<event>
 7    1  0.3056346E-009  0.8617835E+02  0.7561462E-02  0.1312379E+00
         -1   -1    0    0    0  501 -0.00000000000E+00  0.00000000000E+00  0.42603722005E+02  0.42603722005E+02  0.00000000000E+00 0.  1.
          1   -1    0    0  501    0  0.00000000000E+00 -0.00000000000E+00 -0.46554770345E+03  0.46554770345E+03  0.00000000000E+00 0. -1.
         25    2    1    2    0    0 -0.13815023983E+02  0.54155913772E+02 -0.10289452769E+03  0.17134327289E+03  0.12509002939E+03 0.  0.
          5    1    3    3  502    0  0.94626404204E+01  0.42315721590E+02 -0.12779633574E+03  0.13501680520E+03  0.41800000000E+01 0. -1.
         -5    1    3    3    0  502 -0.23277664404E+02  0.11840192182E+02  0.24901808051E+02  0.36326467695E+02  0.41800000000E+01 0. -1.
        -11    1    1    2    0    0  0.42888124596E+02 -0.23648147962E+01 -0.98957684172E+02  0.10787774023E+03  0.00000000000E+00 0.  1.
         11    1    1    2    0    0 -0.29073100613E+02 -0.51791098976E+02 -0.22109176958E+03  0.22893041233E+03  0.00000000000E+00 0. -1.
</event>
<event>
 7    1  0.3056346E-009  0.1143118E+03  0.7561462E-02  0.1252787E+00
         -2   -1    0    0    0  501 -0.00000000000E+00  0.00000000000E+00  0.46759005352E+02  0.46759005352E+02  0.00000000000E+00 0. -1.
          2   -1    0    0  501    0  0.00000000000E+00 -0.00000000000E+00 -0.41967540985E+03  0.41967540985E+03  0.00000000000E+00 0.  1.
         25    2    1    2    0    0  0.66915842694E+02 -0.38693165157E+02 -0.29861840074E+03  0.33286012373E+03  0.12509205280E+03 0.  0.
          5    1    3    3  502    0  0.24937651153E+02 -0.80801250797E+02 -0.20599705952E+03  0.22271728605E+03  0.41800000000E+01 0. -1.
         -5    1    3    3    0  502  0.41978191541E+02  0.42108085640E+02 -0.92621341222E+02  0.11014283768E+03  0.41800000000E+01 0. -1.
        -11    1    1    2    0    0 -0.42304635766E+02  0.41890400883E+02 -0.47430090519E+01  0.59724233174E+02  0.00000000000E+00 0. -1.
         11    1    1    2    0    0 -0.24611206929E+02 -0.31972357259E+01 -0.69554994704E+02  0.73850058301E+02  0.00000000000E+00 0.  1.
</event>
<event>
 7    1  0.3056346E-009  0.1468802E+03  0.7561462E-02  0.1204360E+00
          1   -1    0    0  501    0  0.00000000000E+00  0.00000000000E+00  0.17079114488E+04  0.17079114488E+04  0.00000000000E+00 0. -1.
         -1   -1    0    0    0  501 -0.00000000000E+00 -0.00000000000E+00 -0.17182064975E+02  0.17182064975E+02  0.00000000000E+00 0.  1.
         25    2    1    2    0    0  0.11099434763E+03 -0.48771293906E+02  0.11812522855E+04  0.11940279283E+04  0.12508935689E+03 0.  0.
          5    1    3    3  502    0  0.70074368175E+02  0.14312881480E+02  0.90066241079E+03  0.90350734710E+03  0.41800000000E+01 0.  1.
         -5    1    3    3    0  502  0.40919979453E+02 -0.63084175387E+02  0.28058987473E+03  0.29052058120E+03  0.41800000000E+01 0.  1.
        -11    1    1    2    0    0 -0.28120168037E+02  0.56966713261E+02  0.27487533234E+03  0.28212124805E+03  0.00000000000E+00 0.  1.
         11    1    1    2    0    0 -0.82874179591E+02 -0.81954193550E+01  0.23460176595E+03  0.24894433741E+03  0.00000000000E+00 0. -1.
</event>
<event>
 7    1  0.3056346E-009  0.1990161E+03  0.7561462E-02  0.1150572E+00
          2   -1    0    0  501    0  0.00000000000E+00  0.00000000000E+00  0.11682209061E+04  0.11682209061E+04  0.00000000000E+00 0. -1.
         -2   -1    0    0    0  501 -0.00000000000E+00 -0.00000000000E+00 -0.58164220287E+02  0.58164220287E+02  0.00000000000E+00 0.  1.
         25    2    1    2    0    0  0.10289271900E+03 -0.13034910859E+03  0.96231491182E+03  0.98451781183E+03  0.12509008984E+03 0.  0.
          5    1    3    3  502    0  0.94770805275E+02 -0.20572734116E+02  0.41117397958E+03  0.42247633875E+03  0.41800000000E+01 0. -1.
         -5    1    3    3    0  502  0.81219137233E+01 -0.10977637447E+03  0.55114093224E+03  0.56204147308E+03  0.41800000000E+01 0. -1.
        -11    1    1    2    0    0 -0.10544762974E+03  0.14312745854E+03  0.13195740808E+03  0.22139880205E+03  0.00000000000E+00 0.  1.
         11    1    1    2    0    0  0.25549107387E+01 -0.12778349949E+02  0.15784365905E+02  0.20468512484E+02  0.00000000000E+00 0. -1.
</event>
<event>
 7    1  0.3056346E-009  0.1362666E+03  0.7561462E-02  0.1218443E+00
         -3   -1    0    0    0  501 -0.00000000000E+00  0.00000000000E+00  0.35935323147E+03  0.35935323147E+03  0.00000000000E+00 0.  1.
          3   -1    0    0  501    0  0.00000000000E+00 -0.00000000000E+00 -0.61445194589E+02  0.61445194589E+02  0.00000000000E+00 0. -1.
         25    2    1    2    0    0  0.44456292471E+02 -0.86689833890E+02  0.12091596355E+03  0.19939731256E+03  0.12508848378E+03 0.  0.
          5    1    3    3  502    0  0.83170644548E+02 -0.85846356229E+02  0.91645473262E+02  0.15067620304E+03  0.41800000000E+01 0.  1.
         -5    1    3    3    0  502 -0.38714352077E+02 -0.84347766130E+00  0.29270490290E+02  0.48721109523E+02  0.41800000000E+01 0.  1.
        -11    1    1    2    0    0 -0.52970496488E+02  0.39616449625E+02  0.15544859534E+03  0.16893668155E+03  0.00000000000E+00 0.  1.
         11    1    1    2    0    0  0.85142040169E+01  0.47073384265E+02  0.21543477991E+02  0.52464431953E+02  0.00000000000E+00 0. -1.
</event>
<event>
 7    1  0.3056346E-009  0.7361629E+02  0.7561462E-02  0.1348210E+00
         -2   -1    0    0    0  501 -0.00000000000E+00  0.00000000000E+00  0.46968837257E+02  0.46968837257E+02  0.00000000000E+00 0.  1.
          2   -1    0    0  501    0  0.00000000000E+00 -0.00000000000E+00 -0.29505371558E+03  0.29505371558E+03  0.00000000000E+00 0. -1.
         25    2    1    2    0    0 -0.19200648904E+02 -0.41446932621E+02 -0.12194326792E+03  0.18056653391E+03  0.12509036507E+03 0.  0.
          5    1    3    3  502    0 -0.31855400533E+02 -0.35912914885E+02  0.88387281506E+01  0.48990810506E+02  0.41800000000E+01 0. -1.
         -5    1    3    3    0  502  0.12654751630E+02 -0.55340177354E+01 -0.13078199608E+03  0.13157572340E+03  0.41800000000E+01 0. -1.
        -11    1    1    2    0    0 -0.45664315945E-01 -0.20114881286E+02 -0.79116389467E+02  0.81633409929E+02  0.00000000000E+00 0. -1.
         11    1    1    2    0    0  0.19246313220E+02  0.61561813907E+02 -0.47025220931E+02  0.79822609000E+02  0.00000000000E+00 0.  1.
</event>
<event>
 7    1  0.3056346E-009  0.1033804E+03  0.7561462E-02  0.1273344E+00
          2   -1    0    0  501    0  0.00000000000E+00  0.00000000000E+00  0.76080600143E+02  0.76080600143E+02  0.00000000000E+00 0. -1.
         -2   -1    0    0    0  501 -0.00000000000E+00 -0.00000000000E+00 -0.22757397682E+03  0.22757397682E+03  0.00000000000E+00 0.  1.
         25    2    1    2    0    0 -0.24558915600E+02  0.59365712867E+02 -0.13023766598E+03  0.19166840291E+03  0.12508996297E+03 0.  0.
          5    1    3    3  502    0 -0.33617176380E+01  0.92125975116E+02 -0.56683977263E+02  0.10830070228E+03  0.41800000000E+01 0.  1.
         -5    1    3    3    0  502 -0.21197197962E+02 -0.32760262249E+02 -0.73553688721E+02  0.83367700631E+02  0.41800000000E+01 0.  1.
        -11    1    1    2    0    0 -0.99866981970E+01 -0.59571511353E+01 -0.43170830340E+02  0.44709533466E+02  0.00000000000E+00 0.  1.
         11    1    1    2    0    0  0.34545613797E+02 -0.53408561732E+02  0.21915119647E+02  0.67276640582E+02  0.00000000000E+00 0. -1.
</event>
<event>
 7    1  0.3056346E-009  0.1112858E+03  0.7561462E-02  0.1258207E+00
         -1   -1    0    0    0  501 -0.00000000000E+00  0.00000000000E+00  0.25101427169E+03  0.25101427169E+03  0.00000000000E+00 0.  1.
          1   -1    0    0  501    0  0.00000000000E+00 -0.00000000000E+00 -0.50732709843E+02  0.50732709843E+02  0.00000000000E+00 0. -1.
         25    2    1    2    0    0 -0.23457276081E+02  0.14342139822E+02  0.13377373264E+03  0.18521142770E+03  0.12510763618E+03 0.  0.
          5    1    3    3  502    0  0.27996946715E+02  0.54781331549E+02  0.75523857390E+02  0.97499480751E+02  0.41800000000E+01 0.  1.
         -5    1    3    3    0  502 -0.51454222796E+02 -0.40439191727E+02  0.58249875246E+02  0.87711946947E+02  0.41800000000E+01 0.  1.
        -11    1    1    2    0    0  0.85437065005E+00 -0.51679120450E+02  0.30994228480E+02  0.60266936530E+02  0.00000000000E+00 0.  1.
         11    1    1    2    0    0  0.22602905431E+02  0.37336980628E+02  0.35513600729E+02  0.56268617302E+02  0.00000000000E+00 0. -1.
</event>
<event>
 7    1  0.3056346E-009  0.1028539E+03  0.7561462E-02  0.1274407E+00
         -1   -1    0    0    0  501 -0.00000000000E+00  0.00000000000E+00  0.21662866634E+02  0.21662866634E+02  0.00000000000E+00 0.  1.
          1   -1    0    0  501    0  0.00000000000E+00 -0.00000000000E+00 -0.80568788991E+03  0.80568788991E+03  0.00000000000E+00 0. -1.
         25    2    1    2    0    0  0.76993367834E+01 -0.25329922149E+02 -0.65437473869E+03  0.66674939862E+03  0.12509027613E+03 0.  0.
          5    1    3    3  502    0  0.55097714736E+02  0.20514497831E+02 -0.23950734438E+03  0.24665328541E+03  0.41800000000E+01 0. -1.
         -5    1    3    3    0  502 -0.47398377953E+02 -0.45844419980E+02 -0.41486739430E+03  0.42009611321E+03  0.41800000000E+01 0. -1.
        -11    1    1    2    0    0  0.10218641110E+01  0.52319100514E+02 -0.11953669853E+03  0.13048890673E+03  0.00000000000E+00 0. -1.
         11    1    1    2    0    0 -0.87212008945E+01 -0.26989178365E+02 -0.10113586060E+02  0.30112451193E+02  0.00000000000E+00 0.  1.
</event>
<event>
 7    1  0.3056346E-009  0.1415284E+03  0.7561462E-02  0.1211287E+00
         -2   -1    0    0    0  501 -0.00000000000E+00  0.00000000000E+00  0.58901506305E+02  0.58901506305E+02  0.00000000000E+00 0. -1.
          2   -1    0    0  501    0  0.00000000000E+00 -0.00000000000E+00 -0.41359933174E+03  0.41359933174E+03  0.00000000000E+00 0.  1.
         25    2    1    2    0    0 -0.33551043164E+02 -0.87002237875E+02 -0.11728763608E+03  0.19518959907E+03  0.12509008000E+03 0.  0.
          5    1    3    3  502    0 -0.13659635664E+02  0.29515643780E+02 -0.47939376614E+02  0.58081107982E+02  0.41800000000E+01 0. -1.
         -5    1    3    3    0  502 -0.19891407500E+02 -0.11651788166E+03 -0.69348259468E+02  0.13710849109E+03  0.41800000000E+01 0. -1.
        -11    1    1    2    0    0  0.52032758782E+02  0.10237253052E+02 -0.45800905300E+02  0.70070908820E+02  0.00000000000E+00 0.  1.
         11    1    1    2    0    0 -0.18481715618E+02  0.76764984823E+02 -0.19160928405E+03  0.20724033015E+03  0.00000000000E+00 0. -1.
</event>
<event>
 7    1  0.3056346E-009  0.1614731E+03  0.7561462E-02  0.1187044E+00
         -1   -1    0    0    0  501 -0.00000000000E+00  0.00000000000E+00  0.55816871662E+03  0.55816871662E+03  0.00000000000E+00 0.  1.
          1   -1    0    0  501    0  0.00000000000E+00 -0.00000000000E+00 -0.56647671433E+02  0.56647671433E+02  0.00000000000E+00 0. -1.
         25    2    1    2    0    0 -0.31854728568E+02 -0.13198927301E+03  0.19544120591E+03  0.26884524637E+03  0.12507841382E+03 0.  0.
          5    1    3    3  502    0  0.11991058204E+02 -0.11803915146E+03  0.76466356288E+02  0.14121474002E+03  0.41800000000E+01 0.  1.
         -5    1    3    3    0  502 -0.43845786771E+02 -0.13950121553E+02  0.11897484962E+03  0.12763050635E+03  0.41800000000E+01 0.  1.
        -11    1    1    2    0    0  0.57597498908E+02  0.11000861636E+03  0.26566601610E+03  0.29325381441E+03  0.00000000000E+00 0.  1.
         11    1    1    2    0    0 -0.25742770340E+02  0.21980656648E+02  0.40413823172E+02  0.52717327274E+02  0.00000000000E+00 0. -1.
</event>
<event>
 7    1  0.3056346E-009  0.8559093E+02  0.7561462E-02  0.1313894E+00
          1   -1    0    0  501    0  0.00000000000E+00  0.00000000000E+00  0.20134035610E+03  0.20134035610E+03  0.00000000000E+00 0.  1.
         -1   -1    0    0    0  501 -0.00000000000E+00 -0.00000000000E+00 -0.61463047618E+02  0.61463047618E+02  0.00000000000E+00 0. -1.
         25    2    1    2    0    0 -0.17105064320E+02  0.26581220486E+02  0.81752792043E+02  0.15275684151E+03  0.12510790988E+03 0.  0.
          5    1    3    3  502    0  0.37672234721E+02  0.54265198621E+01  0.85588581738E+02  0.93763117006E+02  0.41800000000E+01 0.  1.
         -5    1    3    3    0  502 -0.54777299041E+02  0.21154700624E+02 -0.38357896956E+01  0.58993724508E+02  0.41800000000E+01 0.  1.
        -11    1    1    2    0    0 -0.25939477625E+02 -0.11950872018E+02  0.57925009916E+02  0.64583175946E+02  0.00000000000E+00 0.  1.
         11    1    1    2    0    0  0.43044541945E+02 -0.14630348468E+02  0.19950652714E+00  0.45463386262E+02  0.00000000000E+00 0. -1.
</event>
<event>
 7    1  0.3056346E-009  0.1201923E+03  0.7561462E-02  0.1242780E+00
         -2   -1    0    0    0  501 -0.00000000000E+00  0.00000000000E+00  0.20434187319E+02  0.20434187319E+02  0.00000000000E+00 0.  1.
          2   -1    0    0  501    0  0.00000000000E+00 -0.00000000000E+00 -0.13096000903E+04  0.13096000903E+04  0.00000000000E+00 0. -1.
         25    2    1    2    0    0  0.89709251129E+02  0.70432800393E+02 -0.86409685469E+03  0.88052227930E+03  0.12509029118E+03 0.  0.
          5    1    3    3  502    0  0.52388072173E+02  0.53185583891E+02 -0.17649743469E+03  0.19168211521E+03  0.41800000000E+01 0.  1.
         -5    1    3    3    0  502  0.37321178956E+02  0.17247216502E+02 -0.68759942001E+03  0.68884016409E+03  0.41800000000E+01 0.  1.
        -11    1    1    2    0    0 -0.60200578925E+02 -0.73054784493E+02 -0.39891815975E+03  0.40999610903E+03  0.00000000000E+00 0. -1.
         11    1    1    2    0    0 -0.29508672205E+02  0.26219841002E+01 -0.26150888573E+02  0.39515889324E+02  0.00000000000E+00 0.  1.
</event>
<event>
 7    1  0.3056346E-009  0.1343945E+03  0.7561462E-02  0.1221077E+00
          1   -1    0    0  501    0  0.00000000000E+00  0.00000000000E+00  0.58826798583E+03  0.58826798583E+03  0.00000000000E+00 0. -1.
         -1   -1    0    0    0  501 -0.00000000000E+00 -0.00000000000E+00 -0.10980644191E+03  0.10980644191E+03  0.00000000000E+00 0.  1.
         25    2    1    2    0    0 -0.74234073152E+02 -0.28753389494E+02  0.54115269896E+03  0.56109802159E+03  0.12508913311E+03 0.  0.
          5    1    3    3  502    0 -0.86391681311E+02 -0.65606828345E+02  0.37314825305E+03  0.38861918336E+03  0.41800000000E+01 0.  1.
         -5    1    3    3    0  502  0.12157608158E+02  0.36853438851E+02  0.16800444591E+03  0.17247883823E+03  0.41800000000E+01 0.  1.
        -11    1    1    2    0    0 -0.19217600542E+02 -0.79494779711E+01 -0.58586196643E+01  0.21606336917E+02  0.00000000000E+00 0.  1.
         11    1    1    2    0    0  0.93451673694E+02  0.36702867465E+02 -0.56832535382E+02  0.11537006923E+03  0.00000000000E+00 0. -1.
</event>
<event>
 7    1  0.3056346E-009  0.1308556E+03  0.7561462E-02  0.1226192E+00
          1   -1    0    0  501    0  0.00000000000E+00  0.00000000000E+00  0.34867350394E+02  0.34867350394E+02  0.00000000000E+00 0. -1.
         -1   -1    0    0    0  501 -0.00000000000E+00 -0.00000000000E+00 -0.51926467023E+03  0.51926467023E+03  0.00000000000E+00 0.  1.
         25    2    1    2    0    0  0.21452440828E+02  0.52809315713E+02 -0.27977275994E+03  0.31171949301E+03  0.12508882474E+03 0.  0.
          5    1    3    3  502    0  0.64761229469E+02 -0.50060391202E+01 -0.13008353352E+03  0.14545884422E+03  0.41800000000E+01 0. -1.
         -5    1    3    3    0  502 -0.43308788641E+02  0.57815354833E+02 -0.14968922643E+03  0.16626064879E+03  0.41800000000E+01 0. -1.
        -11    1    1    2    0    0 -0.66968071065E+02 -0.31639216159E+02 -0.15519564238E+03  0.17196351344E+03  0.00000000000E+00 0.  1.
         11    1    1    2    0    0  0.45515630237E+02 -0.21170099554E+02 -0.49428917509E+02  0.70449014167E+02  0.00000000000E+00 0. -1.
</event>
<event>
 7    1  0.3056346E-009  0.8551309E+02  0.7561462E-02  0.1314096E+00
          2   -1    0    0  501    0  0.00000000000E+00  0.00000000000E+00  0.41525414778E+03  0.41525414778E+03  0.00000000000E+00 0. -1.
         -2   -1    0    0    0  501 -0.00000000000E+00 -0.00000000000E+00 -0.28889581671E+02  0.28889581671E+02  0.00000000000E+00 0.  1.
         25    2    1    2    0    0 -0.20795291113E+01 -0.61427321013E+01  0.18546638086E+03  0.22380197697E+03  0.12508992313E+03 0.  0.
          5    1    3    3  502    0 -0.89194319910E+01  0.43252209812E+02  0.16303709205E+03  0.16896412550E+03  0.41800000000E+01 0.  1.
         -5    1    3    3    0  502  0.68399028798E+01 -0.49394941913E+02  0.22429288812E+02  0.54837851477E+02  0.41800000000E+01 0.  1.
        -11    1    1    2    0    0  0.23025288274E+02 -0.28195714878E+02  0.38289613189E+02  0.52832345355E+02  0.00000000000E+00 0.  1.
         11    1    1    2    0    0 -0.20945759163E+02  0.34338446979E+02  0.16260857206E+03  0.16750940712E+03  0.00000000000E+00 0. -1.
</event>
<event>
 7    1  0.3056346E-009  0.1279173E+03  0.7561462E-02  0.1230579E+00
          2   -1    0    0  501    0  0.00000000000E+00  0.00000000000E+00  0.14038015152E+04  0.14038015152E+04  0.00000000000E+00 0. -1.
         -2   -1    0    0    0  501 -0.00000000000E+00 -0.00000000000E+00 -0.16452052404E+02  0.16452052404E+02  0.00000000000E+00 0.  1.
         25    2    1    2    0    0  0.82323441943E+02 -0.67691894404E+02  0.70276968042E+03  0.72172769051E+03  0.12508514648E+03 0.  0.
          5    1    3    3  502    0  0.28219351259E+02 -0.54946224911E+02  0.10906186380E+03  0.12540885915E+03  0.41800000000E+01 0. -1.
         -5    1    3    3    0  502  0.54104090684E+02 -0.12745669493E+02  0.59370781662E+03  0.59631883136E+03  0.41800000000E+01 0. -1.
        -11    1    1    2    0    0 -0.74924226905E+02  0.50385659460E+01  0.40667676878E+03  0.41355171525E+03  0.00000000000E+00 0.  1.
         11    1    1    2    0    0 -0.73992150384E+01  0.62653328458E+02  0.27790301358E+03  0.28497416182E+03  0.00000000000E+00 0. -1.
</event>
<event>
 7    1  0.3056346E-009  0.1176121E+03  0.7561462E-02  0.1247089E+00
         -2   -1    0    0    0  501 -0.00000000000E+00  0.00000000000E+00  0.69812668545E+02  0.69812668545E+02  0.00000000000E+00 0.  1.
          2   -1    0    0  501    0  0.00000000000E+00 -0.00000000000E+00 -0.37125927138E+03  0.37125927138E+03  0.00000000000E+00 0. -1.
         25    2    1    2    0    0 -0.14637345191E+02  0.81573945517E+02 -0.27593129860E+03  0.31409266073E+03  0.12509019751E+03 0.  0.
          5    1    3    3  502    0  0.24669208684E+02  0.10178318551E+03 -0.20844345763E+03  0.23331209600E+03  0.41800000000E+01 0.  1.
         -5    1    3    3    0  502 -0.39306553875E+02 -0.20209239998E+02 -0.67487840966E+02  0.80780564724E+02  0.41800000000E+01 0.  1.
        -11    1    1    2    0    0  0.36362605576E+01 -0.69828575858E+02  0.24770588222E+02  0.74181092187E+02  0.00000000000E+00 0.  1.
         11    1    1    2    0    0  0.11001084633E+02 -0.11745369659E+02 -0.50285892460E+02  0.52798187015E+02  0.00000000000E+00 0. -1.
</event>
<event>
 7    1  0.3056346E-009  0.1031287E+03  0.7561462E-02  0.1273851E+00
         -2   -1    0    0    0  501 -0.00000000000E+00  0.00000000000E+00  0.32349059778E+03  0.32349059778E+03  0.00000000000E+00 0.  1.
          2   -1    0    0  501    0  0.00000000000E+00 -0.00000000000E+00 -0.66856410915E+02  0.66856410915E+02  0.00000000000E+00 0. -1.
         25    2    1    2    0    0 -0.26587850221E+02  0.23533194723E+02  0.16171892530E+02  0.13103479380E+03  0.12509141476E+03 0.  0.
          5    1    3    3  502    0 -0.12728197927E+02  0.68802830239E+02  0.36864298781E+02  0.79197761307E+02  0.41800000000E+01 0.  1.
         -5    1    3    3    0  502 -0.13859652294E+02 -0.45269635516E+02 -0.20692406251E+02  0.51837032495E+02  0.41800000000E+01 0.  1.
        -11    1    1    2    0    0  0.55949902632E+02 -0.17842074335E+02  0.20328610938E+03  0.21159861410E+03  0.00000000000E+00 0.  1.
         11    1    1    2    0    0 -0.29362052411E+02 -0.56911203881E+01  0.37176184954E+02  0.47713600794E+02  0.00000000000E+00 0. -1.
</event>
<event>
 7    1  0.3056346E-009  0.6016023E+02  0.7561462E-02  0.1397161E+00
          1   -1    0    0  501    0  0.00000000000E+00  0.00000000000E+00  0.15481964900E+03  0.15481964900E+03  0.00000000000E+00 0. -1.
         -1   -1    0    0    0  501 -0.00000000000E+00 -0.00000000000E+00 -0.85956272346E+02  0.85956272346E+02  0.00000000000E+00 0.  1.
         25    2    1    2    0    0 -0.65092088042E+01 -0.16217554323E+02  0.78137416560E+02  0.14852258561E+03  0.12509246061E+03 0.  0.
          5    1    3    3  502    0  0.18036445422E+02 -0.16116891905E+02  0.10736020456E+03  0.11013062014E+03  0.41800000000E+01 0.  1.
         -5    1    3    3    0  502 -0.24545654226E+02 -0.10066241844E+00 -0.29222788000E+02  0.38391965472E+02  0.41800000000E+01 0.  1.
        -11    1    1    2    0    0 -0.20648105923E+02 -0.17859092565E+02  0.24842984910E+02  0.36911588488E+02  0.00000000000E+00 0. -1.
         11    1    1    2    0    0  0.27157314727E+02  0.34076646888E+02 -0.34117024818E+02  0.55341747251E+02  0.00000000000E+00 0.  1.
</event>
<event>
 7    1  0.3056346E-009  0.1410273E+03  0.7561462E-02  0.1211953E+00
          1   -1    0    0  501    0  0.00000000000E+00  0.00000000000E+00  0.74474179005E+03  0.74474179005E+03  0.00000000000E+00 0. -1.
         -1   -1    0    0    0  501 -0.00000000000E+00 -0.00000000000E+00 -0.38725566271E+02  0.38725566271E+02  0.00000000000E+00 0.  1.
         25    2    1    2    0    0  0.12029015061E+03  0.40212536396E+02  0.30444861526E+03  0.35273624079E+03  0.12508847994E+03 0.  0.
          5    1    3    3  502    0  0.63773077116E+02 -0.17141382925E+02  0.42458360400E+02  0.78619445059E+02  0.41800000000E+01 0. -1.
         -5    1    3    3    0  502  0.56517073493E+02  0.57353919322E+02  0.26199025486E+03  0.27411679573E+03  0.41800000000E+01 0. -1.
        -11    1    1    2    0    0 -0.55682885813E+02  0.57336078029E+01  0.28039495180E+03  0.28592794027E+03  0.00000000000E+00 0. -1.
         11    1    1    2    0    0 -0.64607264796E+02 -0.45946144199E+02  0.12117265671E+03  0.14480317526E+03  0.00000000000E+00 0.  1.
</event>
<event>
 7    1  0.3056346E-009  0.1087468E+03  0.7561462E-02  0.1262908E+00
          1   -1    0    0  501    0  0.00000000000E+00  0.00000000000E+00  0.23697547842E+02  0.23697547842E+02  0.00000000000E+00 0. -1.
         -1   -1    0    0    0  501 -0.00000000000E+00 -0.00000000000E+00 -0.61520362291E+03  0.61520362291E+03  0.00000000000E+00 0.  1.
         25    2    1    2    0    0 -0.17495774227E+02  0.25223530543E+02 -0.21866054380E+03  0.25377625760E+03  0.12509047485E+03 0.  0.
          5    1    3    3  502    0  0.49817112359E+02  0.19628238259E+02 -0.55961837291E+02  0.77564244687E+02  0.41800000000E+01 0.  1.
         -5    1    3    3    0  502 -0.67312886586E+02  0.55952922845E+01 -0.16269870651E+03  0.17621201292E+03  0.41800000000E+01 0.  1.
        -11    1    1    2    0    0  0.28551493748E+02 -0.56300885021E+02 -0.22859555964E+03  0.23715165472E+03  0.00000000000E+00 0. -1.
         11    1    1    2    0    0 -0.11055719521E+02  0.31077354478E+02 -0.14424997163E+03  0.14797325843E+03  0.00000000000E+00 0.  1.
</event>
<event>
 7    1  0.3056346E-009  0.2816618E+03  0.7561462E-02  0.1094785E+00
          1   -1    0    0  501    0  0.00000000000E+00  0.00000000000E+00  0.12556942944E+03  0.12556942944E+03  0.00000000000E+00 0. -1.
         -1   -1    0    0    0  501 -0.00000000000E+00 -0.00000000000E+00 -0.69373596909E+03  0.69373596909E+03  0.00000000000E+00 0.  1.
         25    2    1    2    0    0  0.11522559201E+03  0.24799381484E+03 -0.31756090957E+03  0.43734633947E+03  0.12509604355E+03 0.  0.
          5    1    3    3  502    0  0.80180648617E+02  0.19986333172E+03 -0.15839664489E+03  0.26735978997E+03  0.41800000000E+01 0.  1.
         -5    1    3    3    0  502  0.35044943389E+02  0.48130483118E+02 -0.15916426467E+03  0.16998654950E+03  0.41800000000E+01 0.  1.
        -11    1    1    2    0    0 -0.36742200281E+02 -0.10628864813E+02 -0.33050697257E+02  0.50550080493E+02  0.00000000000E+00 0.  1.
         11    1    1    2    0    0 -0.78483391726E+02 -0.23736495003E+03 -0.21755493283E+03  0.33140897857E+03  0.00000000000E+00 0. -1.
</event>
<event>
 7    1  0.3056346E-009  0.1165340E+03  0.7561462E-02  0.1248927E+00
         -2   -1    0    0    0  501 -0.00000000000E+00  0.00000000000E+00  0.29957143811E+03  0.29957143811E+03  0.00000000000E+00 0.  1.
          2   -1    0    0  501    0  0.00000000000E+00 -0.00000000000E+00 -0.81303899052E+02  0.81303899052E+02  0.00000000000E+00 0. -1.
         25    2    1    2    0    0  0.61450680312E+01 -0.47975808965E+02 -0.61137329487E+01  0.13425509153E+03  0.12509041436E+03 0.  0.
          5    1    3    3  502    0  0.29453037377E+02 -0.84650468549E+02  0.24912899011E+01  0.89760025410E+02  0.41800000000E+01 0. -1.
         -5    1    3    3    0  502 -0.23307969346E+02  0.36674659585E+02 -0.86050228498E+01  0.44495066119E+02  0.41800000000E+01 0. -1.
        -11    1    1    2    0    0 -0.19585901718E+02 -0.21406917019E+02  0.93214007790E+02  0.97625380361E+02  0.00000000000E+00 0. -1.
         11    1    1    2    0    0  0.13440833687E+02  0.69382725983E+02  0.13116726422E+03  0.14899486527E+03  0.00000000000E+00 0.  1.
</event>
<event>
 7    1  0.3056346E-009  0.1243909E+03  0.7561462E-02  0.1236024E+00
          2   -1    0    0  501    0  0.00000000000E+00  0.00000000000E+00  0.77687710155E+03  0.77687710155E+03  0.00000000000E+00 0.  1.
         -2   -1    0    0    0  501 -0.00000000000E+00 -0.00000000000E+00 -0.23679871464E+02  0.23679871464E+02  0.00000000000E+00 0. -1.
         25    2    1    2    0    0 -0.79260558770E+02  0.48956234802E+01  0.48217662394E+03  0.50442833388E+03  0.12508974394E+03 0.  0.
          5    1    3    3  502    0 -0.10115466815E+03  0.22483983311E+02  0.44871572994E+03  0.46054432478E+03  0.41800000000E+01 0. -1.
         -5    1    3    3    0  502  0.21894109379E+02 -0.17588359831E+02  0.33460894006E+02  0.43884009100E+02  0.41800000000E+01 0. -1.
        -11    1    1    2    0    0  0.60260941912E+02 -0.43049336171E+02  0.14047763393E+03  0.15880362748E+03  0.00000000000E+00 0.  1.
         11    1    1    2    0    0  0.18999616858E+02  0.38153712691E+02  0.13054297221E+03  0.13732501166E+03  0.00000000000E+00 0. -1.
</event>
<event>
 7    1  0.3056346E-009  0.8953225E+02  0.7561462E-02  0.1303988E+00
         -1   -1    0    0    0  501 -0.00000000000E+00  0.00000000000E+00  0.24439028408E+03  0.24439028408E+03  0.00000000000E+00 0.  1.
          1   -1    0    0  501    0  0.00000000000E+00 -0.00000000000E+00 -0.53253698385E+02  0.53253698385E+02  0.00000000000E+00 0. -1.
         25    2    1    2    0    0 -0.34371491320E+02 -0.52566271921E+00  0.11983598186E+03  0.17660751587E+03  0.12509147205E+03 0.  0.
          5    1    3    3  502    0 -0.65099191136E+01  0.47473596894E+02  0.11004273032E+03  0.12009577988E+03  0.41800000000E+01 0.  1.
         -5    1    3    3    0  502 -0.27861572206E+02 -0.47999259614E+02  0.97932515366E+01  0.56511735993E+02  0.41800000000E+01 0.  1.
        -11    1    1    2    0    0  0.47152603178E+02  0.20643452668E+02  0.63658562732E+01  0.51865636510E+02  0.00000000000E+00 0. -1.
         11    1    1    2    0    0 -0.12781111858E+02 -0.20117789948E+02  0.64934747565E+02  0.69170830081E+02  0.00000000000E+00 0.  1.
</event>
<event>
 7    1  0.3056346E-009  0.8880248E+02  0.7561462E-02  0.1305778E+00
         -1   -1    0    0    0  501 -0.00000000000E+00  0.00000000000E+00  0.64114576748E+02  0.64114576748E+02  0.00000000000E+00 0.  1.
          1   -1    0    0  501    0  0.00000000000E+00 -0.00000000000E+00 -0.23132492786E+03  0.23132492786E+03  0.00000000000E+00 0. -1.
         25    2    1    2    0    0 -0.42690880137E+02 -0.10637699882E+02 -0.12659797913E+03  0.18332838470E+03  0.12508627588E+03 0.  0.
          5    1    3    3  502    0 -0.74560466794E+02 -0.68707550989E+01 -0.13072052477E+03  0.15070434128E+03  0.41800000000E+01 0.  1.
         -5    1    3    3    0  502  0.31869586657E+02 -0.37669447836E+01  0.41225456414E+01  0.32624043423E+02  0.41800000000E+01 0.  1.
        -11    1    1    2    0    0  0.14713772590E+02 -0.22498171669E+02  0.22826196480E+02  0.35266103810E+02  0.00000000000E+00 0.  1.
         11    1    1    2    0    0  0.27977107548E+02  0.33135871551E+02 -0.63438568462E+02  0.76845016095E+02  0.00000000000E+00 0. -1.
</event>
<event>
 7    1  0.3056346E-009  0.1103953E+03  0.7561462E-02  0.1259840E+00
         -2   -1    0    0    0  501 -0.00000000000E+00  0.00000000000E+00  0.39512172172E+02  0.39512172172E+02  0.00000000000E+00 0. -1.
          2   -1    0    0  501    0  0.00000000000E+00 -0.00000000000E+00 -0.48265589467E+03  0.48265589467E+03  0.00000000000E+00 0.  1.
         25    2    1    2    0    0 -0.27773446867E+02 -0.33504018411E+02 -0.10028015399E+03  0.16612523371E+03  0.12509036890E+03 0.  0.
          5    1    3    3  502    0 -0.19409368546E+02  0.43969254014E+02 -0.14982133659E+02  0.50516884453E+02  0.41800000000E+01 0. -1.
         -5    1    3    3    0  502 -0.83640783209E+01 -0.77473272425E+02 -0.85298020326E+02  0.11560834926E+03  0.41800000000E+01 0. -1.
        -11    1    1    2    0    0 -0.26917112698E+02  0.29105182014E+02 -0.11407913543E+03  0.12077123713E+03  0.00000000000E+00 0. -1.
         11    1    1    2    0    0  0.54690559564E+02  0.43988363966E+01 -0.22878443308E+03  0.23527159601E+03  0.00000000000E+00 0.  1.
</event>
<event>
 7    1  0.3056346E-009  0.1146789E+03  0.7561462E-02  0.1252143E+00
          3   -1    0    0  501    0  0.00000000000E+00  0.00000000000E+00  0.49961478919E+03  0.49961478919E+03  0.00000000000E+00 0. -1.
         -3   -1    0    0    0  501 -0.00000000000E+00 -0.00000000000E+00 -0.39343928025E+02  0.39343928025E+02  0.00000000000E+00 0.  1.
         25    2    1    2    0    0  0.19134719988E+02  0.33474993343E+02  0.10095197153E+03  0.16530339355E+03  0.12508876318E+03 0.  0.
          5    1    3    3  502    0 -0.24434884552E+02  0.67213789902E+02  0.36498013531E+02  0.80401085365E+02  0.41800000000E+01 0. -1.
         -5    1    3    3    0  502  0.43569604540E+02 -0.33738796559E+02  0.64453957997E+02  0.84902308181E+02  0.41800000000E+01 0. -1.
        -11    1    1    2    0    0 -0.42467150521E+02  0.17856689087E+02  0.16769617312E+03  0.17390896095E+03  0.00000000000E+00 0.  1.
         11    1    1    2    0    0  0.23332430533E+02 -0.51331682430E+02  0.19162271652E+03  0.19974636272E+03  0.00000000000E+00 0. -1.
</event>
<event>
 7    1  0.3056346E-009  0.1995277E+03  0.7561462E-02  0.1150138E+00
         -1   -1    0    0    0  501 -0.00000000000E+00  0.00000000000E+00  0.36655413681E+03  0.36655413681E+03  0.00000000000E+00 0.  1.
          1   -1    0    0  501    0  0.00000000000E+00 -0.00000000000E+00 -0.12561910204E+03  0.12561910204E+03  0.00000000000E+00 0. -1.
         25    2    1    2    0    0 -0.16728646615E+03  0.59354011708E+02  0.18575832726E+03  0.28576500699E+03  0.12509125715E+03 0.  0.
          5    1    3    3  502    0 -0.68987073466E+02 -0.22665223731E+02  0.12354188169E+03  0.14336316683E+03  0.41800000000E+01 0. -1.
         -5    1    3    3    0  502 -0.98299392680E+02  0.82019235438E+02  0.62216445575E+02  0.14240184017E+03  0.41800000000E+01 0. -1.
        -11    1    1    2    0    0  0.81324184901E+02  0.17196382443E+02  0.14826346482E+02  0.84434348277E+02  0.00000000000E+00 0.  1.
         11    1    1    2    0    0  0.85962281245E+02 -0.76550394151E+02  0.40350361026E+02  0.12197388358E+03  0.00000000000E+00 0. -1.
</event>
<event>
 7    1  0.3056346E-009  0.1347335E+03  0.7561462E-02  0.1220596E+00
          1   -1    0    0  501    0  0.00000000000E+00  0.00000000000E+00  0.46026935243E+03  0.46026935243E+03  0.00000000000E+00 0. -1.
         -1   -1    0    0    0  501 -0.00000000000E+00 -0.00000000000E+00 -0.44666981104E+02  0.44666981104E+02  0.00000000000E+00 0.  1.
         25    2    1    2    0    0 -0.77239052461E+02  0.48852607877E+02  0.20254473700E+03  0.25500064441E+03  0.12509400323E+03 0.  0.
          5    1    3    3  502    0 -0.30105526764E+02 -0.36710099309E+02  0.28947462922E+02  0.55762013438E+02  0.41800000000E+01 0.  1.
         -5    1    3    3    0  502 -0.47133525697E+02  0.85562707187E+02  0.17359727408E+03  0.19923863098E+03  0.41800000000E+01 0.  1.
        -11    1    1    2    0    0  0.18407580404E+02 -0.61208847849E+02  0.70166921644E+02  0.94914482374E+02  0.00000000000E+00 0.  1.
         11    1    1    2    0    0  0.58831472056E+02  0.12356239972E+02  0.14289071268E+03  0.15502120674E+03  0.00000000000E+00 0. -1.
</event>
<event>
 7    1  0.3056346E-009  0.9287699E+02  0.7561462E-02  0.1296031E+00
         -2   -1    0    0    0  501 -0.00000000000E+00  0.00000000000E+00  0.21307056869E+03  0.21307056869E+03  0.00000000000E+00 0.  1.
          2   -1    0    0  501    0  0.00000000000E+00 -0.00000000000E+00 -0.81312115657E+02  0.81312115657E+02  0.00000000000E+00 0. -1.
         25    2    1    2    0    0  0.66382164331E+02 -0.26358479478E+02  0.72513757653E+02  0.16126388930E+03  0.12508571366E+03 0.  0.
          5    1    3    3  502    0  0.85725315602E+02 -0.19668252086E+02  0.95706985288E+02  0.13004987239E+03  0.41800000000E+01 0. -1.
         -5    1    3    3    0  502 -0.19343151270E+02 -0.66902273922E+01 -0.23193227636E+02  0.31214016912E+02  0.41800000000E+01 0. -1.
        -11    1    1    2    0    0 -0.33418374292E+02  0.28299860699E+02  0.82038650575E+02  0.92994677504E+02  0.00000000000E+00 0.  1.
         11    1    1    2    0    0 -0.32963790040E+02 -0.19413812206E+01 -0.22793955198E+02  0.40124117541E+02  0.00000000000E+00 0. -1.
</event>
<event>
 7    1  0.3056346E-009  0.1160311E+03  0.7561462E-02  0.1249792E+00
          1   -1    0    0  501    0  0.00000000000E+00  0.00000000000E+00  0.60965152281E+03  0.60965152281E+03  0.00000000000E+00 0. -1.
         -1   -1    0    0    0  501 -0.00000000000E+00 -0.00000000000E+00 -0.31875243509E+02  0.31875243509E+02  0.00000000000E+00 0.  1.
         25    2    1    2    0    0  0.55188880133E+01  0.83746339536E+02  0.26507827121E+03  0.30488879975E+03  0.12508710099E+03 0.  0.
          5    1    3    3  502    0  0.33519852046E+02  0.93386921672E+02  0.11538108939E+03  0.15223326118E+03  0.41800000000E+01 0.  1.
         -5    1    3    3    0  502 -0.28000964032E+02 -0.96405821356E+01  0.14969718183E+03  0.15265553858E+03  0.41800000000E+01 0.  1.
        -11    1    1    2    0    0 -0.27067341058E+02 -0.15309422489E+02  0.24346348566E+02  0.39493848349E+02  0.00000000000E+00 0.  1.
         11    1    1    2    0    0  0.21548453045E+02 -0.68436917047E+02  0.28835165952E+03  0.29714411822E+03  0.00000000000E+00 0. -1.
</event>
<event>
 7    1  0.3056346E-009  0.1232658E+03  0.7561462E-02  0.1237805E+00
         -2   -1    0    0    0  501 -0.00000000000E+00  0.00000000000E+00  0.27045573310E+02  0.27045573310E+02  0.00000000000E+00 0.  1.
          2   -1    0    0  501    0  0.00000000000E+00 -0.00000000000E+00 -0.63268894016E+03  0.63268894016E+03  0.00000000000E+00 0. -1.
         25    2    1    2    0    0  0.19884070936E+02  0.71219781977E+02 -0.38392861638E+03  0.41050724845E+03  0.12508950771E+03 0.  0.
          5    1    3    3  502    0 -0.31711271419E+02 -0.15488504420E+02 -0.47973288337E+02  0.59702657378E+02  0.41800000000E+01 0. -1.
         -5    1    3    3    0  502  0.51595342355E+02  0.86708286397E+02 -0.33595532804E+03  0.35080459108E+03  0.41800000000E+01 0. -1.
        -11    1    1    2    0    0 -0.36042809873E+02  0.94685929790E+00 -0.10536872816E+03  0.11136673453E+03  0.00000000000E+00 0.  1.
         11    1    1    2    0    0  0.16158738937E+02 -0.72166641275E+02 -0.11634602232E+03  0.13786053049E+03  0.00000000000E+00 0. -1.
</event>
<event>
 7    1  0.3056346E-009  0.8993780E+02  0.7561462E-02  0.1303002E+00
         -3   -1    0    0    0  501 -0.00000000000E+00  0.00000000000E+00  0.65930002569E+02  0.65930002569E+02  0.00000000000E+00 0.  1.
          3   -1    0    0  501    0  0.00000000000E+00 -0.00000000000E+00 -0.20040871881E+03  0.20040871881E+03  0.00000000000E+00 0. -1.
         25    2    1    2    0    0 -0.16863059053E+02 -0.14183156076E+02 -0.11367085047E+03  0.17044981787E+03  0.12508618424E+03 0.  0.
          5    1    3    3  502    0  0.45172985569E+02  0.51278907492E+01 -0.80269635439E+01  0.46355133831E+02  0.41800000000E+01 0.  1.
         -5    1    3    3    0  502 -0.62036044622E+02 -0.19311046825E+02 -0.10564388693E+03  0.12409468404E+03  0.41800000000E+01 0.  1.
        -11    1    1    2    0    0 -0.23972482966E+02 -0.41896582437E+01  0.22826894502E+02  0.33366154833E+02  0.00000000000E+00 0.  1.
         11    1    1    2    0    0  0.40835542019E+02  0.18372814319E+02 -0.43634760269E+02  0.62522748674E+02  0.00000000000E+00 0. -1.
</event>
<event>
 7    1  0.3056346E-009  0.1479019E+03  0.7561462E-02  0.1203075E+00
          2   -1    0    0  501    0  0.00000000000E+00  0.00000000000E+00  0.14318971270E+03  0.14318971270E+03  0.00000000000E+00 0. -1.
         -2   -1    0    0    0  501 -0.00000000000E+00 -0.00000000000E+00 -0.23341001321E+03  0.23341001321E+03  0.00000000000E+00 0.  1.
         25    2    1    2    0    0  0.91389198096E+02  0.11497613970E+03 -0.52406067197E+02  0.19990813297E+03  0.12508144355E+03 0.  0.
          5    1    3    3  502    0  0.17369850705E+02  0.27525716441E+02 -0.76068474998E+02  0.82844807125E+02  0.41800000000E+01 0.  1.
         -5    1    3    3    0  502  0.74019347391E+02  0.87450423255E+02  0.23662407801E+02  0.11706332585E+03  0.41800000000E+01 0.  1.
        -11    1    1    2    0    0 -0.61658862637E+02 -0.92075092478E+02 -0.66695756772E+02  0.12933662269E+03  0.00000000000E+00 0.  1.
         11    1    1    2    0    0 -0.29730335459E+02 -0.22901047218E+02  0.28881523461E+02  0.47354970252E+02  0.00000000000E+00 0. -1.
</event>
<event>
 7    1  0.3056346E-009  0.9746137E+02  0.7561462E-02  0.1285727E+00
         -3   -1    0    0    0  501 -0.00000000000E+00  0.00000000000E+00  0.35801224234E+02  0.35801224234E+02  0.00000000000E+00 0.  1.
          3   -1    0    0  501    0  0.00000000000E+00 -0.00000000000E+00 -0.51660968733E+03  0.51660968733E+03  0.00000000000E+00 0. -1.
         25    2    1    2    0    0  0.78547029698E+02  0.65571228037E+01 -0.30002049240E+03  0.33447222782E+03  0.12508694411E+03 0.  0.
          5    1    3    3  502    0  0.31056445503E+01  0.14731572347E+02 -0.23186109060E+03  0.23238696604E+03  0.41800000000E+01 0. -1.
         -5    1    3    3    0  502  0.75441385147E+02 -0.81744495428E+01 -0.68159401803E+02  0.10208526178E+03  0.41800000000E+01 0. -1.
        -11    1    1    2    0    0 -0.88730146061E+02  0.37519305926E+01 -0.18287498528E+03  0.20329873597E+03  0.00000000000E+00 0. -1.
         11    1    1    2    0    0  0.10183116364E+02 -0.10309053396E+02  0.20870145965E+01  0.14639947771E+02  0.00000000000E+00 0.  1.
</event>
<event>
 7    1  0.3056346E-009  0.7476456E+02  0.7561462E-02  0.1344602E+00
         -1   -1    0    0    0  501 -0.00000000000E+00  0.00000000000E+00  0.17826455899E+03  0.17826455899E+03  0.00000000000E+00 0.  1.
          1   -1    0    0  501    0  0.00000000000E+00 -0.00000000000E+00 -0.77978352811E+02  0.77978352811E+02  0.00000000000E+00 0. -1.
         25    2    1    2    0    0  0.19582672910E+02 -0.29783277216E+02  0.24019107253E+02  0.13227800621E+03  0.12510007487E+03 0.  0.
          5    1    3    3  502    0 -0.11991527903E+02  0.22296329431E+02 -0.37611956238E+02  0.45530810443E+02  0.41800000000E+01 0.  1.
         -5    1    3    3    0  502  0.31574200813E+02 -0.52079606646E+02  0.61631063492E+02  0.86747195762E+02  0.41800000000E+01 0.  1.
        -11    1    1    2    0    0 -0.28532889570E+02 -0.31399950954E+01  0.84181311380E+02  0.88940871044E+02  0.00000000000E+00 0.  1.
         11    1    1    2    0    0  0.89502166596E+01  0.32923272311E+02 -0.79142124499E+01  0.35024034556E+02  0.00000000000E+00 0. -1.
</event>
<event>
 7    1  0.3056346E-009  0.2142900E+03  0.7561462E-02  0.1138213E+00
          1   -1    0    0  501    0  0.00000000000E+00  0.00000000000E+00  0.15986717576E+03  0.15986717576E+03  0.00000000000E+00 0. -1.
         -1   -1    0    0    0  501 -0.00000000000E+00 -0.00000000000E+00 -0.33242904412E+03  0.33242904412E+03  0.00000000000E+00 0.  1.
         25    2    1    2    0    0 -0.19646674049E+03 -0.50774863056E+02 -0.61493788629E+02  0.24618813300E+03  0.12509933634E+03 0.  0.
          5    1    3    3  502    0 -0.13322416864E+03 -0.99279471485E+01 -0.94690079815E+02  0.16380148613E+03  0.41800000000E+01 0. -1.
         -5    1    3    3    0  502 -0.63242571851E+02 -0.40846915907E+02  0.33196291186E+02  0.82386646867E+02  0.41800000000E+01 0. -1.
        -11    1    1    2    0    0  0.50913028173E+02  0.53614811891E+02 -0.40968263091E+02  0.84528593225E+02  0.00000000000E+00 0.  1.
         11    1    1    2    0    0  0.14555371232E+03 -0.28399488354E+01 -0.70099816636E+02  0.16157949366E+03  0.00000000000E+00 0. -1.
</event>
<event>
 7    1  0.3056346E-009  0.1444057E+03  0.7561462E-02  0.1207521E+00
          2   -1    0    0  501    0  0.00000000000E+00  0.00000000000E+00  0.59491556263E+03  0.59491556263E+03  0.00000000000E+00 0. -1.
         -2   -1    0    0    0  501 -0.00000000000E+00 -0.00000000000E+00 -0.37836474803E+02  0.37836474803E+02  0.00000000000E+00 0.  1.
         25    2    1    2    0    0 -0.10714654052E+03 -0.53334398031E+02  0.33702613325E+03  0.37889076708E+03  0.12508660891E+03 0.  0.
          5    1    3    3  502    0 -0.13290435580E+03 -0.52123343177E+02  0.30992295253E+03  0.34124788586E+03  0.41800000000E+01 0.  1.
         -5    1    3    3    0  502  0.25757815283E+02 -0.12110548545E+01  0.27103180711E+02  0.37642881221E+02  0.41800000000E+01 0.  1.
        -11    1    1    2    0    0  0.63257582634E+02  0.35080363835E+02  0.90447519280E+02  0.11581410722E+03  0.00000000000E+00 0. -1.
         11    1    1    2    0    0  0.43888957887E+02  0.18254034196E+02  0.12960543530E+03  0.13804716313E+03  0.00000000000E+00 0.  1.
</event>
<event>
 7    1  0.3056346E-009  0.1068795E+03  0.7561462E-02  0.1266460E+00
          2   -1    0    0  501    0  0.00000000000E+00  0.00000000000E+00  0.95784264333E+02  0.95784264333E+02  0.00000000000E+00 0. -1.
         -2   -1    0    0    0  501 -0.00000000000E+00 -0.00000000000E+00 -0.19674469512E+03  0.19674469512E+03  0.00000000000E+00 0.  1.
         25    2    1    2    0    0 -0.15955357398E+02  0.65254304522E+02 -0.11032945962E+03  0.17981392284E+03  0.12509100487E+03 0.  0.
          5    1    3    3  502    0  0.40932759312E+02 -0.14619627139E+02 -0.38095345200E+02  0.57947838687E+02  0.41800000000E+01 0.  1.
         -5    1    3    3    0  502 -0.56888116711E+02  0.79873931661E+02 -0.72234114420E+02  0.12186608416E+03  0.41800000000E+01 0.  1.
        -11    1    1    2    0    0  0.13138230732E+02 -0.97351547764E+01 -0.36917774128E+02  0.40377077555E+02  0.00000000000E+00 0.  1.
         11    1    1    2    0    0  0.28171266658E+01 -0.55519149745E+02  0.46286802963E+02  0.72337959051E+02  0.00000000000E+00 0. -1.
</event>
<event>
 7    1  0.3056346E-009  0.1373135E+03  0.7561462E-02  0.1216990E+00
          1   -1    0    0  501    0  0.00000000000E+00  0.00000000000E+00  0.12763368363E+03  0.12763368363E+03  0.00000000000E+00 0. -1.
         -1   -1    0    0    0  501 -0.00000000000E+00 -0.00000000000E+00 -0.17390151141E+03  0.17390151141E+03  0.00000000000E+00 0.  1.
         25    2    1    2    0    0 -0.78685671477E+02 -0.47270734880E+02  0.21279457142E+02  0.15660771999E+03  0.12508879003E+03 0.  0.
          5    1    3    3  502    0 -0.24248146176E+02 -0.79650962609E+02 -0.13147644054E+02  0.84395387206E+02  0.41800000000E+01 0.  1.
         -5    1    3    3    0  502 -0.54437525302E+02  0.32380227729E+02  0.34427101196E+02  0.72212332780E+02  0.41800000000E+01 0.  1.
        -11    1    1    2    0    0  0.47253684316E+01  0.53364842233E+02 -0.22442160472E+02  0.58084301321E+02  0.00000000000E+00 0.  1.
         11    1    1    2    0    0  0.73960303046E+02 -0.60941073530E+01 -0.45105124454E+02  0.86843173728E+02  0.00000000000E+00 0. -1.
</event>
<event>
 7    1  0.3056346E-009  0.1109908E+03  0.7561462E-02  0.1258746E+00
         -3   -1    0    0    0  501 -0.00000000000E+00  0.00000000000E+00  0.10003261888E+04  0.10003261888E+04  0.00000000000E+00 0.  1.
          3   -1    0    0  501    0  0.00000000000E+00 -0.00000000000E+00 -0.13553891649E+02  0.13553891649E+02  0.00000000000E+00 0. -1.
         25    2    1    2    0    0 -0.29849585016E+02 -0.29950869138E+02  0.52163659935E+03  0.53809209346E+03  0.12510118697E+03 0.  0.
          5    1    3    3  502    0 -0.43848982377E+02  0.36192651759E+02  0.32876409660E+03  0.33367041360E+03  0.41800000000E+01 0.  1.
         -5    1    3    3    0  502  0.13999397360E+02 -0.66143520898E+02  0.19287250274E+03  0.20442167986E+03  0.41800000000E+01 0.  1.
        -11    1    1    2    0    0 -0.17794999701E+02 -0.20967585460E+02  0.85914400365E+02  0.90208568575E+02  0.00000000000E+00 0. -1.
         11    1    1    2    0    0  0.47644584718E+02  0.50918454598E+02  0.37922129747E+03  0.38557941845E+03  0.00000000000E+00 0.  1.
</event>
<event>
 7    1  0.3056346E-009  0.2424226E+03  0.7561462E-02  0.1118189E+00
         -1   -1    0    0    0  501 -0.00000000000E+00  0.00000000000E+00  0.34529046917E+03  0.34529046917E+03  0.00000000000E+00 0.  1.
          1   -1    0    0  501    0  0.00000000000E+00 -0.00000000000E+00 -0.21071121725E+03  0.21071121725E+03  0.00000000000E+00 0. -1.
         25    2    1    2    0    0 -0.12042929515E+03  0.18353711904E+03 -0.46815713451E+02  0.25695929057E+03  0.12508907543E+03 0.  0.
          5    1    3    3  502    0 -0.99030368201E+02  0.19766358377E+03 -0.58109610990E+02  0.22863093725E+03  0.41800000000E+01 0. -1.
         -5    1    3    3    0  502 -0.21398926945E+02 -0.14126464738E+02  0.11293897539E+02  0.28328353324E+02  0.41800000000E+01 0. -1.
        -11    1    1    2    0    0  0.24630536215E+02 -0.12066940678E+03  0.94480505819E+02  0.15522350024E+03  0.00000000000E+00 0.  1.
         11    1    1    2    0    0  0.95798758932E+02 -0.62867712258E+02  0.86914459548E+02  0.14381889561E+03  0.00000000000E+00 0. -1.
</event>
<event>
 7    1  0.3056346E-009  0.1386021E+03  0.7561462E-02  0.1215222E+00
         -1   -1    0    0    0  501 -0.00000000000E+00  0.00000000000E+00  0.14681411714E+03  0.14681411714E+03  0.00000000000E+00 0.  1.
          1   -1    0    0  501    0  0.00000000000E+00 -0.00000000000E+00 -0.20912490218E+03  0.20912490218E+03  0.00000000000E+00 0. -1.
         25    2    1    2    0    0 -0.95129044693E+02  0.37267587394E+02 -0.12224012784E+03  0.20255658787E+03  0.12509242271E+03 0.  0.
          5    1    3    3  502    0 -0.10082582471E+03  0.56413192127E+02 -0.13557752015E+03  0.17817696693E+03  0.41800000000E+01 0.  1.
         -5    1    3    3    0  502  0.56967800214E+01 -0.19145604733E+02  0.13337392312E+02  0.24379620934E+02  0.41800000000E+01 0.  1.
        -11    1    1    2    0    0  0.75427155446E+01 -0.51848397123E+02  0.21666262742E+02  0.56697229061E+02  0.00000000000E+00 0.  1.
         11    1    1    2    0    0  0.87586329148E+02  0.14580809730E+02  0.38263080062E+02  0.96685202393E+02  0.00000000000E+00 0. -1.
</event>
<event>
 7    1  0.3056346E-009  0.7832329E+02  0.7561462E-02  0.1333878E+00
          1   -1    0    0  501    0  0.00000000000E+00  0.00000000000E+00  0.65808000301E+03  0.65808000301E+03  0.00000000000E+00 0. -1.
         -1   -1    0    0    0  501 -0.00000000000E+00 -0.00000000000E+00 -0.20696824621E+02  0.20696824621E+02  0.00000000000E+00 0.  1.
         25    2    1    2    0    0 -0.19329701488E+02 -0.39390381085E+02  0.41846717770E+03  0.43896283980E+03  0.12509339083E+03 0.  0.
          5    1    3    3  502    0 -0.20643677986E+02 -0.57657051294E+02  0.41542218650E+03  0.41993280706E+03  0.41800000000E+01 0.  1.
         -5    1    3    3    0  502  0.13139764979E+01  0.18266670209E+02  0.30449911999E+01  0.19030032742E+02  0.41800000000E+01 0.  1.
        -11    1    1    2    0    0  0.33136492894E+02 -0.16498214954E+01  0.17508826504E+03  0.17820395514E+03  0.00000000000E+00 0. -1.
         11    1    1    2    0    0 -0.13806791405E+02  0.41040202581E+02  0.43827735650E+02  0.61610032697E+02  0.00000000000E+00 0.  1.
</event>
<event>
 7    1  0.3252556E-009  0.1269377E+03  0.7561462E-02  0.1232072E+00
         -2   -1    0    0    0  501 -0.00000000000E+00  0.00000000000E+00  0.14885197849E+03  0.14885197849E+03  0.00000000000E+00 0.  1.
          2   -1    0    0  501    0  0.00000000000E+00 -0.00000000000E+00 -0.20945658720E+03  0.20945658720E+03  0.00000000000E+00 0. -1.
         25    2    1    2    0    0 -0.73536166368E+01 -0.95056416096E+02 -0.13440341156E+03  0.20688286484E+03  0.12508574982E+03 0.  0.
          5    1    3    3  502    0 -0.47795895094E+02 -0.90256393786E+01 -0.88867096913E+02  0.10139399917E+03  0.41800000000E+01 0. -1.
         -5    1    3    3    0  502  0.40442278458E+02 -0.86030776717E+02 -0.45536314642E+02  0.10548886567E+03  0.41800000000E+01 0. -1.
        -11    1    1    2    0    0  0.28314661199E+02  0.77662432349E+02  0.87976339063E+02  0.12071872130E+03  0.00000000000E+00 0.  1.
         11    1    1    2    0    0 -0.20961044563E+02  0.17393983746E+02 -0.14177536218E+02  0.30706979548E+02  0.00000000000E+00 0. -1.
</event>
<event>
 7    1  0.3056346E-009  0.2156293E+03  0.7561462E-02  0.1137184E+00
          2   -1    0    0  501    0  0.00000000000E+00  0.00000000000E+00  0.25447370127E+04  0.25447370127E+04  0.00000000000E+00 0.  1.
         -2   -1    0    0    0  501 -0.00000000000E+00 -0.00000000000E+00 -0.21880786953E+02  0.21880786953E+02  0.00000000000E+00 0. -1.
         25    2    1    2    0    0  0.14021588761E+02  0.20686165529E+03  0.14069936840E+04  0.14276794273E+04  0.12509584733E+03 0.  0.
          5    1    3    3  502    0 -0.31565177823E+01  0.16360167426E+02  0.15633670358E+02  0.23227198099E+02  0.41800000000E+01 0. -1.
         -5    1    3    3    0  502  0.17178106544E+02  0.19050148786E+03  0.13913600136E+04  0.14044522292E+04  0.41800000000E+01 0. -1.
        -11    1    1    2    0    0 -0.42542294648E+01 -0.21178122226E+03  0.10958296859E+04  0.11161147276E+04  0.00000000000E+00 0.  1.
         11    1    1    2    0    0 -0.97673592966E+01  0.49195669734E+01  0.20032855809E+02  0.22823644728E+02  0.00000000000E+00 0. -1.
</event>
<event>
 7    1  0.3056346E-009  0.1213746E+03  0.7561462E-02  0.1240846E+00
         -1   -1    0    0    0  501 -0.00000000000E+00  0.00000000000E+00  0.38198691995E+02  0.38198691995E+02  0.00000000000E+00 0.  1.
          1   -1    0    0  501    0  0.00000000000E+00 -0.00000000000E+00 -0.55939416563E+03  0.55939416563E+03  0.00000000000E+00 0. -1.
         25    2    1    2    0    0 -0.78059429956E+02  0.42942320498E+02 -0.34685788717E+03  0.37933565228E+03  0.12509126950E+03 0.  0.
          5    1    3    3  502    0 -0.23107986904E+01  0.72120649831E+02 -0.16067930081E+03  0.17618750816E+03  0.41800000000E+01 0.  1.
         -5    1    3    3    0  502 -0.75748631266E+02 -0.29178329333E+02 -0.18617858637E+03  0.20314814413E+03  0.41800000000E+01 0.  1.
        -11    1    1    2    0    0  0.37391826382E+02 -0.22947603915E+02 -0.16660566972E+03  0.17228520073E+03  0.00000000000E+00 0. -1.
         11    1    1    2    0    0  0.40667603574E+02 -0.19994716583E+02 -0.77319167396E+01  0.45972004613E+02  0.00000000000E+00 0.  1.
</event>
<event>
 7    1  0.3056346E-009  0.1346007E+03  0.7561462E-02  0.1220784E+00
         -1   -1    0    0    0  501 -0.00000000000E+00  0.00000000000E+00  0.71081934562E+03  0.71081934562E+03  0.00000000000E+00 0.  1.
          1   -1    0    0  501    0  0.00000000000E+00 -0.00000000000E+00 -0.36730870142E+02  0.36730870142E+02  0.00000000000E+00 0. -1.
         25    2    1    2    0    0 -0.82971973607E+02 -0.79988347520E+02  0.28585807722E+03  0.33263735879E+03  0.12510111114E+03 0.  0.
          5    1    3    3  502    0 -0.51769504551E+01 -0.72385843411E+02  0.21534775571E+03  0.22728537003E+03  0.41800000000E+01 0. -1.
         -5    1    3    3    0  502 -0.77795023152E+02 -0.76025041089E+01  0.70510321510E+02  0.10535198876E+03  0.41800000000E+01 0. -1.
        -11    1    1    2    0    0  0.59992480321E+02  0.39975843367E+02  0.34229524379E+03  0.34980451637E+03  0.00000000000E+00 0.  1.
         11    1    1    2    0    0  0.22979493286E+02  0.40012504153E+02  0.45935154472E+02  0.65108340607E+02  0.00000000000E+00 0. -1.
</event>
<event>
 7    1  0.3056346E-009  0.1609472E+03  0.7561462E-02  0.1187632E+00
         -2   -1    0    0    0  501 -0.00000000000E+00  0.00000000000E+00  0.82416653369E+02  0.82416653369E+02  0.00000000000E+00 0.  1.
          2   -1    0    0  501    0  0.00000000000E+00 -0.00000000000E+00 -0.47118989226E+03  0.47118989226E+03  0.00000000000E+00 0. -1.
         25    2    1    2    0    0  0.10260110882E+03  0.10194022408E+03 -0.30422949330E+03  0.35933404673E+03  0.12508627314E+03 0.  0.
          5    1    3    3  502    0  0.31301378582E+02  0.53950380867E+02 -0.25308663503E+02  0.67441980585E+02  0.41800000000E+01 0. -1.
         -5    1    3    3    0  502  0.71299730236E+02  0.47989843213E+02 -0.27892082980E+03  0.29189206614E+03  0.41800000000E+01 0. -1.
        -11    1    1    2    0    0 -0.92394314461E+01 -0.75828596210E+02 -0.24420727040E+02  0.80197973826E+02  0.00000000000E+00 0.  1.
         11    1    1    2    0    0 -0.93361677372E+02 -0.26111627870E+02 -0.60123018555E+02  0.11407452508E+03  0.00000000000E+00 0. -1.
</event>
<event>
 7    1  0.3056346E-009  0.1665213E+03  0.7561462E-02  0.1181525E+00
         -1   -1    0    0    0  501 -0.00000000000E+00  0.00000000000E+00  0.95282804034E+02  0.95282804034E+02  0.00000000000E+00 0.  1.
          1   -1    0    0  501    0  0.00000000000E+00 -0.00000000000E+00 -0.34522677256E+03  0.34522677256E+03  0.00000000000E+00 0. -1.
         25    2    1    2    0    0  0.11890218748E+03 -0.73746973077E+02 -0.92228158787E+02  0.20912060003E+03  0.12509614646E+03 0.  0.
          5    1    3    3  502    0  0.12728750343E+03 -0.33589259819E+02 -0.31014932937E+02  0.13531350771E+03  0.41800000000E+01 0.  1.
         -5    1    3    3    0  502 -0.83853159468E+01 -0.40157713258E+02 -0.61213225850E+02  0.73807092319E+02  0.41800000000E+01 0.  1.
        -11    1    1    2    0    0 -0.15710658128E+02 -0.16662115783E+02 -0.74466860410E+00  0.22912996585E+02  0.00000000000E+00 0.  1.
         11    1    1    2    0    0 -0.10319152935E+03  0.90409088860E+02 -0.15697114113E+03  0.20847597998E+03  0.00000000000E+00 0. -1.
</event>
<event>
 7    1  0.3056346E-009  0.8628722E+02  0.7561462E-02  0.1312100E+00
         -1   -1    0    0    0  501 -0.00000000000E+00  0.00000000000E+00  0.23540848077E+03  0.23540848077E+03  0.00000000000E+00 0.  1.
          1   -1    0    0  501    0  0.00000000000E+00 -0.00000000000E+00 -0.60408989043E+02  0.60408989043E+02  0.00000000000E+00 0. -1.
         25    2    1    2    0    0 -0.43642256335E+02  0.14932444106E+02  0.82285501905E+02  0.15667160721E+03  0.12508982476E+03 0.  0.
          5    1    3    3  502    0  0.13765124392E+02  0.23892116006E+02  0.93306898817E+02  0.97385633559E+02  0.41800000000E+01 0.  1.
         -5    1    3    3    0  502 -0.57407380727E+02 -0.89596719007E+01 -0.11021396912E+02  0.59285973656E+02  0.41800000000E+01 0.  1.
        -11    1    1    2    0    0  0.49663689400E+02 -0.38037311547E+02  0.25037505480E+02  0.67380975024E+02  0.00000000000E+00 0. -1.
         11    1    1    2    0    0 -0.60214330651E+01  0.23104867441E+02  0.67676484343E+02  0.71764887575E+02  0.00000000000E+00 0.  1.
</event>
<event>
 7    1  0.3056346E-009  0.2100717E+03  0.7561462E-02  0.1141509E+00
         -2   -1    0    0    0  501 -0.00000000000E+00  0.00000000000E+00  0.13177879700E+03  0.13177879700E+03  0.00000000000E+00 0.  1.
          2   -1    0    0  501    0  0.00000000000E+00 -0.00000000000E+00 -0.42275560359E+03  0.42275560359E+03  0.00000000000E+00 0. -1.
         25    2    1    2    0    0 -0.15494017052E+03 -0.13524853304E+03 -0.10794049680E+03  0.26381223448E+03  0.12508845704E+03 0.  0.
          5    1    3    3  502    0 -0.59205849820E+02 -0.81910490426E+02  0.11327781065E+02  0.10178630615E+03  0.41800000000E+01 0. -1.
         -5    1    3    3    0  502 -0.95734320697E+02 -0.53338042609E+02 -0.11926827787E+03  0.16202592834E+03  0.41800000000E+01 0. -1.
        -11    1    1    2    0    0  0.67633731461E+02  0.34234277516E+02 -0.17043869853E+02  0.77696852497E+02  0.00000000000E+00 0.  1.
         11    1    1    2    0    0  0.87306439057E+02  0.10101425552E+03 -0.16599243994E+03  0.21302531360E+03  0.00000000000E+00 0. -1.
</event>
<event>
 7    1  0.3056346E-009  0.9018112E+02  0.7561462E-02  0.1302414E+00
          1   -1    0    0  501    0  0.00000000000E+00  0.00000000000E+00  0.43111412622E+02  0.43111412622E+02  0.00000000000E+00 0. -1.
         -1   -1    0    0    0  501 -0.00000000000E+00 -0.00000000000E+00 -0.36782787965E+03  0.36782787965E+03  0.00000000000E+00 0.  1.
         25    2    1    2    0    0 -0.10547848852E+02 -0.85018261861E+01 -0.28422637396E+03  0.31083449694E+03  0.12509961898E+03 0.  0.
          5    1    3    3  502    0 -0.25622163161E+02 -0.58968260774E+02 -0.98194909101E+02  0.11744557717E+03  0.41800000000E+01 0.  1.
         -5    1    3    3    0  502  0.15074314309E+02  0.50466434588E+02 -0.18603146486E+03  0.19338891977E+03  0.41800000000E+01 0.  1.
        -11    1    1    2    0    0 -0.39845608952E+01 -0.25662630819E+02 -0.54540791608E+02  0.60408155868E+02  0.00000000000E+00 0.  1.
         11    1    1    2    0    0  0.14532409747E+02  0.34164457005E+02  0.14050698537E+02  0.39696639466E+02  0.00000000000E+00 0. -1.
</event>
<event>
 7    1  0.3056346E-009  0.1149742E+03  0.7561462E-02  0.1251626E+00
         -1   -1    0    0    0  501 -0.00000000000E+00  0.00000000000E+00  0.23279951893E+03  0.23279951893E+03  0.00000000000E+00 0.  1.
          1   -1    0    0  501    0  0.00000000000E+00 -0.00000000000E+00 -0.71617917793E+02  0.71617917793E+02  0.00000000000E+00 0. -1.
         25    2    1    2    0    0  0.27126588187E+02 -0.60740916454E+02  0.61703969448E+02  0.15452560235E+03  0.12508185806E+03 0.  0.
          5    1    3    3  502    0 -0.25280744262E+02  0.27629520540E+02  0.80121501662E+01  0.38524970941E+02  0.41800000000E+01 0. -1.
         -5    1    3    3    0  502  0.52407332449E+02 -0.88370436994E+02  0.53691819282E+02  0.11600063141E+03  0.41800000000E+01 0. -1.
        -11    1    1    2    0    0 -0.40858786081E+02  0.18185815700E+02  0.45430438883E+01  0.44953348489E+02  0.00000000000E+00 0. -1.
         11    1    1    2    0    0  0.13732197894E+02  0.42555100755E+02  0.94934587805E+02  0.10493848589E+03  0.00000000000E+00 0.  1.
</event>
<event>
 7    1  0.3056346E-009  0.1018284E+03  0.7561462E-02  0.1276497E+00
         -4   -1    0    0    0  501 -0.00000000000E+00  0.00000000000E+00  0.77249987828E+02  0.77249987828E+02  0.00000000000E+00 0. -1.
          4   -1    0    0  501    0  0.00000000000E+00 -0.00000000000E+00 -0.43049590830E+03  0.43049590830E+03  0.00000000000E+00 0.  1.
         25    2    1    2    0    0  0.68208613361E+02  0.38854967607E+02 -0.35557859589E+03  0.38502756065E+03  0.12509181091E+03 0.  0.
          5    1    3    3  502    0  0.31335968051E+02 -0.15603712734E+02 -0.15308687880E+02  0.38434971958E+02  0.41800000000E+01 0.  1.
         -5    1    3    3    0  502  0.36872645310E+02  0.54458680341E+02 -0.34026990801E+03  0.34659258869E+03  0.41800000000E+01 0.  1.
        -11    1    1    2    0    0 -0.80468152052E+02 -0.25588812667E+02  0.30056838907E+02  0.89628814527E+02  0.00000000000E+00 0.  1.
         11    1    1    2    0    0  0.12259538691E+02 -0.13266154940E+02 -0.27724163483E+02  0.33089520949E+02  0.00000000000E+00 0. -1.
</event>
<event>
 7    1  0.3056346E-009  0.1506989E+03  0.7561462E-02  0.1199617E+00
         -1   -1    0    0    0  501 -0.00000000000E+00  0.00000000000E+00  0.16016332033E+03  0.16016332033E+03  0.00000000000E+00 0.  1.
          1   -1    0    0  501    0  0.00000000000E+00 -0.00000000000E+00 -0.16309665306E+03  0.16309665306E+03  0.00000000000E+00 0. -1.
         25    2    1    2    0    0 -0.10698742182E+02 -0.11510553370E+03 -0.32397661567E+02  0.17337801010E+03  0.12508628598E+03 0.  0.
          5    1    3    3  502    0  0.96185622382E+01 -0.13659823936E+03 -0.39684777446E+02  0.14263221830E+03  0.41800000000E+01 0. -1.
         -5    1    3    3    0  502 -0.20317304420E+02  0.21492705663E+02  0.72871158790E+01  0.30745791801E+02  0.41800000000E+01 0. -1.
        -11    1    1    2    0    0  0.17634761150E+02 -0.15163748589E+01  0.27903261369E+02  0.33043549878E+02  0.00000000000E+00 0.  1.
         11    1    1    2    0    0 -0.69360189684E+01  0.11662190856E+03  0.15610674662E+01  0.11683841340E+03  0.00000000000E+00 0. -1.
</event>
<event>
 7    1  0.3056346E-009  0.1443351E+03  0.7561462E-02  0.1207612E+00
          1   -1    0    0  501    0  0.00000000000E+00  0.00000000000E+00  0.20939621404E+03  0.20939621404E+03  0.00000000000E+00 0. -1.
         -1   -1    0    0    0  501 -0.00000000000E+00 -0.00000000000E+00 -0.13794723114E+03  0.13794723114E+03  0.00000000000E+00 0.  1.
         25    2    1    2    0    0  0.89580339166E+02  0.86942930327E+02  0.85907583370E+02  0.19649694528E+03  0.12508887371E+03 0.  0.
          5    1    3    3  502    0 -0.22137348788E+02  0.30956710775E+02  0.56171235891E+02  0.67978381085E+02  0.41800000000E+01 0.  1.
         -5    1    3    3    0  502  0.11171768795E+03  0.55986219552E+02  0.29736347479E+02  0.12851856420E+03  0.41800000000E+01 0.  1.
        -11    1    1    2    0    0 -0.60463851067E+02 -0.65852027479E+02 -0.48178216833E+02  0.10155543996E+03  0.00000000000E+00 0.  1.
         11    1    1    2    0    0 -0.29116488099E+02 -0.21090902848E+02  0.33719616360E+02  0.49291059937E+02  0.00000000000E+00 0. -1.
</event>
<event>
 7    1  0.3056346E-009  0.2723310E+03  0.7561462E-02  0.1099953E+00
          2   -1    0    0  501    0  0.00000000000E+00  0.00000000000E+00  0.54263097728E+03  0.54263097728E+03  0.00000000000E+00 0. -1.
         -2   -1    0    0    0  501 -0.00000000000E+00 -0.00000000000E+00 -0.15560798884E+03  0.15560798884E+03  0.00000000000E+00 0.  1.
         25    2    1    2    0    0 -0.21167567645E+03  0.14459018280E+03  0.98417082123E+02  0.30173824820E+03  0.12508851031E+03 0.  0.
          5    1    3    3  502    0 -0.17920282832E+03  0.53868785868E+02  0.49561100805E+02  0.19362147320E+03  0.41800000000E+01 0.  1.
         -5    1    3    3    0  502 -0.32472848129E+02  0.90721396933E+02  0.48855981318E+02  0.10811677501E+03  0.41800000000E+01 0.  1.
        -11    1    1    2    0    0  0.16026340115E+03 -0.81934826846E+02  0.24634394645E+03  0.30509508936E+03  0.00000000000E+00 0.  1.
         11    1    1    2    0    0  0.51412275296E+02 -0.62655355955E+02  0.42261959864E+02  0.91405628560E+02  0.00000000000E+00 0. -1.
</event>
<event>
 7    1  0.3056346E-009  0.1077432E+03  0.7561462E-02  0.1264807E+00
         -2   -1    0    0    0  501 -0.00000000000E+00  0.00000000000E+00  0.44428740232E+02  0.44428740232E+02  0.00000000000E+00 0.  1.
          2   -1    0    0  501    0  0.00000000000E+00 -0.00000000000E+00 -0.11603952353E+04  0.11603952353E+04  0.00000000000E+00 0. -1.
         25    2    1    2    0    0 -0.77661770167E+02 -0.42658068936E+02 -0.10492606621E+04  0.10603992293E+04  0.12509007578E+03 0.  0.
          5    1    3    3  502    0 -0.78716921657E+02 -0.65898885154E+02 -0.10048570792E+04  0.10100961533E+04  0.41800000000E+01 0.  1.
         -5    1    3    3    0  502  0.10551514907E+01  0.23240816219E+02 -0.44403582879E+02  0.50303076006E+02  0.41800000000E+01 0.  1.
        -11    1    1    2    0    0  0.10465561720E+02  0.96633312198E+01  0.23328940157E+02  0.27333997169E+02  0.00000000000E+00 0.  1.
         11    1    1    2    0    0  0.67196208446E+02  0.32994737716E+02 -0.90034773121E+02  0.11709074907E+03  0.00000000000E+00 0. -1.
</event>
<event>
 7    1  0.3056346E-009  0.6212368E+02  0.7561462E-02  0.1389130E+00
          1   -1    0    0  501    0  0.00000000000E+00  0.00000000000E+00  0.63853213035E+03  0.63853213035E+03  0.00000000000E+00 0. -1.
         -1   -1    0    0    0  501 -0.00000000000E+00 -0.00000000000E+00 -0.30661102592E+02  0.30661102592E+02  0.00000000000E+00 0.  1.
         25    2    1    2    0    0  0.33091378315E+02 -0.50303810226E+02  0.43708673563E+03  0.45860702229E+03  0.12510025495E+03 0.  0.
          5    1    3    3  502    0  0.18588100568E+02 -0.30386983115E+02  0.20579203904E+02  0.41350480757E+02  0.41800000000E+01 0. -1.
         -5    1    3    3    0  502  0.14503277747E+02 -0.19916827111E+02  0.41650753172E+03  0.41725654153E+03  0.41800000000E+01 0. -1.
        -11    1    1    2    0    0 -0.28187188239E+02  0.25188197916E+02  0.17958869683E+03  0.18352401185E+03  0.00000000000E+00 0. -1.
         11    1    1    2    0    0 -0.49041900756E+01  0.25115612309E+02 -0.88044047025E+01  0.27062198805E+02  0.00000000000E+00 0.  1.
</event>
<event>
 7    1  0.3056346E-009  0.1182673E+03  0.7561462E-02  0.1245983E+00
          1   -1    0    0  501    0  0.00000000000E+00  0.00000000000E+00  0.65085193622E+03  0.65085193622E+03  0.00000000000E+00 0. -1.
         -1   -1    0    0    0  501 -0.00000000000E+00 -0.00000000000E+00 -0.26179178232E+02  0.26179178232E+02  0.00000000000E+00 0.  1.
         25    2    1    2    0    0 -0.64301370598E+02  0.15060187001E+02  0.43264342162E+03  0.45518350255E+03  0.12510082026E+03 0.  0.
          5    1    3    3  502    0 -0.50314848517E+02 -0.44327968199E+02  0.12905344231E+03  0.14549507249E+03  0.41800000000E+01 0.  1.
         -5    1    3    3    0  502 -0.13986522080E+02  0.59388155200E+02  0.30358997931E+03  0.30968843006E+03  0.41800000000E+01 0.  1.
        -11    1    1    2    0    0  0.82495293570E+02 -0.26563759456E+02  0.13045643933E+03  0.15662052656E+03  0.00000000000E+00 0.  1.
         11    1    1    2    0    0 -0.18193922972E+02  0.11503572455E+02  0.61572897045E+02  0.65227085347E+02  0.00000000000E+00 0. -1.
</event>
<event>
 7    1  0.3056346E-009  0.9391674E+02  0.7561462E-02  0.1293635E+00
          1   -1    0    0  501    0  0.00000000000E+00  0.00000000000E+00  0.12586184256E+03  0.12586184256E+03  0.00000000000E+00 0. -1.
         -1   -1    0    0    0  501 -0.00000000000E+00 -0.00000000000E+00 -0.98788030011E+02  0.98788030011E+02  0.00000000000E+00 0.  1.
         25    2    1    2    0    0  0.93149748417E+01  0.35598048018E+01  0.38463714567E+02  0.13124076248E+03  0.12508093153E+03 0.  0.
          5    1    3    3  502    0 -0.33112924031E+02  0.31054208371E+02  0.60648552225E+02  0.75871924204E+02  0.41800000000E+01 0.  1.
         -5    1    3    3    0  502  0.42427898872E+02 -0.27494403569E+02 -0.22184837658E+02  0.55368838278E+02  0.41800000000E+01 0.  1.
        -11    1    1    2    0    0 -0.12073804996E+02  0.43107389849E+02  0.19046126943E+01  0.44806822875E+02  0.00000000000E+00 0.  1.
         11    1    1    2    0    0  0.27588301540E+01 -0.46667194651E+02 -0.13294514717E+02  0.48602287209E+02  0.00000000000E+00 0. -1.
</event>
<event>
 7    1  0.3056346E-009  0.9868464E+02  0.7561462E-02  0.1283087E+00
         -2   -1    0    0    0  501 -0.00000000000E+00  0.00000000000E+00  0.34245471957E+02  0.34245471957E+02  0.00000000000E+00 0.  1.
          2   -1    0    0  501    0  0.00000000000E+00 -0.00000000000E+00 -0.44034537447E+03  0.44034537447E+03  0.00000000000E+00 0. -1.
         25    2    1    2    0    0  0.90897014469E+01 -0.49445931209E+02 -0.28392509567E+03  0.31431030242E+03  0.12509989398E+03 0.  0.
          5    1    3    3  502    0 -0.46325897976E+02 -0.99439377041E+01 -0.20296809151E+03  0.20846699809E+03  0.41800000000E+01 0.  1.
         -5    1    3    3    0  502  0.55415599423E+02 -0.39501993505E+02 -0.80957004159E+02  0.10584330434E+03  0.41800000000E+01 0.  1.
        -11    1    1    2    0    0  0.60680042151E+01  0.61781900601E+02 -0.35673489403E+02  0.71599034652E+02  0.00000000000E+00 0.  1.
         11    1    1    2    0    0 -0.15157705662E+02 -0.12335969391E+02 -0.86501317441E+02  0.88681509351E+02  0.00000000000E+00 0. -1.
</event>
<event>
 7    1  0.3056346E-009  0.7180760E+02  0.7561462E-02  0.1354052E+00
         -1   -1    0    0    0  501 -0.00000000000E+00  0.00000000000E+00  0.29780996066E+02  0.29780996066E+02  0.00000000000E+00 0.  1.
          1   -1    0    0  501    0  0.00000000000E+00 -0.00000000000E+00 -0.82409147678E+03  0.82409147678E+03  0.00000000000E+00 0. -1.
         25    2    1    2    0    0 -0.42206908487E+02 -0.19686604046E+02 -0.70208310756E+03  0.71465873743E+03  0.12508971004E+03 0.  0.
          5    1    3    3  502    0 -0.34364851992E+02  0.62774221414E+00 -0.43019091780E+02  0.55221841425E+02  0.41800000000E+01 0. -1.
         -5    1    3    3    0  502 -0.78420564947E+01 -0.20314346260E+02 -0.65906401578E+03  0.65943689600E+03  0.41800000000E+01 0. -1.
        -11    1    1    2    0    0  0.53088320697E+02 -0.11038091199E+02 -0.16355310951E+02  0.56636608727E+02  0.00000000000E+00 0.  1.
         11    1    1    2    0    0 -0.10881412210E+02  0.30724695245E+02 -0.75872062203E+02  0.82577126690E+02  0.00000000000E+00 0. -1.
</event>
<event>
 7    1  0.3056346E-009  0.9371987E+02  0.7561462E-02  0.1294086E+00
         -2   -1    0    0    0  501 -0.00000000000E+00  0.00000000000E+00  0.24099815071E+02  0.24099815071E+02  0.00000000000E+00 0.  1.
          2   -1    0    0  501    0  0.00000000000E+00 -0.00000000000E+00 -0.51231867307E+03  0.51231867307E+03  0.00000000000E+00 0. -1.
         25    2    1    2    0    0 -0.25886187404E+02 -0.27107558978E+01 -0.25597809591E+03  0.28609291785E+03  0.12508768590E+03 0.  0.
          5    1    3    3  502    0 -0.16584623573E+02  0.45816160219E+02 -0.36343334994E+02  0.60930129450E+02  0.41800000000E+01 0.  1.
         -5    1    3    3    0  502 -0.93015638302E+01 -0.48526916117E+02 -0.21963476092E+03  0.22516278840E+03  0.41800000000E+01 0.  1.
        -11    1    1    2    0    0 -0.31443644107E+02  0.32938487214E+01 -0.48906201681E+02  0.58235459619E+02  0.00000000000E+00 0.  1.
         11    1    1    2    0    0  0.57329831511E+02 -0.58309282363E+00 -0.18333456041E+03  0.19209011067E+03  0.00000000000E+00 0. -1.
</event>
<event>
 7    1  0.3056346E-009  0.2234992E+03  0.7561462E-02  0.1131301E+00
         -2   -1    0    0    0  501 -0.00000000000E+00  0.00000000000E+00  0.46787975478E+02  0.46787975478E+02  0.00000000000E+00 0.  1.
          2   -1    0    0  501    0  0.00000000000E+00 -0.00000000000E+00 -0.11779327384E+04  0.11779327384E+04  0.00000000000E+00 0. -1.
         25    2    1    2    0    0  0.56673858874E+02  0.19863175713E+03 -0.52725918547E+03  0.57992739124E+03  0.12508808587E+03 0.  0.
          5    1    3    3  502    0  0.10175196725E+02  0.16663820104E+03 -0.47262881391E+03  0.50126569084E+03  0.41800000000E+01 0. -1.
         -5    1    3    3    0  502  0.46498662149E+02  0.31993556090E+02 -0.54630371561E+02  0.78661700400E+02  0.41800000000E+01 0. -1.
        -11    1    1    2    0    0 -0.63007573749E+02 -0.68332765463E+02 -0.20424362978E+03  0.22439871098E+03  0.00000000000E+00 0.  1.
         11    1    1    2    0    0  0.63337148755E+01 -0.13029899166E+03 -0.39964194768E+03  0.42039461167E+03  0.00000000000E+00 0. -1.
</event>
<event>
 7    1  0.3056346E-009  0.1583599E+03  0.7561462E-02  0.1190561E+00
          2   -1    0    0  501    0  0.00000000000E+00  0.00000000000E+00  0.66254851525E+03  0.66254851525E+03  0.00000000000E+00 0. -1.
         -2   -1    0    0    0  501 -0.00000000000E+00 -0.00000000000E+00 -0.49477251132E+02  0.49477251132E+02  0.00000000000E+00 0.  1.
         25    2    1    2    0    0 -0.14033252471E+03 -0.36665771792E+02  0.33587690432E+03  0.38664953818E+03  0.12508786595E+03 0.  0.
          5    1    3    3  502    0 -0.95652169572E+02 -0.10306282873E+02  0.31697379337E+03  0.33127845553E+03  0.41800000000E+01 0. -1.
         -5    1    3    3    0  502 -0.44680355135E+02 -0.26359488918E+02  0.18903110950E+02  0.55371082657E+02  0.41800000000E+01 0. -1.
        -11    1    1    2    0    0  0.25442449293E+02  0.46565506655E+02  0.11176223840E+03  0.12371928940E+03  0.00000000000E+00 0. -1.
         11    1    1    2    0    0  0.11489007541E+03 -0.98997348633E+01  0.16543212139E+03  0.20165693880E+03  0.00000000000E+00 0.  1.
</event>
<event>
 7    1  0.3056346E-009  0.8099581E+02  0.7561462E-02  0.1326249E+00
          2   -1    0    0  501    0  0.00000000000E+00  0.00000000000E+00  0.18329368919E+03  0.18329368919E+03  0.00000000000E+00 0. -1.
         -2   -1    0    0    0  501 -0.00000000000E+00 -0.00000000000E+00 -0.65962011243E+02  0.65962011243E+02  0.00000000000E+00 0.  1.
         25    2    1    2    0    0 -0.16498972612E+01 -0.97113081863E+01  0.87294528318E+02  0.15285278521E+03  0.12508640056E+03 0.  0.
          5    1    3    3  502    0  0.54637131621E+02 -0.33351642606E+02  0.48182863236E+02  0.80228479519E+02  0.41800000000E+01 0.  1.
         -5    1    3    3    0  502 -0.56287028882E+02  0.23640334419E+02  0.39111665082E+02  0.72624305693E+02  0.41800000000E+01 0.  1.
        -11    1    1    2    0    0 -0.13134930726E+02 -0.65458508855E+01 -0.29495118020E+02  0.32944446512E+02  0.00000000000E+00 0.  1.
         11    1    1    2    0    0  0.14784827987E+02  0.16257159072E+02  0.59532267647E+02  0.63458468709E+02  0.00000000000E+00 0. -1.
</event>
<event>
 7    1  0.3343266E-009  0.5639374E+02  0.7561462E-02  0.1413620E+00
          1   -1    0    0  501    0  0.00000000000E+00  0.00000000000E+00  0.48873820642E+03  0.48873820642E+03  0.00000000000E+00 0. -1.
         -1   -1    0    0    0  501 -0.00000000000E+00 -0.00000000000E+00 -0.30513932958E+02  0.30513932958E+02  0.00000000000E+00 0.  1.
         25    2    1    2    0    0  0.24563694716E+02  0.45355544724E+02  0.30087727718E+03  0.32990160724E+03  0.12508970381E+03 0.  0.
          5    1    3    3  502    0  0.14301727526E+02  0.33890211214E+02  0.96766931177E+01  0.38264822174E+02  0.41800000000E+01 0.  1.
         -5    1    3    3    0  502  0.10261967190E+02  0.11465333511E+02  0.29120058406E+03  0.29163678506E+03  0.41800000000E+01 0.  1.
        -11    1    1    2    0    0 -0.28794783300E+02 -0.22405448856E+02  0.16156693998E+03  0.16563520091E+03  0.00000000000E+00 0. -1.
         11    1    1    2    0    0  0.42310885848E+01 -0.22950095869E+02 -0.42199436972E+01  0.23715331239E+02  0.00000000000E+00 0.  1.
</event>
<event>
 7    1  0.3056346E-009  0.1105196E+03  0.7561462E-02  0.1259611E+00
         -2   -1    0    0    0  501 -0.00000000000E+00  0.00000000000E+00  0.10748848682E+03  0.10748848682E+03  0.00000000000E+00 0.  1.
          2   -1    0    0  501    0  0.00000000000E+00 -0.00000000000E+00 -0.19134565947E+03  0.19134565947E+03  0.00000000000E+00 0. -1.
         25    2    1    2    0    0 -0.57805525613E+02 -0.97337438180E+01 -0.12414827745E+03  0.18573383142E+03  0.12509211319E+03 0.  0.
          5    1    3    3  502    0 -0.92612547549E+02  0.15780029079E+02 -0.93697002114E+02  0.13275049486E+03  0.41800000000E+01 0.  1.
         -5    1    3    3    0  502  0.34807021937E+02 -0.25513772897E+02 -0.30451275332E+02  0.52983336559E+02  0.41800000000E+01 0.  1.
        -11    1    1    2    0    0  0.45133387143E+02 -0.21456750278E+02  0.56757294581E+02  0.75622782650E+02  0.00000000000E+00 0.  1.
         11    1    1    2    0    0  0.12672138470E+02  0.31190494096E+02 -0.16466189782E+02  0.37477532219E+02  0.00000000000E+00 0. -1.
</event>
<event>
 7    1  0.3056346E-009  0.1202123E+03  0.7561462E-02  0.1242747E+00
          1   -1    0    0  501    0  0.00000000000E+00  0.00000000000E+00  0.47218374277E+03  0.47218374277E+03  0.00000000000E+00 0. -1.
         -1   -1    0    0    0  501 -0.00000000000E+00 -0.00000000000E+00 -0.34056925491E+02  0.34056925491E+02  0.00000000000E+00 0.  1.
         25    2    1    2    0    0  0.41923004633E+02  0.46257044046E+02  0.19423863756E+03  0.23931965219E+03  0.12509194683E+03 0.  0.
          5    1    3    3  502    0  0.73587197294E+02 -0.73702619292E+01  0.79218473256E+02  0.10845476141E+03  0.41800000000E+01 0. -1.
         -5    1    3    3    0  502 -0.31664192660E+02  0.53627305975E+02  0.11502016431E+03  0.13086489079E+03  0.41800000000E+01 0. -1.
        -11    1    1    2    0    0 -0.30333311147E+02  0.20219152262E+02  0.51931581654E+02  0.63449295161E+02  0.00000000000E+00 0.  1.
         11    1    1    2    0    0 -0.11589693486E+02 -0.66476196307E+02  0.19195659806E+03  0.20347172091E+03  0.00000000000E+00 0. -1.
</event>
<event>
 7    1  0.3056346E-009  0.1473794E+03  0.7561462E-02  0.1203731E+00
         -2   -1    0    0    0  501 -0.00000000000E+00  0.00000000000E+00  0.12763229382E+03  0.12763229382E+03  0.00000000000E+00 0. -1.
          2   -1    0    0  501    0  0.00000000000E+00 -0.00000000000E+00 -0.39223965506E+03  0.39223965506E+03  0.00000000000E+00 0.  1.
         25    2    1    2    0    0  0.19073382250E+01  0.10458125210E+03  0.54459621185E+02  0.17191170914E+03  0.12508760598E+03 0.  0.
          5    1    3    3  502    0  0.34895813370E+02 -0.15372342664E+02  0.16660782879E+02  0.41822013293E+02  0.41800000000E+01 0.  1.
         -5    1    3    3    0  502 -0.32988475145E+02  0.11995359476E+03  0.37798838306E+02  0.13008969585E+03  0.41800000000E+01 0.  1.
        -11    1    1    2    0    0 -0.30399698895E+02 -0.82992854594E+01 -0.13133712946E+03  0.13506465639E+03  0.00000000000E+00 0.  1.
         11    1    1    2    0    0  0.28492360670E+02 -0.96281966639E+02 -0.18772985296E+03  0.21289558335E+03  0.00000000000E+00 0. -1.
</event>
<event>
 7    1  0.3056346E-009  0.1056962E+03  0.7561462E-02  0.1268754E+00
          2   -1    0    0  501    0  0.00000000000E+00  0.00000000000E+00  0.80193813443E+02  0.80193813443E+02  0.00000000000E+00 0. -1.
         -2   -1    0    0    0  501 -0.00000000000E+00 -0.00000000000E+00 -0.18176165529E+03  0.18176165529E+03  0.00000000000E+00 0.  1.
         25    2    1    2    0    0  0.12960517443E+02  0.50234138815E+02 -0.45474976386E+02  0.14285315558E+03  0.12509039478E+03 0.  0.
          5    1    3    3  502    0 -0.94501538910E+01  0.79512952787E+02  0.48482889617E+01  0.80328036048E+02  0.41800000000E+01 0.  1.
         -5    1    3    3    0  502  0.22410671334E+02 -0.29278813972E+02 -0.50323265348E+02  0.62525119532E+02  0.41800000000E+01 0.  1.
        -11    1    1    2    0    0  0.32089866011E+02 -0.97581832137E+01 -0.47180053787E+02  0.57887296669E+02  0.00000000000E+00 0.  1.
         11    1    1    2    0    0 -0.45050383454E+02 -0.40475955602E+02 -0.89128116719E+01  0.61215016484E+02  0.00000000000E+00 0. -1.
</event>
<event>
 7    1  0.3056346E-009  0.1177664E+03  0.7561462E-02  0.1246828E+00
          3   -1    0    0  501    0  0.00000000000E+00  0.00000000000E+00  0.84571217469E+02  0.84571217469E+02  0.00000000000E+00 0. -1.
         -3   -1    0    0    0  501 -0.00000000000E+00 -0.00000000000E+00 -0.25575350702E+03  0.25575350702E+03  0.00000000000E+00 0.  1.
         25    2    1    2    0    0 -0.52392652407E+02 -0.63805356532E+02 -0.15713709759E+03  0.21715602808E+03  0.12509420268E+03 0.  0.
          5    1    3    3  502    0  0.18609548078E+02 -0.72624349149E+02 -0.58271301896E+02  0.95045401749E+02  0.41800000000E+01 0.  1.
         -5    1    3    3    0  502 -0.71002200484E+02  0.88189926169E+01 -0.98865795694E+02  0.12211062633E+03  0.41800000000E+01 0.  1.
        -11    1    1    2    0    0  0.53670210483E+02  0.45316733826E+02  0.29237666663E+02  0.76085077445E+02  0.00000000000E+00 0. -1.
         11    1    1    2    0    0 -0.12775580760E+01  0.18488622706E+02 -0.43282858622E+02  0.47083618964E+02  0.00000000000E+00 0.  1.
</event>
<event>
 7    1  0.3056346E-009  0.1181715E+03  0.7561462E-02  0.1246144E+00
          1   -1    0    0  501    0  0.00000000000E+00  0.00000000000E+00  0.69880459991E+02  0.69880459991E+02  0.00000000000E+00 0. -1.
         -1   -1    0    0    0  501 -0.00000000000E+00 -0.00000000000E+00 -0.20687430487E+03  0.20687430487E+03  0.00000000000E+00 0.  1.
         25    2    1    2    0    0  0.21071459244E+02  0.41812633140E+02 -0.96493836158E+02  0.16477608963E+03  0.12509115321E+03 0.  0.
          5    1    3    3  502    0  0.67960577981E+02  0.49939213765E+02 -0.72617411530E+02  0.11137022083E+03  0.41800000000E+01 0. -1.
         -5    1    3    3    0  502 -0.46889118737E+02 -0.81265806255E+01 -0.23876424628E+02  0.53405868794E+02  0.41800000000E+01 0. -1.
        -11    1    1    2    0    0 -0.36618007704E+02 -0.65942673965E+02 -0.32861644806E+02  0.82275162943E+02  0.00000000000E+00 0.  1.
         11    1    1    2    0    0  0.15546548461E+02  0.24130040825E+02 -0.76383639172E+01  0.29703512294E+02  0.00000000000E+00 0. -1.
</event>
<event>
 7    1  0.3056346E-009  0.9055253E+02  0.7561462E-02  0.1301519E+00
          1   -1    0    0  501    0  0.00000000000E+00  0.00000000000E+00  0.81179273630E+03  0.81179273630E+03  0.00000000000E+00 0. -1.
         -1   -1    0    0    0  501 -0.00000000000E+00 -0.00000000000E+00 -0.23777320472E+02  0.23777320472E+02  0.00000000000E+00 0.  1.
         25    2    1    2    0    0  0.37227663174E+02 -0.28246248374E+02  0.65618996488E+03  0.66963955066E+03  0.12509239924E+03 0.  0.
          5    1    3    3  502    0  0.33601189575E+02 -0.56153237667E+02  0.62069876524E+03  0.62415275022E+03  0.41800000000E+01 0.  1.
         -5    1    3    3    0  502  0.36264735986E+01  0.27906989293E+02  0.35491199644E+02  0.45486800441E+02  0.41800000000E+01 0.  1.
        -11    1    1    2    0    0 -0.35602742582E+02 -0.18627073064E+02  0.20456955546E+02  0.45088913943E+02  0.00000000000E+00 0.  1.
         11    1    1    2    0    0 -0.16249205920E+01  0.46873321439E+02  0.11136849540E+03  0.12084159216E+03  0.00000000000E+00 0. -1.
</event>
<event>
 7    1  0.3056346E-009  0.1300693E+03  0.7561462E-02  0.1227353E+00
          2   -1    0    0  501    0  0.00000000000E+00  0.00000000000E+00  0.10691294334E+04  0.10691294334E+04  0.00000000000E+00 0.  1.
         -2   -1    0    0    0  501 -0.00000000000E+00 -0.00000000000E+00 -0.21789642928E+02  0.21789642928E+02  0.00000000000E+00 0. -1.
         25    2    1    2    0    0  0.39341580053E+02  0.10568239940E+03  0.49745088811E+03  0.52518699061E+03  0.12508980598E+03 0.  0.
          5    1    3    3  502    0  0.64008893140E+02  0.10372736036E+03  0.26892545794E+03  0.29528778847E+03  0.41800000000E+01 0.  1.
         -5    1    3    3    0  502 -0.24667313087E+02  0.19550390397E+01  0.22852543017E+03  0.22989920214E+03  0.41800000000E+01 0.  1.
        -11    1    1    2    0    0 -0.33494077509E+02 -0.79695583541E+02  0.51299245442E+03  0.52022542956E+03  0.00000000000E+00 0.  1.
         11    1    1    2    0    0 -0.58475025441E+01 -0.25986815859E+02  0.36896447944E+02  0.45506656166E+02  0.00000000000E+00 0. -1.
</event>
<event>
 7    1  0.3056346E-009  0.1413224E+03  0.7561462E-02  0.1211561E+00
          2   -1    0    0  501    0  0.00000000000E+00  0.00000000000E+00  0.30614329595E+03  0.30614329595E+03  0.00000000000E+00 0. -1.
         -2   -1    0    0    0  501 -0.00000000000E+00 -0.00000000000E+00 -0.11321012118E+03  0.11321012118E+03  0.00000000000E+00 0.  1.
         25    2    1    2    0    0  0.65570284413E+02 -0.83633663568E+02 -0.19414926623E+02  0.16527894283E+03  0.12508452217E+03 0.  0.
          5    1    3    3  502    0  0.97117098970E+02 -0.30132167096E+02 -0.15037410898E+02  0.10287504329E+03  0.41800000000E+01 0.  1.
         -5    1    3    3    0  502 -0.31546814557E+02 -0.53501496473E+02 -0.43775157246E+01  0.62403899537E+02  0.41800000000E+01 0.  1.
        -11    1    1    2    0    0 -0.58059895512E+02  0.31698927225E+02  0.48489051973E+02  0.82018056642E+02  0.00000000000E+00 0.  1.
         11    1    1    2    0    0 -0.75103889015E+01  0.51934736343E+02  0.16385904942E+03  0.17205641765E+03  0.00000000000E+00 0. -1.
</event>
<event>
 7    1  0.3056346E-009  0.8807380E+02  0.7561462E-02  0.1307584E+00
          1   -1    0    0  501    0  0.00000000000E+00  0.00000000000E+00  0.32905411793E+02  0.32905411793E+02  0.00000000000E+00 0. -1.
         -1   -1    0    0    0  501 -0.00000000000E+00 -0.00000000000E+00 -0.38404386897E+03  0.38404386897E+03  0.00000000000E+00 0.  1.
         25    2    1    2    0    0  0.29694636383E+02 -0.12451721089E+02 -0.19515827300E+03  0.23403200960E+03  0.12508962071E+03 0.  0.
          5    1    3    3  502    0  0.63646872656E+02  0.32655914109E+01 -0.42297725121E+02  0.76603906144E+02  0.41800000000E+01 0.  1.
         -5    1    3    3    0  502 -0.33952236273E+02 -0.15717312500E+02 -0.15286054788E+03  0.15742810346E+03  0.41800000000E+01 0.  1.
        -11    1    1    2    0    0 -0.51265244259E+02  0.38448718183E+01 -0.15052357868E+03  0.15906054208E+03  0.00000000000E+00 0.  1.
         11    1    1    2    0    0  0.21570607876E+02  0.86068492709E+01 -0.54566054849E+01  0.23856729070E+02  0.00000000000E+00 0. -1.
</event>
<event>
 7    1  0.3056346E-009  0.1059761E+03  0.7561462E-02  0.1268208E+00
         -2   -1    0    0    0  501 -0.00000000000E+00  0.00000000000E+00  0.30951109126E+03  0.30951109126E+03  0.00000000000E+00 0.  1.
          2   -1    0    0  501    0  0.00000000000E+00 -0.00000000000E+00 -0.41369167753E+02  0.41369167753E+02  0.00000000000E+00 0. -1.
         25    2    1    2    0    0 -0.25398103999E+01 -0.28685375320E+02  0.12661188738E+03  0.18029284614E+03  0.12508252856E+03 0.  0.
          5    1    3    3  502    0  0.58462824500E+02 -0.32264950975E+02  0.71097226154E+02  0.97627951309E+02  0.41800000000E+01 0. -1.
         -5    1    3    3    0  502 -0.61002634900E+02  0.35795756554E+01  0.55514661226E+02  0.82664894832E+02  0.41800000000E+01 0. -1.
        -11    1    1    2    0    0 -0.33097254276E+02  0.34362285500E+02  0.11858899053E+03  0.12782622415E+03  0.00000000000E+00 0.  1.
         11    1    1    2    0    0  0.35637064676E+02 -0.56769101795E+01  0.22941045600E+02  0.42761188724E+02  0.00000000000E+00 0. -1.
</event>
<event>
 7    1  0.3603466E-009  0.2048422E+03  0.7561462E-02  0.1145717E+00
         -2   -1    0    0    0  501 -0.00000000000E+00  0.00000000000E+00  0.15157275972E+03  0.15157275972E+03  0.00000000000E+00 0.  1.
          2   -1    0    0  501    0  0.00000000000E+00 -0.00000000000E+00 -0.34529053973E+03  0.34529053973E+03  0.00000000000E+00 0. -1.
         25    2    1    2    0    0  0.15248578885E+03  0.10585123458E+03 -0.16646427593E+02  0.22445768779E+03  0.12509096846E+03 0.  0.
          5    1    3    3  502    0  0.39360745356E+02  0.10022990513E+03 -0.25604031696E+02  0.11076254329E+03  0.41800000000E+01 0. -1.
         -5    1    3    3    0  502  0.11312504349E+03  0.56213294548E+01  0.89576041026E+01  0.11369514449E+03  0.41800000000E+01 0. -1.
        -11    1    1    2    0    0 -0.10711043500E+03 -0.54926535975E+02 -0.54502402529E+02  0.13213660175E+03  0.00000000000E+00 0. -1.
         11    1    1    2    0    0 -0.45375353851E+02 -0.50924698609E+02 -0.12256894989E+03  0.14026900992E+03  0.00000000000E+00 0.  1.
</event>
<event>
 7    1  0.3056346E-009  0.1962310E+03  0.7561462E-02  0.1152958E+00
          2   -1    0    0  501    0  0.00000000000E+00  0.00000000000E+00  0.12342691431E+04  0.12342691431E+04  0.00000000000E+00 0. -1.
         -2   -1    0    0    0  501 -0.00000000000E+00 -0.00000000000E+00 -0.40554013247E+02  0.40554013247E+02  0.00000000000E+00 0.  1.
         25    2    1    2    0    0  0.15476746764E+03  0.89291347499E+02  0.39675571206E+03  0.45275621078E+03  0.12508867882E+03 0.  0.
          5    1    3    3  502    0  0.37852201318E+02  0.75394155870E+02  0.25393364177E+03  0.26761321849E+03  0.41800000000E+01 0.  1.
         -5    1    3    3    0  502  0.11691526632E+03  0.13897191629E+02  0.14282207029E+03  0.18514299229E+03  0.41800000000E+01 0.  1.
        -11    1    1    2    0    0 -0.93115220298E+02 -0.16118156788E+02  0.25982076165E+03  0.27647254369E+03  0.00000000000E+00 0.  1.
         11    1    1    2    0    0 -0.61652247340E+02 -0.73173190711E+02  0.53713865612E+03  0.54559440186E+03  0.00000000000E+00 0. -1.
</event>
<event>
 7    1  0.3056346E-009  0.2732212E+03  0.7561462E-02  0.1099450E+00
          2   -1    0    0  501    0  0.00000000000E+00  0.00000000000E+00  0.54830955436E+03  0.54830955436E+03  0.00000000000E+00 0.  1.
         -2   -1    0    0    0  501 -0.00000000000E+00 -0.00000000000E+00 -0.15310168303E+03  0.15310168303E+03  0.00000000000E+00 0. -1.
         25    2    1    2    0    0 -0.21500556523E+03  0.12531377718E+03  0.31547036203E+03  0.42083161894E+03  0.12508703509E+03 0.  0.
          5    1    3    3  502    0 -0.17166258156E+03  0.15006945234E+03  0.24981871509E+03  0.33825396560E+03  0.41800000000E+01 0. -1.
         -5    1    3    3    0  502 -0.43342983672E+02 -0.24755675154E+02  0.65651646932E+02  0.82577653338E+02  0.41800000000E+01 0. -1.
        -11    1    1    2    0    0  0.94310005753E+02  0.12104281040E-01  0.18384478058E+02  0.96085203674E+02  0.00000000000E+00 0.  1.
         11    1    1    2    0    0  0.12069555948E+03 -0.12532588146E+03  0.61353031249E+02  0.18449441478E+03  0.00000000000E+00 0. -1.
</event>
<event>
 7    1  0.3056346E-009  0.2170151E+03  0.7561462E-02  0.1136128E+00
         -2   -1    0    0    0  501 -0.00000000000E+00  0.00000000000E+00  0.19596260688E+03  0.19596260688E+03  0.00000000000E+00 0.  1.
          2   -1    0    0  501    0  0.00000000000E+00 -0.00000000000E+00 -0.24930959031E+03  0.24930959031E+03  0.00000000000E+00 0. -1.
         25    2    1    2    0    0 -0.10383729311E+02  0.19014521359E+03 -0.24835558394E+01  0.22784778801E+03  0.12508166279E+03 0.  0.
          5    1    3    3  502    0 -0.39589657541E+02  0.84151432532E+01 -0.14871858988E+02  0.43322052236E+02  0.41800000000E+01 0. -1.
         -5    1    3    3    0  502  0.29205928230E+02  0.18173007034E+03  0.12388303149E+02  0.18452573577E+03  0.41800000000E+01 0. -1.
        -11    1    1    2    0    0  0.29397226629E+02 -0.18778491592E+03 -0.54905288985E+02  0.19784327722E+03  0.00000000000E+00 0. -1.
         11    1    1    2    0    0 -0.19013497317E+02 -0.23602976683E+01  0.40418613974E+01  0.19581131961E+02  0.00000000000E+00 0.  1.
</event>
<event>
 7    1  0.3056346E-009  0.1004996E+03  0.7561462E-02  0.1279249E+00
          3   -1    0    0  501    0  0.00000000000E+00  0.00000000000E+00  0.84842060856E+02  0.84842060856E+02  0.00000000000E+00 0. -1.
         -3   -1    0    0    0  501 -0.00000000000E+00 -0.00000000000E+00 -0.26358930637E+03  0.26358930637E+03  0.00000000000E+00 0.  1.
         25    2    1    2    0    0  0.64130817803E+02  0.54420477960E+02 -0.18637278777E+03  0.23970157799E+03  0.12509068814E+03 0.  0.
          5    1    3    3  502    0  0.69988690908E+01 -0.20236803693E+02  0.84074874965E+01  0.23380988822E+02  0.41800000000E+01 0.  1.
         -5    1    3    3    0  502  0.57131948713E+02  0.74657281653E+02 -0.19478027526E+03  0.21632058917E+03  0.41800000000E+01 0.  1.
        -11    1    1    2    0    0 -0.46443858472E+02 -0.31456321349E+02 -0.28088339202E+02  0.62733459507E+02  0.00000000000E+00 0.  1.
         11    1    1    2    0    0 -0.17686959331E+02 -0.22964156611E+02  0.35713881458E+02  0.45996329724E+02  0.00000000000E+00 0. -1.
</event>
<event>
 7    1  0.3056346E-009  0.6576743E+02  0.7561462E-02  0.1375108E+00
          2   -1    0    0  501    0  0.00000000000E+00  0.00000000000E+00  0.78915479760E+03  0.78915479760E+03  0.00000000000E+00 0. -1.
         -2   -1    0    0    0  501 -0.00000000000E+00 -0.00000000000E+00 -0.28071740034E+02  0.28071740034E+02  0.00000000000E+00 0.  1.
         25    2    1    2    0    0 -0.37818259244E+02  0.45983241826E+02  0.64387239112E+03  0.65860872262E+03  0.12509641966E+03 0.  0.
          5    1    3    3  502    0  0.38799615561E+01  0.10479473146E+02  0.54790849307E+03  0.54803837698E+03  0.41800000000E+01 0. -1.
         -5    1    3    3    0  502 -0.41698220800E+02  0.35503768679E+02  0.95963898046E+02  0.11057034565E+03  0.41800000000E+01 0. -1.
        -11    1    1    2    0    0  0.96233816369E+01 -0.31589369227E+02 -0.40711000503E+01  0.33272685162E+02  0.00000000000E+00 0.  1.
         11    1    1    2    0    0  0.28194877607E+02 -0.14393872599E+02  0.12128176650E+03  0.12534512985E+03  0.00000000000E+00 0. -1.
</event>
<event>
 7    1  0.3056346E-009  0.1352062E+03  0.7561462E-02  0.1219929E+00
          3   -1    0    0  501    0  0.00000000000E+00  0.00000000000E+00  0.20545862564E+02  0.20545862564E+02  0.00000000000E+00 0. -1.
         -3   -1    0    0    0  501 -0.00000000000E+00 -0.00000000000E+00 -0.10536992211E+04  0.10536992211E+04  0.00000000000E+00 0.  1.
         25    2    1    2    0    0  0.93204488133E+02 -0.11328746071E+02 -0.68236025026E+03  0.70005596187E+03  0.12508965395E+03 0.  0.
          5    1    3    3  502    0  0.53067448883E+02  0.56351601812E+02 -0.32653951748E+03  0.33561463919E+03  0.41800000000E+01 0. -1.
         -5    1    3    3    0  502  0.40137039250E+02 -0.67680347884E+02 -0.35582073278E+03  0.36444132269E+03  0.41800000000E+01 0. -1.
        -11    1    1    2    0    0 -0.43969334572E+02  0.37987976817E+02 -0.26809842467E+03  0.27432308339E+03  0.00000000000E+00 0.  1.
         11    1    1    2    0    0 -0.49235153561E+02 -0.26659230745E+02 -0.82694683595E+02  0.99866038396E+02  0.00000000000E+00 0. -1.
</event>
<event>
 7    1  0.3056346E-009  0.8991449E+02  0.7561462E-02  0.1303059E+00
         -1   -1    0    0    0  501 -0.00000000000E+00  0.00000000000E+00  0.21103929391E+02  0.21103929391E+02  0.00000000000E+00 0.  1.
          1   -1    0    0  501    0  0.00000000000E+00 -0.00000000000E+00 -0.67009373429E+03  0.67009373429E+03  0.00000000000E+00 0. -1.
         25    2    1    2    0    0  0.61848391924E+01  0.35326462132E+02 -0.46868802944E+03  0.48642324151E+03  0.12511150939E+03 0.  0.
          5    1    3    3  502    0 -0.34105469956E+02  0.67366149565E+01 -0.40096686475E+03  0.40249281247E+03  0.41800000000E+01 0.  1.
         -5    1    3    3    0  502  0.40290309148E+02  0.28589847176E+02 -0.67721164687E+02  0.83930429043E+02  0.41800000000E+01 0.  1.
        -11    1    1    2    0    0  0.40962820501E+02 -0.12336567579E+02 -0.61584936078E+02  0.74985651392E+02  0.00000000000E+00 0.  1.
         11    1    1    2    0    0 -0.47147659694E+02 -0.22989894554E+02 -0.11871683939E+03  0.12978877078E+03  0.00000000000E+00 0. -1.
</event>
<event>
 7    1  0.3056346E-009  0.1166550E+03  0.7561462E-02  0.1248719E+00
          1   -1    0    0  501    0  0.00000000000E+00  0.00000000000E+00  0.29449784268E+02  0.29449784268E+02  0.00000000000E+00 0. -1.
         -1   -1    0    0    0  501 -0.00000000000E+00 -0.00000000000E+00 -0.72454538682E+03  0.72454538682E+03  0.00000000000E+00 0.  1.
         25    2    1    2    0    0  0.48261550625E+02 -0.73024127025E+02 -0.48777712069E+03  0.51111130176E+03  0.12508614201E+03 0.  0.
          5    1    3    3  502    0  0.63861733159E+02 -0.60452881097E+02 -0.48181828445E+03  0.48979506268E+03  0.41800000000E+01 0.  1.
         -5    1    3    3    0  502 -0.15600182534E+02 -0.12571245927E+02 -0.59588362391E+01  0.21316239082E+02  0.41800000000E+01 0.  1.
        -11    1    1    2    0    0 -0.72865441233E+02  0.68061345137E+02 -0.18010485884E+03  0.20586276839E+03  0.00000000000E+00 0.  1.
         11    1    1    2    0    0  0.24603890608E+02  0.49627818879E+01 -0.27213623019E+02  0.37021100941E+02  0.00000000000E+00 0. -1.
</event>
<event>
 6    1  0.3056346E-009  0.2227032E+03  0.7561462E-02  0.1131884E+00
          2   -1    0    0  501    0  0.00000000000E+00  0.00000000000E+00  0.33392147792E+03  0.33392147792E+03  0.00000000000E+00 0. -1.
         -2   -1    0    0    0  501 -0.00000000000E+00 -0.00000000000E+00 -0.17136990149E+03  0.17136990149E+03  0.00000000000E+00 0.  1.
          5    1    1    2  502    0  0.46892185767E+02 -0.13581421912E+03  0.41515961615E+02  0.14961760147E+03  0.41800000000E+01 0. -1.
         -5    1    1    2    0  502  0.89383569915E+02 -0.18565254989E+02 -0.15458953884E+02  0.92685181765E+02  0.41800000000E+01 0. -1.
        -11    1    1    2    0    0 -0.12154196368E+02  0.38859576894E+02  0.69749393965E+02  0.80763662400E+02  0.00000000000E+00 0. -1.
         11    1    1    2    0    0 -0.12412155931E+03  0.11551989721E+03  0.66745174736E+02  0.18222493378E+03  0.00000000000E+00 0.  1.
</event>
<event>
 7    1  0.3056346E-009  0.6559900E+02  0.7561462E-02  0.1375732E+00
         -1   -1    0    0    0  501 -0.00000000000E+00  0.00000000000E+00  0.41057575426E+02  0.41057575426E+02  0.00000000000E+00 0.  1.
          1   -1    0    0  501    0  0.00000000000E+00 -0.00000000000E+00 -0.39394779026E+03  0.39394779026E+03  0.00000000000E+00 0. -1.
         25    2    1    2    0    0  0.38267999440E+02 -0.59290401873E+00 -0.29293146028E+03  0.32081249893E+03  0.12508807991E+03 0.  0.
          5    1    3    3  502    0 -0.99292737193E+01  0.21266926472E+01 -0.26430608250E+03  0.26453410166E+03  0.41800000000E+01 0.  1.
         -5    1    3    3    0  502  0.48197273160E+02 -0.27195966659E+01 -0.28625377782E+02  0.56278397269E+02  0.41800000000E+01 0.  1.
        -11    1    1    2    0    0 -0.40785439517E+02  0.24595766570E+02 -0.72692014053E+02  0.86905308911E+02  0.00000000000E+00 0. -1.
         11    1    1    2    0    0  0.25174400768E+01 -0.24002862551E+02  0.12733259503E+02  0.27287557838E+02  0.00000000000E+00 0.  1.
</event>
<event>
 7    1  0.3056346E-009  0.1472802E+03  0.7561462E-02  0.1203855E+00
          2   -1    0    0  501    0  0.00000000000E+00  0.00000000000E+00  0.15008351623E+04  0.15008351623E+04  0.00000000000E+00 0.  1.
         -2   -1    0    0    0  501 -0.00000000000E+00 -0.00000000000E+00 -0.22313900834E+02  0.22313900834E+02  0.00000000000E+00 0. -1.
         25    2    1    2    0    0  0.40321299465E+02  0.93594441726E+02  0.11951260515E+04  0.12059673807E+04  0.12508124414E+03 0.  0.
          5    1    3    3  502    0  0.80941508982E+02  0.53876822750E+02  0.56976194335E+03  0.57801417318E+03  0.41800000000E+01 0. -1.
         -5    1    3    3    0  502 -0.40620209517E+02  0.39717618975E+02  0.62536410811E+03  0.62795320748E+03  0.41800000000E+01 0. -1.
        -11    1    1    2    0    0 -0.72144747885E+02 -0.58354494521E+02  0.21225095129E+03  0.23164752967E+03  0.00000000000E+00 0. -1.
         11    1    1    2    0    0  0.31823448420E+02 -0.35239947204E+02  0.71144258752E+02  0.85534152838E+02  0.00000000000E+00 0.  1.
</event>
<event>
 7    1  0.3056346E-009  0.2370730E+03  0.7561462E-02  0.1121758E+00
         -1   -1    0    0    0  501 -0.00000000000E+00  0.00000000000E+00  0.16093330066E+03  0.16093330066E+03  0.00000000000E+00 0.  1.
          1   -1    0    0  501    0  0.00000000000E+00 -0.00000000000E+00 -0.44074949039E+03  0.44074949039E+03  0.00000000000E+00 0. -1.
         25    2    1    2    0    0  0.15555556804E+03 -0.15846704327E+03 -0.32151739466E+02  0.25688722780E+03  0.12509186587E+03 0.  0.
          5    1    3    3  502    0  0.93321483353E+02 -0.16030424599E+03 -0.49676398253E+02  0.19207177689E+03  0.41800000000E+01 0.  1.
         -5    1    3    3    0  502  0.62234084683E+02  0.18372027195E+01  0.17524658787E+02  0.64815450903E+02  0.41800000000E+01 0.  1.
        -11    1    1    2    0    0 -0.10043244494E+03  0.71655136813E+02 -0.19100531338E+03  0.22738549727E+03  0.00000000000E+00 0. -1.
         11    1    1    2    0    0 -0.55123123092E+02  0.86811906453E+02 -0.56659136887E+02  0.11741006598E+03  0.00000000000E+00 0.  1.
</event>
<event>
 7    1  0.3056346E-009  0.1271982E+03  0.7561462E-02  0.1231673E+00
          2   -1    0    0  501    0  0.00000000000E+00  0.00000000000E+00  0.28050732391E+03  0.28050732391E+03  0.00000000000E+00 0. -1.
         -2   -1    0    0    0  501 -0.00000000000E+00 -0.00000000000E+00 -0.75731111822E+02  0.75731111822E+02  0.00000000000E+00 0.  1.
         25    2    1    2    0    0  0.78509016893E+02 -0.47698666403E+02  0.71406243216E+02  0.17084830893E+03  0.12510581355E+03 0.  0.
          5    1    3    3  502    0  0.64262706939E+02 -0.74103637812E+02  0.91736717770E+02  0.13436570406E+03  0.41800000000E+01 0.  1.
         -5    1    3    3    0  502  0.14246309954E+02  0.26404971409E+02 -0.20330474553E+02  0.36482604869E+02  0.41800000000E+01 0.  1.
        -11    1    1    2    0    0 -0.39594112336E+02  0.70476237812E+02  0.10339745014E+03  0.13124643433E+03  0.00000000000E+00 0.  1.
         11    1    1    2    0    0 -0.38914904558E+02 -0.22777571409E+02  0.29972518731E+02  0.54143692478E+02  0.00000000000E+00 0. -1.
</event>
<event>
 7    1  0.3056346E-009  0.8757716E+02  0.7561462E-02  0.1308827E+00
          1   -1    0    0  501    0  0.00000000000E+00  0.00000000000E+00  0.51108977600E+02  0.51108977600E+02  0.00000000000E+00 0. -1.
         -1   -1    0    0    0  501 -0.00000000000E+00 -0.00000000000E+00 -0.27347669222E+03  0.27347669222E+03  0.00000000000E+00 0.  1.
         25    2    1    2    0    0  0.19329792858E+02  0.43563808749E+02 -0.13478607298E+03  0.18997003650E+03  0.12509949230E+03 0.  0.
          5    1    3    3  502    0 -0.10798393641E+01 -0.23081015476E+02 -0.11503226723E+03  0.11740440465E+03  0.41800000000E+01 0.  1.
         -5    1    3    3    0  502  0.20409632222E+02  0.66644824225E+02 -0.19753805752E+02  0.72565631845E+02  0.41800000000E+01 0.  1.
        -11    1    1    2    0    0 -0.24078791977E+02  0.11426770290E+02  0.47224232258E+01  0.27067703697E+02  0.00000000000E+00 0. -1.
         11    1    1    2    0    0  0.47489991189E+01 -0.54990579039E+02 -0.92304064866E+02  0.10754792962E+03  0.00000000000E+00 0.  1.
</event>
<event>
 7    1  0.3056346E-009  0.8062456E+02  0.7561462E-02  0.1327288E+00
          1   -1    0    0  501    0  0.00000000000E+00  0.00000000000E+00  0.48008235196E+02  0.48008235196E+02  0.00000000000E+00 0. -1.
         -1   -1    0    0    0  501 -0.00000000000E+00 -0.00000000000E+00 -0.28173065141E+03  0.28173065141E+03  0.00000000000E+00 0.  1.
         25    2    1    2    0    0  0.32760125625E+02 -0.10103177568E+01 -0.94788276946E+02  0.16033365419E+03  0.12509123329E+03 0.  0.
          5    1    3    3  502    0 -0.25986307278E+02 -0.21866537638E+02  0.12291513553E+02  0.36359143824E+02  0.41800000000E+01 0. -1.
         -5    1    3    3    0  502  0.58746432903E+02  0.20856219881E+02 -0.10707979050E+03  0.12397451036E+03  0.41800000000E+01 0. -1.
        -11    1    1    2    0    0  0.25720882801E+01  0.22863388096E+02 -0.12264065985E+03  0.12478013304E+03  0.00000000000E+00 0.  1.
         11    1    1    2    0    0 -0.35332213906E+02 -0.21853070340E+02 -0.16293479414E+02  0.44625099374E+02  0.00000000000E+00 0. -1.
</event>
<event>
 7    1  0.3056346E-009  0.9900633E+02  0.7561462E-02  0.1282399E+00
         -1   -1    0    0    0  501 -0.00000000000E+00  0.00000000000E+00  0.83507123316E+02  0.83507123316E+02  0.00000000000E+00 0.  1.
          1   -1    0    0  501    0  0.00000000000E+00 -0.00000000000E+00 -0.16813719403E+03  0.16813719403E+03  0.00000000000E+00 0. -1.
         25    2    1    2    0    0 -0.14261376666E+02 -0.44436865856E+02 -0.44739832896E+02  0.14079892369E+03  0.12507862468E+03 0.  0.
          5    1    3    3  502    0 -0.28019697793E+02  0.19219939740E+02  0.27159079905E+02  0.43698942428E+02  0.41800000000E+01 0.  1.
         -5    1    3    3    0  502  0.13758321127E+02 -0.63656805596E+02 -0.71898912801E+02  0.97099981261E+02  0.41800000000E+01 0.  1.
        -11    1    1    2    0    0 -0.34469992057E+02  0.30882791392E+01 -0.30730474427E+02  0.46282608818E+02  0.00000000000E+00 0. -1.
         11    1    1    2    0    0  0.48731368723E+02  0.41348586716E+02 -0.91597633939E+01  0.64562784842E+02  0.00000000000E+00 0.  1.
</event>
<event>
 7    1  0.3056346E-009  0.2182523E+03  0.7561462E-02  0.1135193E+00
         -1   -1    0    0    0  501 -0.00000000000E+00  0.00000000000E+00  0.12918298717E+04  0.12918298717E+04  0.00000000000E+00 0.  1.
          1   -1    0    0  501    0  0.00000000000E+00 -0.00000000000E+00 -0.41613134787E+02  0.41613134787E+02  0.00000000000E+00 0. -1.
         25    2    1    2    0    0  0.54130127514E+01 -0.18934565369E+03  0.42476189244E+03  0.48162314789E+03  0.12512839019E+03 0.  0.
          5    1    3    3  502    0  0.26274300572E+02 -0.20077497570E+03  0.37087366787E+03  0.42257032511E+03  0.41800000000E+01 0.  1.
         -5    1    3    3    0  502 -0.20861287821E+02  0.11429322011E+02  0.53888224571E+02  0.59052822783E+02  0.41800000000E+01 0.  1.
        -11    1    1    2    0    0 -0.46996554364E+02  0.79262869671E+02  0.39085519414E+03  0.40157074273E+03  0.00000000000E+00 0.  1.
         11    1    1    2    0    0  0.41583541612E+02  0.11008278402E+03  0.43459965030E+03  0.45024911584E+03  0.00000000000E+00 0. -1.
</event>
<event>
 7    1  0.3056346E-009  0.1977505E+03  0.7561462E-02  0.1151651E+00
         -2   -1    0    0    0  501 -0.00000000000E+00  0.00000000000E+00  0.72853085924E+03  0.72853085924E+03  0.00000000000E+00 0. -1.
          2   -1    0    0  501    0  0.00000000000E+00 -0.00000000000E+00 -0.60062675908E+02  0.60062675908E+02  0.00000000000E+00 0.  1.
         25    2    1    2    0    0 -0.86569467066E+02 -0.15569195267E+03  0.35320683336E+03  0.41489437403E+03  0.12509203699E+03 0.  0.
          5    1    3    3  502    0 -0.10187739520E+03 -0.55865749415E+02  0.17750452669E+03  0.21219169401E+03  0.41800000000E+01 0. -1.
         -5    1    3    3    0  502  0.15307928134E+02 -0.99826203253E+02  0.17570230667E+03  0.20270268002E+03  0.41800000000E+01 0. -1.
        -11    1    1    2    0    0  0.23446186614E+02  0.44358808693E+02  0.24122148849E+02  0.55671407746E+02  0.00000000000E+00 0.  1.
         11    1    1    2    0    0  0.63123280452E+02  0.11133314398E+03  0.29113920112E+03  0.31802775337E+03  0.00000000000E+00 0. -1.
</event>
<event>
 7    1  0.3056346E-009  0.1436250E+03  0.7561462E-02  0.1208533E+00
         -2   -1    0    0    0  501 -0.00000000000E+00  0.00000000000E+00  0.16138733602E+02  0.16138733602E+02  0.00000000000E+00 0.  1.
          2   -1    0    0  501    0  0.00000000000E+00 -0.00000000000E+00 -0.15107365888E+04  0.15107365888E+04  0.00000000000E+00 0. -1.
         25    2    1    2    0    0 -0.48011867567E+02 -0.92901311398E+02 -0.99034998409E+03  0.10036812556E+04  0.12508868371E+03 0.  0.
          5    1    3    3  502    0 -0.81292348403E+02 -0.69083355045E+02 -0.48264255490E+03  0.49430988666E+03  0.41800000000E+01 0.  1.
         -5    1    3    3    0  502  0.33280480836E+02 -0.23817956353E+02 -0.50770742920E+03  0.50937136896E+03  0.41800000000E+01 0.  1.
        -11    1    1    2    0    0  0.66224951090E+02  0.27932223263E+02 -0.24705882915E+03  0.25730141528E+03  0.00000000000E+00 0. -1.
         11    1    1    2    0    0 -0.18213083523E+02  0.64969088135E+02 -0.25718904194E+03  0.26589265149E+03  0.00000000000E+00 0.  1.
</event>
<event>
 7    1  0.3056346E-009  0.8828121E+02  0.7561462E-02  0.1307068E+00
          2   -1    0    0  501    0  0.00000000000E+00  0.00000000000E+00  0.11454796250E+03  0.11454796250E+03  0.00000000000E+00 0. -1.
         -2   -1    0    0    0  501 -0.00000000000E+00 -0.00000000000E+00 -0.12606137449E+03  0.12606137449E+03  0.00000000000E+00 0.  1.
         25    2    1    2    0    0  0.34758376649E+02  0.39217272817E+02 -0.51038728177E+01  0.13571989929E+03  0.12509077628E+03 0.  0.
          5    1    3    3  502    0  0.75391563187E+02  0.18531081402E+02 -0.30317077768E+02  0.83449903428E+02  0.41800000000E+01 0. -1.
         -5    1    3    3    0  502 -0.40633186539E+02  0.20686191415E+02  0.25213204950E+02  0.52269995862E+02  0.41800000000E+01 0. -1.
        -11    1    1    2    0    0 -0.73254967237E+01 -0.13828047155E+02 -0.47102943032E+02  0.49634313057E+02  0.00000000000E+00 0.  1.
         11    1    1    2    0    0 -0.27432879925E+02 -0.25389225662E+02  0.40693403862E+02  0.55255124636E+02  0.00000000000E+00 0. -1.
</event>
<event>
 7    1  0.3056346E-009  0.1306550E+03  0.7561462E-02  0.1226487E+00
         -2   -1    0    0    0  501 -0.00000000000E+00  0.00000000000E+00  0.14154245567E+03  0.14154245567E+03  0.00000000000E+00 0.  1.
          2   -1    0    0  501    0  0.00000000000E+00 -0.00000000000E+00 -0.23128790869E+03  0.23128790869E+03  0.00000000000E+00 0. -1.
         25    2    1    2    0    0 -0.77483246627E+02 -0.10436769811E+03 -0.11187957702E+03  0.21223984662E+03  0.12502976774E+03 0.  0.
          5    1    3    3  502    0 -0.31779624840E+02 -0.41256276466E+02 -0.12279390189E+03  0.13344601771E+03  0.41800000000E+01 0. -1.
         -5    1    3    3    0  502 -0.45703621787E+02 -0.63111421642E+02  0.10914324862E+02  0.78793828904E+02  0.41800000000E+01 0. -1.
        -11    1    1    2    0    0  0.13130548075E+02  0.29607959505E+02 -0.34112085656E+02  0.47039100189E+02  0.00000000000E+00 0. -1.
         11    1    1    2    0    0  0.64352698552E+02  0.74759738604E+02  0.56246209659E+02  0.11355141755E+03  0.00000000000E+00 0.  1.
</event>
<event>
 7    1  0.3056346E-009  0.1579675E+03  0.7561462E-02  0.1191011E+00
         -1   -1    0    0    0  501 -0.00000000000E+00  0.00000000000E+00  0.61231134732E+02  0.61231134732E+02  0.00000000000E+00 0.  1.
          1   -1    0    0  501    0  0.00000000000E+00 -0.00000000000E+00 -0.52695523064E+03  0.52695523064E+03  0.00000000000E+00 0. -1.
         25    2    1    2    0    0 -0.41639486006E+02 -0.13685823877E+03 -0.23067643623E+03  0.29887764853E+03  0.12510877767E+03 0.  0.
          5    1    3    3  502    0 -0.41070666059E+02 -0.70458382624E+02 -0.21575370867E+03  0.23069095885E+03  0.41800000000E+01 0.  1.
         -5    1    3    3    0  502 -0.56881994684E+00 -0.66399856141E+02 -0.14922727558E+02  0.68186689679E+02  0.41800000000E+01 0.  1.
        -11    1    1    2    0    0  0.68752082326E+02  0.10895491107E+03 -0.19272030700E+03  0.23181703605E+03  0.00000000000E+00 0. -1.
         11    1    1    2    0    0 -0.27112596321E+02  0.27903327692E+02 -0.42327352682E+02  0.57491680795E+02  0.00000000000E+00 0.  1.
</event>
<event>
 7    1  0.3056346E-009  0.3312828E+03  0.7561462E-02  0.1070571E+00
         -2   -1    0    0    0  501 -0.00000000000E+00  0.00000000000E+00  0.15021767100E+03  0.15021767100E+03  0.00000000000E+00 0.  1.
          2   -1    0    0  501    0  0.00000000000E+00 -0.00000000000E+00 -0.13155194841E+04  0.13155194841E+04  0.00000000000E+00 0. -1.
         25    2    1    2    0    0 -0.32412927881E+03  0.29823357514E+02 -0.10540557495E+04  0.11102390065E+04  0.12509159256E+03 0.  0.
          5    1    3    3  502    0 -0.13602785647E+03  0.22204344161E+02 -0.26158578249E+03  0.29570459015E+03  0.41800000000E+01 0.  1.
         -5    1    3    3    0  502 -0.18810142234E+03  0.76190133536E+01 -0.79246996699E+03  0.81453441636E+03  0.41800000000E+01 0.  1.
        -11    1    1    2    0    0  0.22567161595E+03  0.19006965776E+02 -0.89218968111E+02  0.24341110752E+03  0.00000000000E+00 0. -1.
         11    1    1    2    0    0  0.98457662858E+02 -0.48830323291E+02 -0.22027095551E+02  0.11208704112E+03  0.00000000000E+00 0.  1.
</event>
<event>
 7    1  0.3056346E-009  0.9789612E+02  0.7561462E-02  0.1284783E+00
          2   -1    0    0  501    0  0.00000000000E+00  0.00000000000E+00  0.50471129805E+03  0.50471129805E+03  0.00000000000E+00 0. -1.
         -2   -1    0    0    0  501 -0.00000000000E+00 -0.00000000000E+00 -0.34117298206E+02  0.34117298206E+02  0.00000000000E+00 0.  1.
         25    2    1    2    0    0  0.24400870940E+02  0.25547812372E+02  0.36033505434E+03  0.38306210236E+03  0.12508848730E+03 0.  0.
          5    1    3    3  502    0  0.38189777120E+02 -0.27078813717E+02  0.29130075923E+03  0.29506834117E+03  0.41800000000E+01 0.  1.
         -5    1    3    3    0  502 -0.13788906181E+02  0.52626626089E+02  0.69034295112E+02  0.87993761192E+02  0.41800000000E+01 0.  1.
        -11    1    1    2    0    0 -0.35389675122E+02 -0.53526265196E+02  0.31532682991E+02  0.71496854950E+02  0.00000000000E+00 0.  1.
         11    1    1    2    0    0  0.10988804183E+02  0.27978452824E+02  0.78726262505E+02  0.84269638944E+02  0.00000000000E+00 0. -1.
</event>
<event>
 7    1  0.3056346E-009  0.1227678E+03  0.7561462E-02  0.1238600E+00
          2   -1    0    0  501    0  0.00000000000E+00  0.00000000000E+00  0.96830910635E+02  0.96830910635E+02  0.00000000000E+00 0. -1.
         -2   -1    0    0    0  501 -0.00000000000E+00 -0.00000000000E+00 -0.19440261206E+03  0.19440261206E+03  0.00000000000E+00 0.  1.
         25    2    1    2    0    0  0.22740763297E+02  0.70767914868E+02 -0.13515860743E+02  0.14613524771E+03  0.12509033552E+03 0.  0.
          5    1    3    3  502    0  0.54178485610E+02 -0.79808960469E+01  0.14381172195E+02  0.56774056738E+02  0.41800000000E+01 0.  1.
         -5    1    3    3    0  502 -0.31437722314E+02  0.78748810915E+02 -0.27897032939E+02  0.89361190970E+02  0.41800000000E+01 0.  1.
        -11    1    1    2    0    0 -0.34794852436E+02 -0.82102984208E+02 -0.39423743333E+02  0.97497760540E+02  0.00000000000E+00 0. -1.
         11    1    1    2    0    0  0.12054089139E+02  0.11335069340E+02 -0.44632097344E+02  0.47600514443E+02  0.00000000000E+00 0.  1.
</event>
<event>
 7    1  0.3056346E-009  0.1462474E+03  0.7561462E-02  0.1205161E+00
         -2   -1    0    0    0  501 -0.00000000000E+00  0.00000000000E+00  0.92700552437E+02  0.92700552437E+02  0.00000000000E+00 0.  1.
          2   -1    0    0  501    0  0.00000000000E+00 -0.00000000000E+00 -0.37136326443E+03  0.37136326443E+03  0.00000000000E+00 0. -1.
         25    2    1    2    0    0  0.12742834228E+03 -0.14693995684E+02 -0.48358332828E+02  0.18557871684E+03  0.12508811241E+03 0.  0.
          5    1    3    3  502    0  0.48482392769E+02 -0.55468076028E+02 -0.60993713939E+02  0.95733773596E+02  0.41800000000E+01 0. -1.
         -5    1    3    3    0  502  0.78945949508E+02  0.40774080344E+02  0.12635381111E+02  0.89844943249E+02  0.41800000000E+01 0. -1.
        -11    1    1    2    0    0 -0.88573773181E+02  0.10688855566E+01 -0.21831442405E+03  0.23560060178E+03  0.00000000000E+00 0. -1.
         11    1    1    2    0    0 -0.38854569097E+02  0.13625110127E+02 -0.11989955116E+02  0.42884498240E+02  0.00000000000E+00 0.  1.
</event>
<event>
 7    1  0.3056346E-009  0.1282354E+03  0.7561462E-02  0.1230098E+00
         -1   -1    0    0    0  501 -0.00000000000E+00  0.00000000000E+00  0.67082320811E+03  0.67082320811E+03  0.00000000000E+00 0.  1.
          1   -1    0    0  501    0  0.00000000000E+00 -0.00000000000E+00 -0.32049660001E+02  0.32049660001E+02  0.00000000000E+00 0. -1.
         25    2    1    2    0    0  0.94846558473E+02 -0.48586504708E+01  0.28513375084E+03  0.32552778968E+03  0.12509040670E+03 0.  0.
          5    1    3    3  502    0  0.40431501148E+02 -0.43061446853E+02  0.39892363789E+02  0.71399352790E+02  0.41800000000E+01 0.  1.
         -5    1    3    3    0  502  0.54415057325E+02  0.38202796382E+02  0.24524138705E+03  0.25412843689E+03  0.41800000000E+01 0.  1.
        -11    1    1    2    0    0  0.51652044085E+01 -0.25580124633E+02  0.53618441025E+02  0.59631865062E+02  0.00000000000E+00 0. -1.
         11    1    1    2    0    0 -0.10001176288E+03  0.30438775104E+02  0.30002135624E+03  0.31771321337E+03  0.00000000000E+00 0.  1.
</event>
<event>
 7    1  0.3056346E-009  0.1420024E+03  0.7561462E-02  0.1210660E+00
          2   -1    0    0  501    0  0.00000000000E+00  0.00000000000E+00  0.14894526408E+04  0.14894526408E+04  0.00000000000E+00 0. -1.
         -2   -1    0    0    0  501 -0.00000000000E+00 -0.00000000000E+00 -0.22900265527E+02  0.22900265527E+02  0.00000000000E+00 0.  1.
         25    2    1    2    0    0 -0.13819459613E+02 -0.13048325961E+03  0.10615236801E+04  0.10768913610E+04  0.12508245848E+03 0.  0.
          5    1    3    3  502    0 -0.87255392256E+01 -0.12178541496E+03  0.10585565993E+04  0.10655831120E+04  0.41800000000E+01 0. -1.
         -5    1    3    3    0  502 -0.50939203869E+01 -0.86978446480E+01  0.29670808533E+01  0.11308248990E+02  0.41800000000E+01 0. -1.
        -11    1    1    2    0    0  0.44636494561E+02  0.69563308150E+02  0.29145236685E+03  0.30294546148E+03  0.00000000000E+00 0. -1.
         11    1    1    2    0    0 -0.30817034949E+02  0.60919951461E+02  0.11357632827E+03  0.13251608382E+03  0.00000000000E+00 0.  1.
</event>
<event>
 7    1  0.3056346E-009  0.8794857E+02  0.7561462E-02  0.1307897E+00
         -4   -1    0    0    0  501 -0.00000000000E+00  0.00000000000E+00  0.29701591113E+02  0.29701591113E+02  0.00000000000E+00 0.  1.
          4   -1    0    0  501    0  0.00000000000E+00 -0.00000000000E+00 -0.50131220969E+03  0.50131220969E+03  0.00000000000E+00 0. -1.
         25    2    1    2    0    0  0.31954820814E+02  0.46243756713E+02 -0.26441162018E+03  0.29786017112E+03  0.12509029155E+03 0.  0.
          5    1    3    3  502    0  0.37911553512E+02  0.58800972362E+02 -0.27241468677E+03  0.28128646290E+03  0.41800000000E+01 0. -1.
         -5    1    3    3    0  502 -0.59567326978E+01 -0.12557215649E+02  0.80030665887E+01  0.16573708218E+02  0.41800000000E+01 0. -1.
        -11    1    1    2    0    0 -0.55332637241E+02 -0.31948300000E+02 -0.19081211918E+03  0.20122539463E+03  0.00000000000E+00 0. -1.
         11    1    1    2    0    0  0.23377816427E+02 -0.14295456712E+02 -0.16386879208E+02  0.31928235054E+02  0.00000000000E+00 0.  1.
</event>
<event>
 7    1  0.3056346E-009  0.1396839E+03  0.7561462E-02  0.1213755E+00
         -2   -1    0    0    0  501 -0.00000000000E+00  0.00000000000E+00  0.13668947332E+02  0.13668947332E+02  0.00000000000E+00 0.  1.
          2   -1    0    0  501    0  0.00000000000E+00 -0.00000000000E+00 -0.17599484240E+04  0.17599484240E+04  0.00000000000E+00 0. -1.
         25    2    1    2    0    0 -0.38237289442E+02  0.96429815881E+02 -0.11786323037E+04  0.11897824103E+04  0.12508907519E+03 0.  0.
          5    1    3    3  502    0  0.43721357074E+02  0.54317058847E+02 -0.46633810977E+03  0.47154067160E+03  0.41800000000E+01 0. -1.
         -5    1    3    3    0  502 -0.81958646516E+02  0.42112757034E+02 -0.71229419397E+03  0.71824173870E+03  0.41800000000E+01 0. -1.
        -11    1    1    2    0    0  0.28860655503E+02 -0.10224620652E+03 -0.56096137901E+03  0.57093335243E+03  0.00000000000E+00 0. -1.
         11    1    1    2    0    0  0.93766339384E+01  0.58163906427E+01 -0.66857939153E+01  0.12901608597E+02  0.00000000000E+00 0.  1.
</event>
<event>
 7    1  0.3056346E-009  0.1982323E+03  0.7561462E-02  0.1151239E+00
         -2   -1    0    0    0  501 -0.00000000000E+00  0.00000000000E+00  0.61878317376E+02  0.61878317376E+02  0.00000000000E+00 0.  1.
          2   -1    0    0  501    0  0.00000000000E+00 -0.00000000000E+00 -0.69252699831E+03  0.69252699831E+03  0.00000000000E+00 0. -1.
         25    2    1    2    0    0  0.17478923059E+03 -0.34811838629E+00 -0.30292507652E+03  0.37143252164E+03  0.12508844801E+03 0.  0.
          5    1    3    3  502    0  0.99364559496E+02 -0.54515652496E+02 -0.11362155316E+03  0.16053847450E+03  0.41800000000E+01 0. -1.
         -5    1    3    3    0  502  0.75424671096E+02  0.54167534110E+02 -0.18930352336E+03  0.21089404714E+03  0.41800000000E+01 0. -1.
        -11    1    1    2    0    0 -0.14966096247E+03  0.28511408972E+02 -0.29887625893E+03  0.33546731924E+03  0.00000000000E+00 0. -1.
         11    1    1    2    0    0 -0.25128268119E+02 -0.28163290585E+02 -0.28847345486E+02  0.47505474809E+02  0.00000000000E+00 0.  1.
</event>
<event>
 7    1  0.3056346E-009  0.1116900E+03  0.7561462E-02  0.1257472E+00
         -1   -1    0    0    0  501 -0.00000000000E+00  0.00000000000E+00  0.89935281013E+02  0.89935281013E+02  0.00000000000E+00 0.  1.
          1   -1    0    0  501    0  0.00000000000E+00 -0.00000000000E+00 -0.16866808710E+03  0.16866808710E+03  0.00000000000E+00 0. -1.
         25    2    1    2    0    0  0.20941679470E+02 -0.53083208847E+02 -0.28159755212E+02  0.14034630340E+03  0.12509089520E+03 0.  0.
          5    1    3    3  502    0 -0.42380721671E+02 -0.13486808461E+02  0.22488076099E+02  0.50012053932E+02  0.41800000000E+01 0.  1.
         -5    1    3    3    0  502  0.63322401141E+02 -0.39596400386E+02 -0.50647831310E+02  0.90334249464E+02  0.41800000000E+01 0.  1.
        -11    1    1    2    0    0 -0.41680536040E+02 -0.52396338895E+01 -0.34354078049E+02  0.54267149607E+02  0.00000000000E+00 0.  1.
         11    1    1    2    0    0  0.20738856570E+02  0.58322842737E+02 -0.16218972832E+02  0.63989915115E+02  0.00000000000E+00 0. -1.
</event>
<event>
 7    1  0.3056346E-009  0.1072911E+03  0.7561462E-02  0.1265670E+00
         -1   -1    0    0    0  501 -0.00000000000E+00  0.00000000000E+00  0.71429221277E+03  0.71429221277E+03  0.00000000000E+00 0.  1.
          1   -1    0    0  501    0  0.00000000000E+00 -0.00000000000E+00 -0.22975282519E+02  0.22975282519E+02  0.00000000000E+00 0. -1.
         25    2    1    2    0    0  0.46612973239E+02 -0.31342295968E+02  0.27654241491E+03  0.30867113138E+03  0.12508817413E+03 0.  0.
          5    1    3    3  502    0  0.73423376936E+02 -0.11303522245E+02  0.79991905626E+02  0.10924714761E+03  0.41800000000E+01 0.  1.
         -5    1    3    3    0  502 -0.26810403696E+02 -0.20038773724E+02  0.19655050929E+03  0.19942398376E+03  0.41800000000E+01 0.  1.
        -11    1    1    2    0    0 -0.21470197557E+02  0.62687082653E+02  0.22197293874E+03  0.23165194851E+03  0.00000000000E+00 0. -1.
         11    1    1    2    0    0 -0.25142775682E+02 -0.31344786685E+02  0.19280157660E+03  0.19694441541E+03  0.00000000000E+00 0.  1.
</event>
<event>
 7    1  0.3056346E-009  0.9532929E+02  0.7561462E-02  0.1290436E+00
         -3   -1    0    0    0  501 -0.00000000000E+00  0.00000000000E+00  0.16986273832E+03  0.16986273832E+03  0.00000000000E+00 0.  1.
          3   -1    0    0  501    0  0.00000000000E+00 -0.00000000000E+00 -0.93527785905E+02  0.93527785905E+02  0.00000000000E+00 0. -1.
         25    2    1    2    0    0  0.49845289897E+02  0.36437327479E+02  0.27011614641E+02  0.14209417958E+03  0.12509555062E+03 0.  0.
          5    1    3    3  502    0 -0.29084554621E+02  0.38661724786E+02  0.38788397459E+02  0.62150241016E+02  0.41800000000E+01 0. -1.
         -5    1    3    3    0  502  0.78929844518E+02 -0.22243973069E+01 -0.11776782818E+02  0.79943938561E+02  0.41800000000E+01 0. -1.
        -11    1    1    2    0    0 -0.24147282422E+02 -0.99361141824E+01  0.72940304130E+02  0.77473257192E+02  0.00000000000E+00 0.  1.
         11    1    1    2    0    0 -0.25698007475E+02 -0.26501213297E+02 -0.23616966355E+02  0.43823087456E+02  0.00000000000E+00 0. -1.
</event>
<event>
 7    1  0.3186966E-009  0.2642019E+03  0.7561462E-02  0.1104645E+00
          1   -1    0    0  501    0  0.00000000000E+00  0.00000000000E+00  0.10136766050E+04  0.10136766050E+04  0.00000000000E+00 0. -1.
         -1   -1    0    0    0  501 -0.00000000000E+00 -0.00000000000E+00 -0.71336007146E+02  0.71336007146E+02  0.00000000000E+00 0.  1.
         25    2    1    2    0    0 -0.14730123687E+03  0.19112739706E+03  0.38878683589E+03  0.47437521041E+03  0.12509716303E+03 0.  0.
          5    1    3    3  502    0  0.14230423768E+02  0.64645577050E+02  0.85983322852E+02  0.10859171148E+03  0.41800000000E+01 0. -1.
         -5    1    3    3    0  502 -0.16153166064E+03  0.12648182001E+03  0.30280351304E+03  0.36578349893E+03  0.41800000000E+01 0. -1.
        -11    1    1    2    0    0  0.13268768160E+03 -0.10415035555E+03  0.38728476852E+03  0.42242491562E+03  0.00000000000E+00 0.  1.
         11    1    1    2    0    0  0.14613555273E+02 -0.86977041513E+02  0.16626899340E+03  0.18821248608E+03  0.00000000000E+00 0. -1.
</event>
<event>
 7    1  0.3056346E-009  0.1244279E+03  0.7561462E-02  0.1235966E+00
          1   -1    0    0  501    0  0.00000000000E+00  0.00000000000E+00  0.41591827459E+02  0.41591827459E+02  0.00000000000E+00 0. -1.
         -1   -1    0    0    0  501 -0.00000000000E+00 -0.00000000000E+00 -0.44457095545E+03  0.44457095545E+03  0.00000000000E+00 0.  1.
         25    2    1    2    0    0 -0.65964950898E+02  0.36753354020E+02 -0.18975362333E+03  0.23949169201E+03  0.12509056397E+03 0.  0.
          5    1    3    3  502    0 -0.77430175520E+02 -0.12160260825E+02 -0.16629492499E+03  0.18388795094E+03  0.41800000000E+01 0. -1.
         -5    1    3    3    0  502  0.11465224622E+02  0.48913614845E+02 -0.23458698346E+02  0.55603741070E+02  0.41800000000E+01 0. -1.
        -11    1    1    2    0    0 -0.24108581955E+02 -0.75759667429E+01 -0.74873253741E+02  0.79022927823E+02  0.00000000000E+00 0.  1.
         11    1    1    2    0    0  0.90073532853E+02 -0.29177387277E+02 -0.13835225092E+03  0.16764816308E+03  0.00000000000E+00 0. -1.
</event>
<event>
 7    1  0.3056346E-009  0.1220473E+03  0.7561462E-02  0.1239757E+00
         -2   -1    0    0    0  501 -0.00000000000E+00  0.00000000000E+00  0.27879400584E+03  0.27879400584E+03  0.00000000000E+00 0.  1.
          2   -1    0    0  501    0  0.00000000000E+00 -0.00000000000E+00 -0.86562967397E+02  0.86562967397E+02  0.00000000000E+00 0. -1.
         25    2    1    2    0    0 -0.18011858057E+02  0.60265811068E+02  0.21491611286E+03  0.25650155174E+03  0.12509082886E+03 0.  0.
          5    1    3    3  502    0  0.30083776932E+02  0.80542432331E+02  0.11443512316E+03  0.14319562442E+03  0.41800000000E+01 0.  1.
         -5    1    3    3    0  502 -0.48095634989E+02 -0.20276621263E+02  0.10048098970E+03  0.11330592732E+03  0.41800000000E+01 0.  1.
        -11    1    1    2    0    0 -0.33128841715E+02 -0.36397696101E+02 -0.38848607387E+01  0.49370077757E+02  0.00000000000E+00 0.  1.
         11    1    1    2    0    0  0.51140699771E+02 -0.23868114967E+02 -0.18800213681E+02  0.59485343738E+02  0.00000000000E+00 0. -1.
</event>
<event>
 7    1  0.3056346E-009  0.9550414E+02  0.7561462E-02  0.1290045E+00
         -2   -1    0    0    0  501 -0.00000000000E+00  0.00000000000E+00  0.26050262205E+02  0.26050262205E+02  0.00000000000E+00 0.  1.
          2   -1    0    0  501    0  0.00000000000E+00 -0.00000000000E+00 -0.49084376120E+03  0.49084376120E+03  0.00000000000E+00 0. -1.
         25    2    1    2    0    0  0.95571561029E+01  0.95234972323E+01 -0.19716349116E+03  0.23388728704E+03  0.12509110504E+03 0.  0.
          5    1    3    3  502    0  0.42207900390E+02  0.40816096078E+02 -0.17236803474E+03  0.18214190170E+03  0.41800000000E+01 0.  1.
         -5    1    3    3    0  502 -0.32650744287E+02 -0.31292598846E+02 -0.24795456419E+02  0.51745385341E+02  0.41800000000E+01 0.  1.
        -11    1    1    2    0    0 -0.42909312580E+02  0.14862617312E+02 -0.92188688574E+02  0.10276604887E+03  0.00000000000E+00 0.  1.
         11    1    1    2    0    0  0.33352156477E+02 -0.24386114544E+02 -0.17544131927E+03  0.18024068750E+03  0.00000000000E+00 0. -1.
</event>
<event>
 7    1  0.3056346E-009  0.6252272E+02  0.7561462E-02  0.1387540E+00
          1   -1    0    0  501    0  0.00000000000E+00  0.00000000000E+00  0.21821129925E+03  0.21821129925E+03  0.00000000000E+00 0. -1.
         -1   -1    0    0    0  501 -0.00000000000E+00 -0.00000000000E+00 -0.96959703466E+02  0.96959703466E+02  0.00000000000E+00 0.  1.
         25    2    1    2    0    0  0.24550907593E+02  0.98536571258E+01 -0.35477669760E+02  0.13268744198E+03  0.12508977010E+03 0.  0.
          5    1    3    3  502    0  0.85986167367E+01  0.17311128428E+02 -0.81168373056E+02  0.83542734943E+02  0.41800000000E+01 0. -1.
         -5    1    3    3    0  502  0.15952290856E+02 -0.74574713020E+01  0.45690703296E+02  0.49144707034E+02  0.41800000000E+01 0. -1.
        -11    1    1    2    0    0 -0.10849066411E+02 -0.46655950378E+02  0.52331323680E+02  0.70943973569E+02  0.00000000000E+00 0.  1.
         11    1    1    2    0    0 -0.13701841183E+02  0.36802293252E+02  0.10439794186E+03  0.11153958717E+03  0.00000000000E+00 0. -1.
</event>
<event>
 7    1  0.3056346E-009  0.1040063E+03  0.7561462E-02  0.1272090E+00
         -1   -1    0    0    0  501 -0.00000000000E+00  0.00000000000E+00  0.23197484998E+03  0.23197484998E+03  0.00000000000E+00 0.  1.
          1   -1    0    0  501    0  0.00000000000E+00 -0.00000000000E+00 -0.90739293130E+02  0.90739293130E+02  0.00000000000E+00 0. -1.
         25    2    1    2    0    0 -0.17103799243E+02  0.63272881636E+02  0.15411710661E+03  0.20903500003E+03  0.12509017223E+03 0.  0.
          5    1    3    3  502    0 -0.19830734802E+02 -0.36256917798E+02  0.43385701263E+02  0.60063413199E+02  0.41800000000E+01 0.  1.
         -5    1    3    3    0  502  0.27269355585E+01  0.99529799434E+02  0.11073140535E+03  0.14897158683E+03  0.41800000000E+01 0.  1.
        -11    1    1    2    0    0  0.12198080036E+02 -0.21165651493E+02 -0.51076757123E+02  0.56618133826E+02  0.00000000000E+00 0. -1.
         11    1    1    2    0    0  0.49057192076E+01 -0.42107230143E+02  0.38195207355E+02  0.57061009246E+02  0.00000000000E+00 0.  1.
</event>
<event>
 7    1  0.3056346E-009  0.1070175E+03  0.7561462E-02  0.1266195E+00
         -1   -1    0    0    0  501 -0.00000000000E+00  0.00000000000E+00  0.21356640312E+02  0.21356640312E+02  0.00000000000E+00 0.  1.
          1   -1    0    0  501    0  0.00000000000E+00 -0.00000000000E+00 -0.64049708509E+03  0.64049708509E+03  0.00000000000E+00 0. -1.
         25    2    1    2    0    0 -0.28849426629E+02  0.14561729143E+02 -0.26561681662E+03  0.29536923794E+03  0.12508541112E+03 0.  0.
          5    1    3    3  502    0 -0.14388985342E+02  0.67542454856E+02 -0.18692526011E+03  0.19931771465E+03  0.41800000000E+01 0.  1.
         -5    1    3    3    0  502 -0.14460441288E+02 -0.52980725713E+02 -0.78691556509E+02  0.96051523284E+02  0.41800000000E+01 0.  1.
        -11    1    1    2    0    0 -0.18159391618E+02  0.23209712477E+02 -0.60198332005E+02  0.67024573355E+02  0.00000000000E+00 0.  1.
         11    1    1    2    0    0  0.47008818247E+02 -0.37771441620E+02 -0.29332529615E+03  0.29945991411E+03  0.00000000000E+00 0. -1.
</event>
<event>
 7    1  0.3056346E-009  0.1038054E+03  0.7561462E-02  0.1272491E+00
          2   -1    0    0  501    0  0.00000000000E+00  0.00000000000E+00  0.99621010210E+02  0.99621010210E+02  0.00000000000E+00 0. -1.
         -2   -1    0    0    0  501 -0.00000000000E+00 -0.00000000000E+00 -0.15416861819E+03  0.15416861819E+03  0.00000000000E+00 0.  1.
         25    2    1    2    0    0  0.31036316035E+02  0.53460831440E+02 -0.28381189589E+02  0.14238970501E+03  0.12509205713E+03 0.  0.
          5    1    3    3  502    0  0.77238160567E+02  0.21165104289E+02 -0.30566309551E+02  0.85822297609E+02  0.41800000000E+01 0.  1.
         -5    1    3    3    0  502 -0.46201844532E+02  0.32295727150E+02  0.21851199628E+01  0.56567407397E+02  0.41800000000E+01 0.  1.
        -11    1    1    2    0    0 -0.13789793722E+02 -0.51754717948E+02 -0.55626299352E+02  0.77220427481E+02  0.00000000000E+00 0.  1.
         11    1    1    2    0    0 -0.17246522313E+02 -0.17061134920E+01  0.29459880957E+02  0.34179495917E+02  0.00000000000E+00 0. -1.
</event>
<event>
 7    1  0.3056346E-009  0.8286781E+02  0.7561462E-02  0.1321105E+00
          2   -1    0    0  501    0  0.00000000000E+00  0.00000000000E+00  0.54614759316E+03  0.54614759316E+03  0.00000000000E+00 0. -1.
         -2   -1    0    0    0  501 -0.00000000000E+00 -0.00000000000E+00 -0.24647048347E+02  0.24647048347E+02  0.00000000000E+00 0.  1.
         25    2    1    2    0    0  0.39567629627E+02  0.29103131020E+01  0.31862631528E+03  0.34459646694E+03  0.12509967625E+03 0.  0.
          5    1    3    3  502    0  0.22357354049E+02  0.37091559353E+02  0.28694215284E+02  0.52119722237E+02  0.41800000000E+01 0.  1.
         -5    1    3    3    0  502  0.17210275578E+02 -0.34181246251E+02  0.28993210000E+03  0.29247674470E+03  0.41800000000E+01 0.  1.
        -11    1    1    2    0    0  0.15700959030E+02 -0.20414859067E+02  0.15497142438E+02  0.30057411880E+02  0.00000000000E+00 0.  1.
         11    1    1    2    0    0 -0.55268588657E+02  0.17504545965E+02  0.18737708709E+03  0.19614076269E+03  0.00000000000E+00 0. -1.
</event>
<event>
 7    1  0.3056346E-009  0.1317225E+03  0.7561462E-02  0.1224922E+00
         -2   -1    0    0    0  501 -0.00000000000E+00  0.00000000000E+00  0.51046503339E+02  0.51046503339E+02  0.00000000000E+00 0.  1.
          2   -1    0    0  501    0  0.00000000000E+00 -0.00000000000E+00 -0.39393310225E+03  0.39393310225E+03  0.00000000000E+00 0. -1.
         25    2    1    2    0    0 -0.80911636353E+02  0.38336233193E+02 -0.16301002981E+03  0.22413692650E+03  0.12509489330E+03 0.  0.
          5    1    3    3  502    0 -0.49938686275E+02  0.82632228866E+02 -0.82441873476E+02  0.12702792030E+03  0.41800000000E+01 0.  1.
         -5    1    3    3    0  502 -0.30972950077E+02 -0.44295995674E+02 -0.80568156332E+02  0.97109006194E+02  0.41800000000E+01 0.  1.
        -11    1    1    2    0    0  0.77671706976E+02 -0.36524049974E+01 -0.16606818195E+03  0.18337086787E+03  0.00000000000E+00 0.  1.
         11    1    1    2    0    0  0.32399293762E+01 -0.34683828195E+02 -0.13808387153E+02  0.37471811224E+02  0.00000000000E+00 0. -1.
</event>
<event>
 7    1  0.3056346E-009  0.1438627E+03  0.7561462E-02  0.1208224E+00
          1   -1    0    0  501    0  0.00000000000E+00  0.00000000000E+00  0.28820513839E+02  0.28820513839E+02  0.00000000000E+00 0. -1.
         -1   -1    0    0    0  501 -0.00000000000E+00 -0.00000000000E+00 -0.10617475402E+04  0.10617475402E+04  0.00000000000E+00 0.  1.
         25    2    1    2    0    0  0.13048181630E+03  0.36920639277E+02 -0.53786136861E+03  0.56862570448E+03  0.12510676225E+03 0.  0.
          5    1    3    3  502    0  0.19439924045E+02  0.90449447042E+01 -0.33451746779E+03  0.33522996633E+03  0.41800000000E+01 0.  1.
         -5    1    3    3    0  502  0.11104189226E+03  0.27875694572E+02 -0.20334390083E+03  0.23339573815E+03  0.41800000000E+01 0.  1.
        -11    1    1    2    0    0 -0.68955949947E+02 -0.53864891530E+02 -0.38404734098E+03  0.39388920992E+03  0.00000000000E+00 0.  1.
         11    1    1    2    0    0 -0.61525866355E+02  0.16944252253E+02 -0.11101831679E+03  0.12805313966E+03  0.00000000000E+00 0. -1.
</event>
<event>
 7    1  0.3056346E-009  0.9726550E+02  0.7561462E-02  0.1286154E+00
          2   -1    0    0  501    0  0.00000000000E+00  0.00000000000E+00  0.27081401141E+02  0.27081401141E+02  0.00000000000E+00 0. -1.
         -2   -1    0    0    0  501 -0.00000000000E+00 -0.00000000000E+00 -0.47063320757E+03  0.47063320757E+03  0.00000000000E+00 0.  1.
         25    2    1    2    0    0  0.28334570131E+02  0.99683772663E+01 -0.25709676241E+03  0.28748636045E+03  0.12508975095E+03 0.  0.
          5    1    3    3  502    0 -0.44062013636E+02 -0.46133341055E+01 -0.15597562067E+03  0.16219929266E+03  0.41800000000E+01 0.  1.
         -5    1    3    3    0  502  0.72396583767E+02  0.14581711372E+02 -0.10112114174E+03  0.12528706779E+03  0.41800000000E+01 0.  1.
        -11    1    1    2    0    0 -0.47111195423E+02  0.10520332474E+02 -0.17250659947E+03  0.17913310411E+03  0.00000000000E+00 0.  1.
         11    1    1    2    0    0  0.18776625292E+02 -0.20488709740E+02 -0.13948444549E+02  0.31095144147E+02  0.00000000000E+00 0. -1.
</event>
<event>
 7    1  0.3308027E-009  0.1226943E+03  0.7561462E-02  0.1238717E+00
         -2   -1    0    0    0  501 -0.00000000000E+00  0.00000000000E+00  0.28968330136E+02  0.28968330136E+02  0.00000000000E+00 0.  1.
          2   -1    0    0  501    0  0.00000000000E+00 -0.00000000000E+00 -0.75452225989E+03  0.75452225989E+03  0.00000000000E+00 0. -1.
         25    2    1    2    0    0 -0.99253422994E+02  0.10583675280E+02 -0.37701774474E+03  0.40957578084E+03  0.12508670689E+03 0.  0.
          5    1    3    3  502    0 -0.99597473135E+02  0.24949437401E+02 -0.38056592821E+03  0.39419542006E+03  0.41800000000E+01 0. -1.
         -5    1    3    3    0  502  0.34405014138E+00 -0.14365762121E+02  0.35481834667E+01  0.15380360781E+02  0.41800000000E+01 0. -1.
        -11    1    1    2    0    0  0.65494838461E+02 -0.44991901119E+02 -0.15156249552E+03  0.17112870910E+03  0.00000000000E+00 0.  1.
         11    1    1    2    0    0  0.33758584533E+02  0.34408225839E+02 -0.19697368950E+03  0.20278610009E+03  0.00000000000E+00 0. -1.
</event>
<event>
 7    1  0.3056346E-009  0.1046466E+03  0.7561462E-02  0.1270817E+00
         -2   -1    0    0    0  501 -0.00000000000E+00  0.00000000000E+00  0.33061087929E+03  0.33061087929E+03  0.00000000000E+00 0.  1.
          2   -1    0    0  501    0  0.00000000000E+00 -0.00000000000E+00 -0.68931109902E+02  0.68931109902E+02  0.00000000000E+00 0. -1.
         25    2    1    2    0    0  0.88700420038E+02  0.49427196084E+02  0.17154873857E+03  0.23534443527E+03  0.12508885354E+03 0.  0.
          5    1    3    3  502    0  0.35534342705E+02  0.12224117396E+01 -0.12368891013E+02  0.37876716685E+02  0.41800000000E+01 0. -1.
         -5    1    3    3    0  502  0.53166077333E+02  0.48204784344E+02  0.18391762958E+03  0.19746771859E+03  0.41800000000E+01 0. -1.
        -11    1    1    2    0    0 -0.48638254693E+02 -0.29142770464E+02  0.10292157541E+03  0.11750672992E+03  0.00000000000E+00 0.  1.
         11    1    1    2    0    0 -0.40062165346E+02 -0.20284425620E+02 -0.12790544597E+02  0.46690824002E+02  0.00000000000E+00 0. -1.
</event>
<event>
 7    1  0.3056346E-009  0.9656182E+02  0.7561462E-02  0.1287697E+00
          1   -1    0    0  501    0  0.00000000000E+00  0.00000000000E+00  0.66420582457E+02  0.66420582457E+02  0.00000000000E+00 0. -1.
         -1   -1    0    0    0  501 -0.00000000000E+00 -0.00000000000E+00 -0.37181151017E+03  0.37181151017E+03  0.00000000000E+00 0.  1.
         25    2    1    2    0    0 -0.49706652733E+01  0.95013542426E+02 -0.24472912128E+03  0.29084851662E+03  0.12509290973E+03 0.  0.
          5    1    3    3  502    0 -0.59462813064E+01  0.69988331846E+02 -0.33205055799E+02  0.77805995826E+02  0.41800000000E+01 0.  1.
         -5    1    3    3    0  502  0.97561603313E+00  0.25025210580E+02 -0.21152406548E+03  0.21304252080E+03  0.41800000000E+01 0.  1.
        -11    1    1    2    0    0  0.10811185348E+02 -0.26703910438E+02 -0.72314083703E+02  0.77841552292E+02  0.00000000000E+00 0.  1.
         11    1    1    2    0    0 -0.58405200747E+01 -0.68309631987E+02  0.11652277263E+02  0.69542023715E+02  0.00000000000E+00 0. -1.
</event>
<event>
 7    1  0.3056346E-009  0.1109714E+03  0.7561462E-02  0.1258782E+00
          2   -1    0    0  501    0  0.00000000000E+00  0.00000000000E+00  0.15721542897E+03  0.15721542897E+03  0.00000000000E+00 0. -1.
         -2   -1    0    0    0  501 -0.00000000000E+00 -0.00000000000E+00 -0.10339951068E+03  0.10339951068E+03  0.00000000000E+00 0.  1.
         25    2    1    2    0    0  0.66707167468E+02 -0.69586773457E+01  0.13208825677E+02  0.14255111322E+03  0.12509227563E+03 0.  0.
          5    1    3    3  502    0 -0.25262876877E+02 -0.36825058802E+02 -0.94781625048E-01  0.44852862645E+02  0.41800000000E+01 0.  1.
         -5    1    3    3    0  502  0.91970044345E+02  0.29866381456E+02  0.13303607302E+02  0.97698250575E+02  0.41800000000E+01 0.  1.
        -11    1    1    2    0    0 -0.18995479152E+02  0.23124196911E+02 -0.22409625935E+02  0.37386468749E+02  0.00000000000E+00 0.  1.
         11    1    1    2    0    0 -0.47711688317E+02 -0.16165519565E+02  0.63016718551E+02  0.80677357677E+02  0.00000000000E+00 0. -1.
</event>
<event>
 7    1  0.3056346E-009  0.1347600E+03  0.7561462E-02  0.1220559E+00
         -4   -1    0    0    0  501 -0.00000000000E+00  0.00000000000E+00  0.35857175974E+03  0.35857175974E+03  0.00000000000E+00 0. -1.
          4   -1    0    0  501    0  0.00000000000E+00 -0.00000000000E+00 -0.82257146233E+02  0.82257146233E+02  0.00000000000E+00 0.  1.
         25    2    1    2    0    0 -0.73058105714E+02  0.94420636416E+02  0.72243508869E+02  0.18741905349E+03  0.12511608068E+03 0.  0.
          5    1    3    3  502    0  0.18458835621E+02  0.37138142965E+02 -0.19179627321E+02  0.45883556744E+02  0.41800000000E+01 0.  1.
         -5    1    3    3    0  502 -0.91516941335E+02  0.57282493451E+02  0.91423136189E+02  0.14153549674E+03  0.41800000000E+01 0.  1.
        -11    1    1    2    0    0  0.43312740787E+02 -0.47955078403E+02  0.30832671639E+02  0.71598440622E+02  0.00000000000E+00 0.  1.
         11    1    1    2    0    0  0.29745364927E+02 -0.46465558013E+02  0.17323843300E+03  0.18181141187E+03  0.00000000000E+00 0. -1.
</event>
<event>
 7    1  0.3056346E-009  0.1773851E+03  0.7561462E-02  0.1170358E+00
          2   -1    0    0  501    0  0.00000000000E+00  0.00000000000E+00  0.71246241351E+03  0.71246241351E+03  0.00000000000E+00 0. -1.
         -2   -1    0    0    0  501 -0.00000000000E+00 -0.00000000000E+00 -0.55594624401E+02  0.55594624401E+02  0.00000000000E+00 0.  1.
         25    2    1    2    0    0 -0.13508044025E+03 -0.74123471886E+02  0.22375679823E+03  0.29909156728E+03  0.12509055298E+03 0.  0.
          5    1    3    3  502    0  0.14101025223E+02 -0.98052851009E+01  0.80613846391E+02  0.82529068565E+02  0.41800000000E+01 0. -1.
         -5    1    3    3    0  502 -0.14918146547E+03 -0.64318186785E+02  0.14314295184E+03  0.21656249872E+03  0.41800000000E+01 0. -1.
        -11    1    1    2    0    0  0.14646272597E+03  0.71092742371E+02  0.36253157839E+03  0.39740993124E+03  0.00000000000E+00 0.  1.
         11    1    1    2    0    0 -0.11382285726E+02  0.30307295143E+01  0.70579412495E+02  0.71555539394E+02  0.00000000000E+00 0. -1.
</event>
<event>
 7    1  0.3056346E-009  0.9546248E+02  0.7561462E-02  0.1290138E+00
         -2   -1    0    0    0  501 -0.00000000000E+00  0.00000000000E+00  0.15578680590E+02  0.15578680590E+02  0.00000000000E+00 0. -1.
          2   -1    0    0  501    0  0.00000000000E+00 -0.00000000000E+00 -0.90802710209E+03  0.90802710209E+03  0.00000000000E+00 0.  1.
         25    2    1    2    0    0 -0.10667477719E+02  0.54938586045E+02 -0.55692047464E+03  0.57353777211E+03  0.12511242005E+03 0.  0.
          5    1    3    3  502    0 -0.42152971478E+02  0.55566735429E+02 -0.15106739094E+03  0.16644327591E+03  0.41800000000E+01 0. -1.
         -5    1    3    3    0  502  0.31485493760E+02 -0.62814938394E+00 -0.40585308370E+03  0.40709449621E+03  0.41800000000E+01 0. -1.
        -11    1    1    2    0    0 -0.25429784144E+02 -0.45257712141E+02 -0.11211108497E+03  0.12354687290E+03  0.00000000000E+00 0. -1.
         11    1    1    2    0    0  0.36097261862E+02 -0.96808739037E+01 -0.22341686188E+03  0.22652113766E+03  0.00000000000E+00 0.  1.
</event>
<event>
 7    1  0.3056346E-009  0.1846433E+03  0.7561462E-02  0.1163383E+00
          1   -1    0    0  501    0  0.00000000000E+00  0.00000000000E+00  0.13296871777E+03  0.13296871777E+03  0.00000000000E+00 0. -1.
         -1   -1    0    0    0  501 -0.00000000000E+00 -0.00000000000E+00 -0.32932774479E+03  0.32932774479E+03  0.00000000000E+00 0.  1.
         25    2    1    2    0    0  0.83398677601E+02 -0.15323928269E+03 -0.62040338238E+02  0.22346065149E+03  0.12509213409E+03 0.  0.
          5    1    3    3  502    0  0.38564553402E+02 -0.11869052245E+03 -0.95835127323E+02  0.15740555558E+03  0.41800000000E+01 0. -1.
         -5    1    3    3    0  502  0.44834124199E+02 -0.34548760243E+02  0.33794789085E+02  0.66055095914E+02  0.41800000000E+01 0. -1.
        -11    1    1    2    0    0 -0.60072139156E+02  0.40295735719E+02 -0.16962670043E+02  0.74297647304E+02  0.00000000000E+00 0. -1.
         11    1    1    2    0    0 -0.23326538445E+02  0.11294354697E+03 -0.11735601874E+03  0.16453816376E+03  0.00000000000E+00 0.  1.
</event>
<event>
 7    1  0.3056346E-009  0.6055930E+02  0.7561462E-02  0.1395499E+00
          1   -1    0    0  501    0  0.00000000000E+00  0.00000000000E+00  0.53121259528E+03  0.53121259528E+03  0.00000000000E+00 0. -1.
         -1   -1    0    0    0  501 -0.00000000000E+00 -0.00000000000E+00 -0.24840755358E+02  0.24840755358E+02  0.00000000000E+00 0.  1.
         25    2    1    2    0    0  0.30304866413E+02  0.32579184853E+01  0.24642123634E+03  0.27802324353E+03  0.12507797275E+03 0.  0.
          5    1    3    3  502    0  0.36021919075E+02 -0.14157561322E+02  0.25457247802E+03  0.25753181194E+03  0.41800000000E+01 0.  1.
         -5    1    3    3    0  502 -0.57170526620E+01  0.17415479807E+02 -0.81512416786E+01  0.20491431599E+02  0.41800000000E+01 0.  1.
        -11    1    1    2    0    0  0.14539101345E+02 -0.10539844209E+02  0.44216947573E+01  0.18493922472E+02  0.00000000000E+00 0.  1.
         11    1    1    2    0    0 -0.44843967757E+02  0.72819257238E+01  0.25552890883E+03  0.25953618463E+03  0.00000000000E+00 0. -1.
</event>
<event>
 7    1  0.3056346E-009  0.1253089E+03  0.7561462E-02  0.1234587E+00
         -1   -1    0    0    0  501 -0.00000000000E+00  0.00000000000E+00  0.38370108676E+03  0.38370108676E+03  0.00000000000E+00 0.  1.
          1   -1    0    0  501    0  0.00000000000E+00 -0.00000000000E+00 -0.43568920857E+02  0.43568920857E+02  0.00000000000E+00 0. -1.
         25    2    1    2    0    0 -0.24976198658E+02  0.66300056569E+02  0.17868326859E+03  0.22933555595E+03  0.12509028239E+03 0.  0.
          5    1    3    3  502    0 -0.47711951098E+02 -0.21496000192E+02  0.56649579142E+02  0.77234419262E+02  0.41800000000E+01 0. -1.
         -5    1    3    3    0  502  0.22735752440E+02  0.87796056761E+02  0.12203368945E+03  0.15210113669E+03  0.41800000000E+01 0. -1.
        -11    1    1    2    0    0 -0.28467537342E+02 -0.36002706715E+02  0.10462564883E+03  0.11425026024E+03  0.00000000000E+00 0.  1.
         11    1    1    2    0    0  0.53443735999E+02 -0.30297349854E+02  0.56823248487E+02  0.83684191424E+02  0.00000000000E+00 0. -1.
</event>
<event>
 7    1  0.3056346E-009  0.1356044E+03  0.7561462E-02  0.1219369E+00
         -1   -1    0    0    0  501 -0.00000000000E+00  0.00000000000E+00  0.25529923983E+02  0.25529923983E+02  0.00000000000E+00 0.  1.
          1   -1    0    0  501    0  0.00000000000E+00 -0.00000000000E+00 -0.80751782577E+03  0.80751782577E+03  0.00000000000E+00 0. -1.
         25    2    1    2    0    0  0.89372207008E+02 -0.27188386228E+02 -0.41419327972E+03  0.44264001302E+03  0.12509000132E+03 0.  0.
          5    1    3    3  502    0  0.10837214129E+03  0.24863024806E+01 -0.37207771844E+03  0.38756935337E+03  0.41800000000E+01 0. -1.
         -5    1    3    3    0  502 -0.18999934284E+02 -0.29674688709E+02 -0.42115561279E+02  0.55070659653E+02  0.41800000000E+01 0. -1.
        -11    1    1    2    0    0  0.12484156680E+02  0.21951819873E+02 -0.11647982945E+03  0.11918593554E+03  0.00000000000E+00 0. -1.
         11    1    1    2    0    0 -0.10185636369E+03  0.52365663555E+01 -0.25131479262E+03  0.27122180119E+03  0.00000000000E+00 0.  1.
</event>
<event>
 7    1  0.3056346E-009  0.1387906E+03  0.7561462E-02  0.1214966E+00
          3   -1    0    0  501    0  0.00000000000E+00  0.00000000000E+00  0.62384538644E+02  0.62384538644E+02  0.00000000000E+00 0. -1.
         -3   -1    0    0    0  501 -0.00000000000E+00 -0.00000000000E+00 -0.35230910901E+03  0.35230910901E+03  0.00000000000E+00 0.  1.
         25    2    1    2    0    0 -0.46156556482E+01  0.10015917762E+03 -0.13571830091E+03  0.21004782822E+03  0.12508983892E+03 0.  0.
          5    1    3    3  502    0 -0.19678127843E+02 -0.16862996511E+02 -0.70371635322E+02  0.75108114240E+02  0.41800000000E+01 0.  1.
         -5    1    3    3    0  502  0.15062472195E+02  0.11702217413E+03 -0.65346665585E+02  0.13493971398E+03  0.41800000000E+01 0.  1.
        -11    1    1    2    0    0 -0.41449815526E+02 -0.53795320574E+02 -0.92565089323E+02  0.11480557253E+03  0.00000000000E+00 0.  1.
         11    1    1    2    0    0  0.46065471174E+02 -0.46363857046E+02 -0.61641180141E+02  0.89840246904E+02  0.00000000000E+00 0. -1.
</event>
<event>
 7    1  0.3169496E-009  0.1294079E+03  0.7561462E-02  0.1228337E+00
         -1   -1    0    0    0  501 -0.00000000000E+00  0.00000000000E+00  0.34689030920E+02  0.34689030920E+02  0.00000000000E+00 0.  1.
          1   -1    0    0  501    0  0.00000000000E+00 -0.00000000000E+00 -0.79767329051E+03  0.79767329051E+03  0.00000000000E+00 0. -1.
         25    2    1    2    0    0 -0.56029173506E+02  0.58835840100E+02 -0.16678407246E+03  0.22375311247E+03  0.12509038392E+03 0.  0.
          5    1    3    3  502    0 -0.34714190457E+02  0.91531602756E+02 -0.73311712075E+02  0.12237315412E+03  0.41800000000E+01 0.  1.
         -5    1    3    3    0  502 -0.21314983048E+02 -0.32695762657E+02 -0.93472360388E+02  0.10137995835E+03  0.41800000000E+01 0.  1.
        -11    1    1    2    0    0  0.73014517872E+02 -0.14960129112E+02 -0.39623015737E+03  0.40317894649E+03  0.00000000000E+00 0.  1.
         11    1    1    2    0    0 -0.16985344366E+02 -0.43875710988E+02 -0.19997002975E+03  0.20543026247E+03  0.00000000000E+00 0. -1.
</event>
<event>
 7    1  0.4480375E-009  0.1875659E+03  0.7561462E-02  0.1160675E+00
          1   -1    0    0  501    0  0.00000000000E+00  0.00000000000E+00  0.58181109690E+03  0.58181109690E+03  0.00000000000E+00 0. -1.
         -1   -1    0    0    0  501 -0.00000000000E+00 -0.00000000000E+00 -0.69532190165E+02  0.69532190165E+02  0.00000000000E+00 0.  1.
         25    2    1    2    0    0 -0.13688591238E+03  0.97342240873E+02  0.23999717988E+03  0.31852553068E+03  0.12508638006E+03 0.  0.
          5    1    3    3  502    0  0.19746628863E+02 -0.11829571467E+01  0.80075315642E+01  0.21746762997E+02  0.41800000000E+01 0.  1.
         -5    1    3    3    0  502 -0.15663254125E+03  0.98525198020E+02  0.23198964831E+03  0.29677876768E+03  0.41800000000E+01 0.  1.
        -11    1    1    2    0    0  0.96103411982E+02 -0.81718231264E+02  0.25744947336E+03  0.28669490133E+03  0.00000000000E+00 0. -1.
         11    1    1    2    0    0  0.40782500401E+02 -0.15624009609E+02  0.14832253505E+02  0.46122855064E+02  0.00000000000E+00 0.  1.
</event>
<event>
 7    1  0.3056346E-009  0.1233967E+03  0.7561462E-02  0.1237596E+00
          2   -1    0    0  501    0  0.00000000000E+00  0.00000000000E+00  0.13230914530E+04  0.13230914530E+04  0.00000000000E+00 0. -1.
         -2   -1    0    0    0  501 -0.00000000000E+00 -0.00000000000E+00 -0.12972764505E+02  0.12972764505E+02  0.00000000000E+00 0.  1.
         25    2    1    2    0    0  0.56951508370E+02  0.21011610524E+02  0.94198555779E+03  0.95219177852E+03  0.12508968751E+03 0.  0.
          5    1    3    3  502    0  0.65832232367E+02 -0.39384531912E+02  0.58090913599E+03  0.58596750835E+03  0.41800000000E+01 0.  1.
         -5    1    3    3    0  502 -0.88807239970E+01  0.60396142436E+02  0.36107642180E+03  0.36622427017E+03  0.41800000000E+01 0.  1.
        -11    1    1    2    0    0 -0.55763449568E+01 -0.49647986355E+02  0.16576749159E+03  0.17313254876E+03  0.00000000000E+00 0.  1.
         11    1    1    2    0    0 -0.51375163413E+02  0.28636375831E+02  0.20236563916E+03  0.21073989027E+03  0.00000000000E+00 0. -1.
</event>
<event>
 7    1  0.3056346E-009  0.1031376E+03  0.7561462E-02  0.1273833E+00
         -2   -1    0    0    0  501 -0.00000000000E+00  0.00000000000E+00  0.67587620795E+02  0.67587620795E+02  0.00000000000E+00 0.  1.
          2   -1    0    0  501    0  0.00000000000E+00 -0.00000000000E+00 -0.23960947057E+03  0.23960947057E+03  0.00000000000E+00 0. -1.
         25    2    1    2    0    0 -0.20114902828E+02 -0.20203006344E+02 -0.16669893692E+03  0.21035733170E+03  0.12509556607E+03 0.  0.
          5    1    3    3  502    0 -0.53261055757E+02  0.30443436562E+02 -0.51707395822E+02  0.80340961363E+02  0.41800000000E+01 0.  1.
         -5    1    3    3    0  502  0.33146152929E+02 -0.50646442905E+02 -0.11499154109E+03  0.13001637034E+03  0.41800000000E+01 0.  1.
        -11    1    1    2    0    0  0.17893816956E+02  0.50581164646E+02 -0.26402741221E+02  0.59797555520E+02  0.00000000000E+00 0. -1.
         11    1    1    2    0    0  0.22210858724E+01 -0.30378158302E+02  0.21079828359E+02  0.37042204146E+02  0.00000000000E+00 0.  1.
</event>
<event>
 7    1  0.3056346E-009  0.1401556E+03  0.7561462E-02  0.1213120E+00
          1   -1    0    0  501    0  0.00000000000E+00  0.00000000000E+00  0.91022206271E+03  0.91022206271E+03  0.00000000000E+00 0. -1.
         -1   -1    0    0    0  501 -0.00000000000E+00 -0.00000000000E+00 -0.24593166674E+02  0.24593166674E+02  0.00000000000E+00 0.  1.
         25    2    1    2    0    0 -0.21628002068E+02  0.99888779809E+02  0.48546875788E+03  0.51163776309E+03  0.12509095466E+03 0.  0.
          5    1    3    3  502    0 -0.55436200265E+02  0.23874856985E+02  0.32760682675E+03  0.33314694420E+03  0.41800000000E+01 0.  1.
         -5    1    3    3    0  502  0.33808198197E+02  0.76013922824E+02  0.15786193113E+03  0.17849081889E+03  0.41800000000E+01 0.  1.
        -11    1    1    2    0    0 -0.35696733606E+02 -0.36887248563E+02  0.17778868838E+03  0.18505065148E+03  0.00000000000E+00 0. -1.
         11    1    1    2    0    0  0.57324735674E+02 -0.63001531245E+02  0.22237144978E+03  0.23812681482E+03  0.00000000000E+00 0.  1.
</event>
<event>
 7    1  0.3056346E-009  0.1152827E+03  0.7561462E-02  0.1251089E+00
         -1   -1    0    0    0  501 -0.00000000000E+00  0.00000000000E+00  0.10143212637E+03  0.10143212637E+03  0.00000000000E+00 0.  1.
          1   -1    0    0  501    0  0.00000000000E+00 -0.00000000000E+00 -0.16790401217E+03  0.16790401217E+03  0.00000000000E+00 0. -1.
         25    2    1    2    0    0 -0.22170235741E+02 -0.58645442468E+02 -0.70792321986E+02  0.15681106435E+03  0.12508936716E+03 0.  0.
          5    1    3    3  502    0 -0.50158248627E+02  0.29678022865E+01  0.99345428768E+01  0.51388960856E+02  0.41800000000E+01 0. -1.
         -5    1    3    3    0  502  0.27988012886E+02 -0.61613244754E+02 -0.80726864863E+02  0.10542210349E+03  0.41800000000E+01 0. -1.
        -11    1    1    2    0    0  0.54043581108E+02  0.59603707435E+02  0.52048498255E+01  0.80625064717E+02  0.00000000000E+00 0.  1.
         11    1    1    2    0    0 -0.31873345368E+02 -0.95826496679E+00 -0.88441363359E+00  0.31900009469E+02  0.00000000000E+00 0. -1.
</event>
<event>
 7    1  0.3056346E-009  0.9862954E+02  0.7561462E-02  0.1283205E+00
          2   -1    0    0  501    0  0.00000000000E+00  0.00000000000E+00  0.21349892316E+03  0.21349892316E+03  0.00000000000E+00 0. -1.
         -2   -1    0    0    0  501 -0.00000000000E+00 -0.00000000000E+00 -0.66254727189E+02  0.66254727189E+02  0.00000000000E+00 0.  1.
         25    2    1    2    0    0 -0.29013241130E+02 -0.21477228166E+02  0.43231482177E+02  0.13717410974E+03  0.12507891846E+03 0.  0.
          5    1    3    3  502    0 -0.12096939341E+02 -0.73302160219E+02  0.33645742319E+02  0.81664257851E+02  0.41800000000E+01 0. -1.
         -5    1    3    3    0  502 -0.16916301789E+02  0.51824932053E+02  0.95857398579E+01  0.55509851892E+02  0.41800000000E+01 0. -1.
        -11    1    1    2    0    0  0.41203694466E+02  0.31919182592E+02  0.11281507936E+03  0.12427317002E+03  0.00000000000E+00 0. -1.
         11    1    1    2    0    0 -0.12190453336E+02 -0.10441954426E+02 -0.88023655629E+01  0.18306370593E+02  0.00000000000E+00 0.  1.
</event>
<event>
 7    1  0.3056346E-009  0.1011748E+03  0.7561462E-02  0.1277845E+00
          1   -1    0    0  501    0  0.00000000000E+00  0.00000000000E+00  0.56160617755E+02  0.56160617755E+02  0.00000000000E+00 0. -1.
         -1   -1    0    0    0  501 -0.00000000000E+00 -0.00000000000E+00 -0.28124202057E+03  0.28124202057E+03  0.00000000000E+00 0.  1.
         25    2    1    2    0    0 -0.55496109582E+02  0.20300238829E+02 -0.16104044266E+03  0.21230591267E+03  0.12509140061E+03 0.  0.
          5    1    3    3  502    0  0.37185195740E+02 -0.12992295794E+02 -0.41521418893E+02  0.57385008139E+02  0.41800000000E+01 0. -1.
         -5    1    3    3    0  502 -0.92681305322E+02  0.33292534623E+02 -0.11951902377E+03  0.15492090453E+03  0.41800000000E+01 0. -1.
        -11    1    1    2    0    0  0.42143160805E+02 -0.26145046251E+02 -0.85684686434E+02  0.99002398634E+02  0.00000000000E+00 0.  1.
         11    1    1    2    0    0  0.13352948777E+02  0.58448074216E+01  0.21643726287E+02  0.26094327016E+02  0.00000000000E+00 0. -1.
</event>
<event>
 7    1  0.3487415E-009  0.1286624E+03  0.7561462E-02  0.1229454E+00
         -1   -1    0    0    0  501 -0.00000000000E+00  0.00000000000E+00  0.15413052662E+02  0.15413052662E+02  0.00000000000E+00 0.  1.
          1   -1    0    0  501    0  0.00000000000E+00 -0.00000000000E+00 -0.14347112049E+04  0.14347112049E+04  0.00000000000E+00 0. -1.
         25    2    1    2    0    0  0.36553093650E+02  0.72818051454E+02 -0.10643814161E+04  0.10747995390E+04  0.12509057861E+03 0.  0.
          5    1    3    3  502    0  0.65525496472E+02 -0.49719945664E+01 -0.43562633739E+03  0.44057472651E+03  0.41800000000E+01 0.  1.
         -5    1    3    3    0  502 -0.28972402822E+02  0.77790046021E+02 -0.62875507869E+03  0.63422481247E+03  0.41800000000E+01 0.  1.
        -11    1    1    2    0    0 -0.54796347123E+00 -0.72352510603E+02 -0.30685749352E+03  0.31527243359E+03  0.00000000000E+00 0. -1.
         11    1    1    2    0    0 -0.36005130179E+02 -0.46554085178E+00 -0.48059242641E+02  0.60052284975E+02  0.00000000000E+00 0.  1.
</event>
<event>
 7    1  0.3056346E-009  0.5146392E+02  0.7561462E-02  0.1437602E+00
         -1   -1    0    0    0  501 -0.00000000000E+00  0.00000000000E+00  0.12162606425E+03  0.12162606425E+03  0.00000000000E+00 0.  1.
          1   -1    0    0  501    0  0.00000000000E+00 -0.00000000000E+00 -0.14060828062E+03  0.14060828062E+03  0.00000000000E+00 0. -1.
         25    2    1    2    0    0 -0.41533269645E+02  0.22303908334E+01 -0.72181411319E+02  0.15026612269E+03  0.12505904349E+03 0.  0.
          5    1    3    3  502    0 -0.23297799935E+02  0.15731687707E+02 -0.10576733689E+03  0.10951929252E+03  0.41800000000E+01 0.  1.
         -5    1    3    3    0  502 -0.18235469710E+02 -0.13501296873E+02  0.33585925574E+02  0.40746830177E+02  0.41800000000E+01 0.  1.
        -11    1    1    2    0    0  0.29324620986E+02  0.12863785916E+02  0.75733208054E+02  0.82224869633E+02  0.00000000000E+00 0.  1.
         11    1    1    2    0    0  0.12208648659E+02 -0.15094176750E+02 -0.22534013105E+02  0.29743352542E+02  0.00000000000E+00 0. -1.
</event>
<event>
 7    1  0.3056346E-009  0.9876131E+02  0.7561462E-02  0.1282923E+00
         -1   -1    0    0    0  501 -0.00000000000E+00  0.00000000000E+00  0.94287956676E+01  0.94287956676E+01  0.00000000000E+00 0.  1.
          1   -1    0    0  501    0  0.00000000000E+00 -0.00000000000E+00 -0.14376279210E+04  0.14376279210E+04  0.00000000000E+00 0. -1.
         25    2    1    2    0    0 -0.15819149509E+02 -0.15533671021E+02 -0.99661709053E+03  0.10046808676E+04  0.12508589128E+03 0.  0.
          5    1    3    3  502    0 -0.43746824218E+02 -0.43434157558E+02 -0.86508757452E+03  0.86729135512E+03  0.41800000000E+01 0. -1.
         -5    1    3    3    0  502  0.27927674709E+02  0.27900486537E+02 -0.13152951600E+03  0.13738951249E+03  0.41800000000E+01 0. -1.
        -11    1    1    2    0    0  0.51614644105E+02 -0.93335339246E+01 -0.26814781256E+03  0.27322963917E+03  0.00000000000E+00 0.  1.
         11    1    1    2    0    0 -0.35795494596E+02  0.24867204946E+02 -0.16343422223E+03  0.16914620986E+03  0.00000000000E+00 0. -1.
</event>
<event>
 7    1  0.3056346E-009  0.1666548E+03  0.7561462E-02  0.1181382E+00
         -2   -1    0    0    0  501 -0.00000000000E+00  0.00000000000E+00  0.62878323822E+03  0.62878323822E+03  0.00000000000E+00 0.  1.
          2   -1    0    0  501    0  0.00000000000E+00 -0.00000000000E+00 -0.58052932611E+02  0.58052932611E+02  0.00000000000E+00 0. -1.
         25    2    1    2    0    0 -0.10765648067E+03  0.83338347475E+02  0.44154037703E+03  0.47868589122E+03  0.12508828851E+03 0.  0.
          5    1    3    3  502    0 -0.26202799208E+02 -0.23669126024E+02  0.19121714690E+03  0.19449494565E+03  0.41800000000E+01 0. -1.
         -5    1    3    3    0  502 -0.81453681463E+02  0.10700747350E+03  0.25032323012E+03  0.28419094557E+03  0.41800000000E+01 0. -1.
        -11    1    1    2    0    0 -0.14340294866E+02 -0.22998316811E+02  0.21235884810E+02  0.34431518071E+02  0.00000000000E+00 0.  1.
         11    1    1    2    0    0  0.12199677554E+03 -0.60340030664E+02  0.10795404377E+03  0.17371876153E+03  0.00000000000E+00 0. -1.
</event>
<event>
 7    1  0.3056346E-009  0.1117824E+03  0.7561462E-02  0.1257304E+00
          1   -1    0    0  501    0  0.00000000000E+00  0.00000000000E+00  0.18521494152E+02  0.18521494152E+02  0.00000000000E+00 0. -1.
         -1   -1    0    0    0  501 -0.00000000000E+00 -0.00000000000E+00 -0.73722826091E+03  0.73722826091E+03  0.00000000000E+00 0.  1.
         25    2    1    2    0    0 -0.27212370292E+02 -0.27318201150E+02 -0.32694582897E+03  0.35217625313E+03  0.12509093084E+03 0.  0.
          5    1    3    3  502    0 -0.70743315238E+02  0.96379601567E+01 -0.21240550232E+03  0.22412290544E+03  0.41800000000E+01 0. -1.
         -5    1    3    3    0  502  0.43530944945E+02 -0.36956161307E+02 -0.11454032665E+03  0.12805334769E+03  0.41800000000E+01 0. -1.
        -11    1    1    2    0    0  0.34258491491E+02  0.55785000292E+02 -0.22820226401E+03  0.23740657909E+03  0.00000000000E+00 0. -1.
         11    1    1    2    0    0 -0.70461211991E+01 -0.28466799142E+02 -0.16355867378E+03  0.16616692284E+03  0.00000000000E+00 0.  1.
</event>
<event>
 7    1  0.3056346E-009  0.1488532E+03  0.7561462E-02  0.1201889E+00
         -1   -1    0    0    0  501 -0.00000000000E+00  0.00000000000E+00  0.15071662770E+03  0.15071662770E+03  0.00000000000E+00 0.  1.
          1   -1    0    0  501    0  0.00000000000E+00 -0.00000000000E+00 -0.15439430764E+03  0.15439430764E+03  0.00000000000E+00 0. -1.
         25    2    1    2    0    0 -0.92588205781E+02 -0.45153474132E+01  0.74940958619E+01  0.15587506763E+03  0.12509161053E+03 0.  0.
          5    1    3    3  502    0 -0.66755333391E+02 -0.59046251612E+02 -0.16630156771E+02  0.90756646477E+02  0.41800000000E+01 0.  1.
         -5    1    3    3    0  502 -0.25832872390E+02  0.54530904199E+02  0.24124252633E+02  0.65118421155E+02  0.41800000000E+01 0.  1.
        -11    1    1    2    0    0  0.10103812661E+03  0.42114952067E+02 -0.15092335414E+02  0.11049955115E+03  0.00000000000E+00 0. -1.
         11    1    1    2    0    0 -0.84499208302E+01 -0.37599604654E+02  0.39205596091E+01  0.38736316549E+02  0.00000000000E+00 0.  1.
</event>
<event>
 7    1  0.3056346E-009  0.1166204E+03  0.7561462E-02  0.1248779E+00
          1   -1    0    0  501    0  0.00000000000E+00  0.00000000000E+00  0.29394921747E+03  0.29394921747E+03  0.00000000000E+00 0. -1.
         -1   -1    0    0    0  501 -0.00000000000E+00 -0.00000000000E+00 -0.75265298522E+02  0.75265298522E+02  0.00000000000E+00 0.  1.
         25    2    1    2    0    0  0.55297146930E+02 -0.36403415219E+02  0.23410315564E+02  0.14340271391E+03  0.12503324512E+03 0.  0.
          5    1    3    3  502    0  0.69000112476E+02  0.26071263117E+02 -0.33243492918E+01  0.73954377697E+02  0.41800000000E+01 0. -1.
         -5    1    3    3    0  502 -0.13702965547E+02 -0.62474678336E+02  0.26734664856E+02  0.69448336215E+02  0.41800000000E+01 0. -1.
        -11    1    1    2    0    0 -0.48271567298E+01 -0.19418779168E+02  0.41908056661E+01  0.20443905660E+02  0.00000000000E+00 0.  1.
         11    1    1    2    0    0 -0.50469990200E+02  0.55822194388E+02  0.19108279772E+03  0.20536789642E+03  0.00000000000E+00 0. -1.
</event>
<event>
 7    1  0.3224962E-009  0.1644094E+03  0.7561462E-02  0.1183807E+00
          2   -1    0    0  501    0  0.00000000000E+00  0.00000000000E+00  0.16073782146E+04  0.16073782146E+04  0.00000000000E+00 0. -1.
         -2   -1    0    0    0  501 -0.00000000000E+00 -0.00000000000E+00 -0.22699176833E+02  0.22699176833E+02  0.00000000000E+00 0.  1.
         25    2    1    2    0    0 -0.44577763763E+02  0.14107294683E+03  0.60771342200E+03  0.63784958290E+03  0.12509090206E+03 0.  0.
          5    1    3    3  502    0 -0.23222987414E+02  0.12878560987E+03  0.59607073551E+03  0.61028094725E+03  0.41800000000E+01 0.  1.
         -5    1    3    3    0  502 -0.21354776349E+02  0.12287336969E+02  0.11642686493E+02  0.27568635648E+02  0.41800000000E+01 0.  1.
        -11    1    1    2    0    0 -0.24375612308E+02 -0.68889406764E+02  0.37755763170E+03  0.38456428084E+03  0.00000000000E+00 0.  1.
         11    1    1    2    0    0  0.68953376071E+02 -0.72183540070E+02  0.59940798404E+03  0.60766352767E+03  0.00000000000E+00 0. -1.
</event>
<event>
 7    1  0.3056346E-009  0.8558160E+02  0.7561462E-02  0.1313919E+00
         -2   -1    0    0    0  501 -0.00000000000E+00  0.00000000000E+00  0.33836463826E+02  0.33836463826E+02  0.00000000000E+00 0. -1.
          2   -1    0    0  501    0  0.00000000000E+00 -0.00000000000E+00 -0.63167831359E+03  0.63167831359E+03  0.00000000000E+00 0.  1.
         25    2    1    2    0    0 -0.58844626106E+02  0.46952866555E+02 -0.45889201943E+03  0.48155188248E+03  0.12507225241E+03 0.  0.
          5    1    3    3  502    0 -0.35163853711E+02 -0.35624926922E+01 -0.23656130670E+02  0.42734914067E+02  0.41800000000E+01 0. -1.
         -5    1    3    3    0  502 -0.23680772395E+02  0.50515359248E+02 -0.43523588876E+03  0.43881696841E+03  0.41800000000E+01 0. -1.
        -11    1    1    2    0    0  0.57495531486E+02 -0.34399406984E+02 -0.15181192623E+03  0.16593949586E+03  0.00000000000E+00 0.  1.
         11    1    1    2    0    0  0.13490946198E+01 -0.12553459571E+02  0.12862095894E+02  0.18023399077E+02  0.00000000000E+00 0. -1.
</event>
<event>
 7    1  0.3056346E-009  0.1106521E+03  0.7561462E-02  0.1259367E+00
         -1   -1    0    0    0  501 -0.00000000000E+00  0.00000000000E+00  0.54200211949E+02  0.54200211949E+02  0.00000000000E+00 0. -1.
          1   -1    0    0  501    0  0.00000000000E+00 -0.00000000000E+00 -0.23357335638E+03  0.23357335638E+03  0.00000000000E+00 0.  1.
         25    2    1    2    0    0 -0.27393448274E+02  0.84209499395E+01 -0.86432373360E+02  0.15472184679E+03  0.12508789431E+03 0.  0.
          5    1    3    3  502    0 -0.43522048290E+02  0.59187351739E+02 -0.60835174829E+02  0.95476186506E+02  0.41800000000E+01 0.  1.
         -5    1    3    3    0  502  0.16128600015E+02 -0.50766401800E+02 -0.25597198531E+02  0.59245660286E+02  0.41800000000E+01 0.  1.
        -11    1    1    2    0    0 -0.31673016173E+02  0.85973929199E+01 -0.23820194939E+02  0.40552395804E+02  0.00000000000E+00 0.  1.
         11    1    1    2    0    0  0.59066464447E+02 -0.17018342859E+02 -0.69120576128E+02  0.92499325729E+02  0.00000000000E+00 0. -1.
</event>
<event>
 7    1  0.3056346E-009  0.1132077E+03  0.7561462E-02  0.1254742E+00
         -1   -1    0    0    0  501 -0.00000000000E+00  0.00000000000E+00  0.90775139403E+02  0.90775139403E+02  0.00000000000E+00 0.  1.
          1   -1    0    0  501    0  0.00000000000E+00 -0.00000000000E+00 -0.17132808253E+03  0.17132808253E+03  0.00000000000E+00 0. -1.
         25    2    1    2    0    0 -0.55678779350E+02  0.80464200513E+01 -0.86987577469E+02  0.16241679379E+03  0.12508998730E+03 0.  0.
          5    1    3    3  502    0 -0.57606715148E+02  0.57895727136E+02 -0.31376943199E+02  0.87592430125E+02  0.41800000000E+01 0.  1.
         -5    1    3    3    0  502  0.19279357977E+01 -0.49849307084E+02 -0.55610634270E+02  0.74824363660E+02  0.41800000000E+01 0.  1.
        -11    1    1    2    0    0  0.23695564956E+02 -0.41815877594E+02 -0.12190045866E+02  0.49584721798E+02  0.00000000000E+00 0. -1.
         11    1    1    2    0    0  0.31983214394E+02  0.33769457543E+02  0.18624680212E+02  0.50101706345E+02  0.00000000000E+00 0.  1.
</event>
<event>
 7    1  0.3056346E-009  0.1108547E+03  0.7561462E-02  0.1258995E+00
         -3   -1    0    0    0  501 -0.00000000000E+00  0.00000000000E+00  0.23644465306E+03  0.23644465306E+03  0.00000000000E+00 0.  1.
          3   -1    0    0  501    0  0.00000000000E+00 -0.00000000000E+00 -0.78680711823E+02  0.78680711823E+02  0.00000000000E+00 0. -1.
         25    2    1    2    0    0  0.69870094024E+02  0.76897008644E+01  0.35903082806E+02  0.14790862988E+03  0.12508784873E+03 0.  0.
          5    1    3    3  502    0 -0.16943320211E+02 -0.10132676626E+02 -0.30860315590E+02  0.36872465522E+02  0.41800000000E+01 0. -1.
         -5    1    3    3    0  502  0.86813414235E+02  0.17822377490E+02  0.66763398396E+02  0.11103616436E+03  0.41800000000E+01 0. -1.
        -11    1    1    2    0    0 -0.39643200100E+02 -0.48107281870E+02  0.81417965305E+02  0.10254159623E+03  0.00000000000E+00 0.  1.
         11    1    1    2    0    0 -0.30226893924E+02  0.40417581006E+02  0.40442893126E+02  0.64675138771E+02  0.00000000000E+00 0. -1.
</event>
<event>
 7    1  0.3056346E-009  0.9971172E+02  0.7561462E-02  0.1280903E+00
          4   -1    0    0  501    0  0.00000000000E+00  0.00000000000E+00  0.38070551002E+03  0.38070551002E+03  0.00000000000E+00 0. -1.
         -4   -1    0    0    0  501 -0.00000000000E+00 -0.00000000000E+00 -0.37103763476E+02  0.37103763476E+02  0.00000000000E+00 0.  1.
         25    2    1    2    0    0  0.62721559357E+01 -0.33423940494E+02  0.12965234925E+03  0.18334294291E+03  0.12509357822E+03 0.  0.
          5    1    3    3  502    0  0.43913974167E+02 -0.48666672069E+02  0.12632631173E+03  0.14238220231E+03  0.41800000000E+01 0. -1.
         -5    1    3    3    0  502 -0.37641818232E+02  0.15242731575E+02  0.33260375166E+01  0.40960740609E+02  0.41800000000E+01 0. -1.
        -11    1    1    2    0    0  0.66546245609E+01 -0.28699088718E+02  0.43033644716E+02  0.52151858058E+02  0.00000000000E+00 0.  1.
         11    1    1    2    0    0 -0.12926780497E+02  0.62123029212E+02  0.17091575257E+03  0.18231447252E+03  0.00000000000E+00 0. -1.
</event>
<event>
 6    1  0.3056346E-009  0.1290489E+03  0.7561462E-02  0.1228874E+00
          2   -1    0    0  501    0  0.00000000000E+00  0.00000000000E+00  0.87959807809E+03  0.87959807809E+03  0.00000000000E+00 0. -1.
         -2   -1    0    0    0  501 -0.00000000000E+00 -0.00000000000E+00 -0.20872387191E+02  0.20872387191E+02  0.00000000000E+00 0.  1.
          5    1    1    2  502    0  0.23081636246E+02 -0.42301186691E+02  0.22287192396E+03  0.22806034117E+03  0.41800000000E+01 0.  1.
         -5    1    1    2    0  502  0.28777904563E+02  0.90471778193E+02  0.38445728011E+03  0.39602800794E+03  0.41800000000E+01 0.  1.
        -11    1    1    2    0    0  0.13135269082E+02 -0.47935269160E+02  0.11565537214E+03  0.12588284406E+03  0.00000000000E+00 0.  1.
         11    1    1    2    0    0 -0.64994809891E+02 -0.23532234233E+00  0.13574111470E+03  0.15049927212E+03  0.00000000000E+00 0. -1.
</event>
<event>
 7    1  0.3056346E-009  0.9056371E+02  0.7561462E-02  0.1301492E+00
         -1   -1    0    0    0  501 -0.00000000000E+00  0.00000000000E+00  0.33272755310E+02  0.33272755310E+02  0.00000000000E+00 0.  1.
          1   -1    0    0  501    0  0.00000000000E+00 -0.00000000000E+00 -0.45007951227E+03  0.45007951227E+03  0.00000000000E+00 0. -1.
         25    2    1    2    0    0  0.50684558717E+02 -0.99749427460E+01 -0.23004191994E+03  0.26689902127E+03  0.12508948257E+03 0.  0.
          5    1    3    3  502    0  0.28513773719E+02  0.45904428846E+02 -0.39533530523E+02  0.67086692533E+02  0.41800000000E+01 0.  1.
         -5    1    3    3    0  502  0.22170784997E+02 -0.55879371592E+02 -0.19050838941E+03  0.19981232873E+03  0.41800000000E+01 0.  1.
        -11    1    1    2    0    0 -0.27839084149E+02 -0.15970391708E+02 -0.63000261303E+01  0.32707160482E+02  0.00000000000E+00 0.  1.
         11    1    1    2    0    0 -0.22845474568E+02  0.25945334454E+02 -0.18046481089E+03  0.18374608583E+03  0.00000000000E+00 0. -1.
</event>
<event>
 7    1  0.3056346E-009  0.1620527E+03  0.7561462E-02  0.1186399E+00
         -2   -1    0    0    0  501 -0.00000000000E+00  0.00000000000E+00  0.10997195334E+03  0.10997195334E+03  0.00000000000E+00 0. -1.
          2   -1    0    0  501    0  0.00000000000E+00 -0.00000000000E+00 -0.24118866694E+03  0.24118866694E+03  0.00000000000E+00 0.  1.
         25    2    1    2    0    0  0.46401943293E+02  0.11052458114E+03 -0.64245093577E+02  0.18478101590E+03  0.12509104049E+03 0.  0.
          5    1    3    3  502    0 -0.42384697646E+02  0.47346016501E+02 -0.30631265834E+02  0.70667211065E+02  0.41800000000E+01 0. -1.
         -5    1    3    3    0  502  0.88786640939E+02  0.63178564640E+02 -0.33613827743E+02  0.11411380484E+03  0.41800000000E+01 0. -1.
        -11    1    1    2    0    0  0.13642523424E+02 -0.85065028399E+02 -0.28946371386E+02  0.90884926793E+02  0.00000000000E+00 0. -1.
         11    1    1    2    0    0 -0.60044466717E+02 -0.25459552743E+02 -0.38025248634E+02  0.75494677580E+02  0.00000000000E+00 0.  1.
</event>
<event>
 7    1  0.3837705E-009  0.1150047E+03  0.7561462E-02  0.1251573E+00
          1   -1    0    0  501    0  0.00000000000E+00  0.00000000000E+00  0.17586033348E+03  0.17586033348E+03  0.00000000000E+00 0. -1.
         -1   -1    0    0    0  501 -0.00000000000E+00 -0.00000000000E+00 -0.10018819597E+03  0.10018819597E+03  0.00000000000E+00 0.  1.
         25    2    1    2    0    0  0.20869981859E+02  0.52830107317E+02  0.94541113277E+02  0.16677001341E+03  0.12509052278E+03 0.  0.
          5    1    3    3  502    0  0.71501210360E+02  0.20889727662E+02  0.35637888431E+02  0.82682134083E+02  0.41800000000E+01 0.  1.
         -5    1    3    3    0  502 -0.50631228501E+02  0.31940379655E+02  0.58903224847E+02  0.84087879325E+02  0.41800000000E+01 0.  1.
        -11    1    1    2    0    0 -0.35931079481E+02 -0.66154840834E+02 -0.35452831507E+02  0.83213032034E+02  0.00000000000E+00 0.  1.
         11    1    1    2    0    0  0.15061097622E+02  0.13324733518E+02  0.16583855741E+02  0.26065483999E+02  0.00000000000E+00 0. -1.
</event>
<event>
 7    1  0.3056346E-009  0.7152042E+02  0.7561462E-02  0.1354998E+00
         -1   -1    0    0    0  501 -0.00000000000E+00  0.00000000000E+00  0.49728001797E+03  0.49728001797E+03  0.00000000000E+00 0.  1.
          1   -1    0    0  501    0  0.00000000000E+00 -0.00000000000E+00 -0.27640856645E+02  0.27640856645E+02  0.00000000000E+00 0. -1.
         25    2    1    2    0    0 -0.39263872245E+02 -0.12499522456E+01  0.24153020262E+03  0.27481738149E+03  0.12507813698E+03 0.  0.
          5    1    3    3  502    0 -0.13707248667E+02  0.10471702934E+02 -0.10875753923E+02  0.20815850973E+02  0.41800000000E+01 0. -1.
         -5    1    3    3    0  502 -0.25556623578E+02 -0.11721655179E+02  0.25240595654E+03  0.25400153052E+03  0.41800000000E+01 0. -1.
        -11    1    1    2    0    0 -0.17899649717E+02  0.28410153284E+02  0.43532011081E+02  0.54977907002E+02  0.00000000000E+00 0. -1.
         11    1    1    2    0    0  0.57163521962E+02 -0.27160201038E+02  0.18457694763E+03  0.19512558612E+03  0.00000000000E+00 0.  1.
</event>
<event>
 7    1  0.3056346E-009  0.1499438E+03  0.7561462E-02  0.1200542E+00
          1   -1    0    0  501    0  0.00000000000E+00  0.00000000000E+00  0.22626147548E+03  0.22626147548E+03  0.00000000000E+00 0. -1.
         -1   -1    0    0    0  501 -0.00000000000E+00 -0.00000000000E+00 -0.13750570989E+03  0.13750570989E+03  0.00000000000E+00 0.  1.
         25    2    1    2    0    0  0.57438827877E+02 -0.11776355848E+03 -0.15676524208E+01  0.18115637739E+03  0.12509077057E+03 0.  0.
          5    1    3    3  502    0 -0.39191076772E+00 -0.57230890694E+02  0.55436109539E+02  0.79788239011E+02  0.41800000000E+01 0. -1.
         -5    1    3    3    0  502  0.57830738644E+02 -0.60532667783E+02 -0.57003761960E+02  0.10136813838E+03  0.41800000000E+01 0. -1.
        -11    1    1    2    0    0 -0.60583821477E+02  0.24476923945E+02  0.35528922264E+02  0.74376229723E+02  0.00000000000E+00 0. -1.
         11    1    1    2    0    0  0.31449936009E+01  0.93286634531E+02  0.54794495744E+02  0.10823457826E+03  0.00000000000E+00 0.  1.
</event>
<event>
 7    1  0.3056346E-009  0.1060668E+03  0.7561462E-02  0.1268032E+00
          1   -1    0    0  501    0  0.00000000000E+00  0.00000000000E+00  0.48281237111E+03  0.48281237111E+03  0.00000000000E+00 0. -1.
         -1   -1    0    0    0  501 -0.00000000000E+00 -0.00000000000E+00 -0.29881857950E+02  0.29881857950E+02  0.00000000000E+00 0.  1.
         25    2    1    2    0    0 -0.31403194426E+02  0.23910041041E+02  0.32358289559E+03  0.34915677089E+03  0.12508680848E+03 0.  0.
          5    1    3    3  502    0  0.47845008235E+02  0.11393107096E+02  0.98709017899E+02  0.11036254037E+03  0.41800000000E+01 0. -1.
         -5    1    3    3    0  502 -0.79248202661E+02  0.12516933945E+02  0.22487387769E+03  0.23879423052E+03  0.41800000000E+01 0. -1.
        -11    1    1    2    0    0  0.28443134037E+02 -0.49276108552E+02  0.12538979562E+03  0.13769439928E+03  0.00000000000E+00 0. -1.
         11    1    1    2    0    0  0.29600603894E+01  0.25366067510E+02  0.39578219525E+01  0.25843058895E+02  0.00000000000E+00 0.  1.
</event>
<event>
 7    1  0.3056346E-009  0.1144517E+03  0.7561462E-02  0.1252541E+00
         -1   -1    0    0    0  501 -0.00000000000E+00  0.00000000000E+00  0.73959840350E+02  0.73959840350E+02  0.00000000000E+00 0.  1.
          1   -1    0    0  501    0  0.00000000000E+00 -0.00000000000E+00 -0.38742223272E+03  0.38742223272E+03  0.00000000000E+00 0. -1.
         25    2    1    2    0    0  0.83763994019E+02 -0.56038912582E+02 -0.27908239650E+03  0.32200845739E+03  0.12508275731E+03 0.  0.
          5    1    3    3  502    0  0.77609643647E+02 -0.59266886113E+02 -0.29134705170E+03  0.30730505611E+03  0.41800000000E+01 0. -1.
         -5    1    3    3    0  502  0.61543503712E+01  0.32279735306E+01  0.12264655207E+02  0.14703401272E+02  0.41800000000E+01 0. -1.
        -11    1    1    2    0    0 -0.14844684245E+02 -0.17041622491E+02 -0.31641664793E+02  0.38884141990E+02  0.00000000000E+00 0. -1.
         11    1    1    2    0    0 -0.68919309774E+02  0.73080535073E+02 -0.27383310809E+01  0.10048947369E+03  0.00000000000E+00 0.  1.
</event>
<event>
 7    1  0.3056346E-009  0.8976643E+02  0.7561462E-02  0.1303418E+00
          2   -1    0    0  501    0  0.00000000000E+00  0.00000000000E+00  0.94527091989E+02  0.94527091989E+02  0.00000000000E+00 0. -1.
         -2   -1    0    0    0  501 -0.00000000000E+00 -0.00000000000E+00 -0.13418920400E+03  0.13418920400E+03  0.00000000000E+00 0.  1.
         25    2    1    2    0    0 -0.26061295434E+02  0.93950721141E+01 -0.16732078625E+02  0.12920326381E+03  0.12508422132E+03 0.  0.
          5    1    3    3  502    0  0.11949742517E+02 -0.40514073492E+02 -0.43581312462E+02  0.60835759985E+02  0.41800000000E+01 0. -1.
         -5    1    3    3    0  502 -0.38011037951E+02  0.49909145606E+02  0.26849233837E+02  0.68367503822E+02  0.41800000000E+01 0. -1.
        -11    1    1    2    0    0  0.25580749405E+02 -0.37888008016E+02 -0.44481223367E+02  0.63784442646E+02  0.00000000000E+00 0.  1.
         11    1    1    2    0    0  0.48054602890E+00  0.28492935902E+02  0.21551189979E+02  0.35728589537E+02  0.00000000000E+00 0. -1.
</event>
<event>
 7    1  0.3056346E-009  0.2004006E+03  0.7561462E-02  0.1149401E+00
          2   -1    0    0  501    0  0.00000000000E+00  0.00000000000E+00  0.11331070473E+04  0.11331070473E+04  0.00000000000E+00 0.  1.
         -2   -1    0    0    0  501 -0.00000000000E+00 -0.00000000000E+00 -0.44154642275E+02  0.44154642275E+02  0.00000000000E+00 0. -1.
         25    2    1    2    0    0 -0.78417913930E+02  0.17415624905E+03  0.46113859582E+03  0.51457377158E+03  0.12513030622E+03 0.  0.
          5    1    3    3  502    0 -0.32224373607E+02  0.63245114709E+02  0.51868293177E+02  0.88012198166E+02  0.41800000000E+01 0. -1.
         -5    1    3    3    0  502 -0.46193540323E+02  0.11091113435E+03  0.40927030264E+03  0.42656157342E+03  0.41800000000E+01 0. -1.
        -11    1    1    2    0    0  0.50341405499E+02 -0.17427590152E+03  0.57411970446E+03  0.60209615678E+03  0.00000000000E+00 0.  1.
         11    1    1    2    0    0  0.28076508431E+02  0.11965246931E+00  0.53694104724E+02  0.60591761194E+02  0.00000000000E+00 0. -1.
</event>
<event>
 7    1  0.3056346E-009  0.1452232E+03  0.7561462E-02  0.1206469E+00
         -1   -1    0    0    0  501 -0.00000000000E+00  0.00000000000E+00  0.65378599853E+02  0.65378599853E+02  0.00000000000E+00 0.  1.
          1   -1    0    0  501    0  0.00000000000E+00 -0.00000000000E+00 -0.34028683667E+03  0.34028683667E+03  0.00000000000E+00 0. -1.
         25    2    1    2    0    0  0.99341086148E+01 -0.10204218578E+03 -0.14922491166E+03  0.22006786395E+03  0.12510194359E+03 0.  0.
          5    1    3    3  502    0 -0.46274065016E+02 -0.12162338616E+02 -0.17925787033E+02  0.51264196223E+02  0.41800000000E+01 0.  1.
         -5    1    3    3    0  502  0.56208173630E+02 -0.89879847163E+02 -0.13129912463E+03  0.16880366772E+03  0.41800000000E+01 0.  1.
        -11    1    1    2    0    0 -0.49129065390E+02  0.42052961576E+02 -0.65097065216E+02  0.91759165991E+02  0.00000000000E+00 0. -1.
         11    1    1    2    0    0  0.39194956776E+02  0.59989224203E+02 -0.60586259937E+02  0.93838406584E+02  0.00000000000E+00 0.  1.
</event>
<event>
 7    1  0.3056346E-009  0.1337003E+03  0.7561462E-02  0.1222066E+00
         -2   -1    0    0    0  501 -0.00000000000E+00  0.00000000000E+00  0.57238221602E+03  0.57238221602E+03  0.00000000000E+00 0.  1.
          2   -1    0    0  501    0  0.00000000000E+00 -0.00000000000E+00 -0.33988269363E+02  0.33988269363E+02  0.00000000000E+00 0. -1.
         25    2    1    2    0    0  0.63314453091E+02 -0.58463903087E+02  0.33813800999E+03  0.37069011069E+03  0.12508835449E+03 0.  0.
          5    1    3    3  502    0  0.42168646172E+02 -0.96966803181E+02  0.20978131121E+03  0.23496047874E+03  0.41800000000E+01 0.  1.
         -5    1    3    3    0  502  0.21145806919E+02  0.38502900095E+02  0.12835669879E+03  0.13572963195E+03  0.41800000000E+01 0.  1.
        -11    1    1    2    0    0 -0.61495609306E+02  0.25905133857E+01  0.65978005541E+02  0.90230360404E+02  0.00000000000E+00 0. -1.
         11    1    1    2    0    0 -0.18188437856E+01  0.55873389701E+02  0.13427793113E+03  0.14545001429E+03  0.00000000000E+00 0.  1.
</event>
<event>
 7    1  0.3056346E-009  0.9111624E+02  0.7561462E-02  0.1300171E+00
          2   -1    0    0  501    0  0.00000000000E+00  0.00000000000E+00  0.26152842126E+03  0.26152842126E+03  0.00000000000E+00 0. -1.
         -2   -1    0    0    0  501 -0.00000000000E+00 -0.00000000000E+00 -0.38487499782E+02  0.38487499782E+02  0.00000000000E+00 0.  1.
         25    2    1    2    0    0 -0.27719082746E+02 -0.16359270689E+02  0.17591943510E+03  0.21824910887E+03  0.12509617337E+03 0.  0.
          5    1    3    3  502    0 -0.76527454856E+02 -0.14365029179E+02  0.12673923326E+03  0.14880561501E+03  0.41800000000E+01 0. -1.
         -5    1    3    3    0  502  0.48808372110E+02 -0.19942415101E+01  0.49180201839E+02  0.69443493865E+02  0.41800000000E+01 0. -1.
        -11    1    1    2    0    0  0.75055506654E+01  0.29946702518E+02  0.48365689920E+02  0.57379249245E+02  0.00000000000E+00 0. -1.
         11    1    1    2    0    0  0.20213532080E+02 -0.13587431830E+02 -0.12442035445E+01  0.24387562924E+02  0.00000000000E+00 0.  1.
</event>
<event>
 7    1  0.3056346E-009  0.7677541E+02  0.7561462E-02  0.1338460E+00
          1   -1    0    0  501    0  0.00000000000E+00  0.00000000000E+00  0.38944111853E+02  0.38944111853E+02  0.00000000000E+00 0. -1.
         -1   -1    0    0    0  501 -0.00000000000E+00 -0.00000000000E+00 -0.33072008028E+03  0.33072008028E+03  0.00000000000E+00 0.  1.
         25    2    1    2    0    0 -0.18399512606E+02 -0.21781201660E+02 -0.13436113248E+03  0.18577577432E+03  0.12508701609E+03 0.  0.
          5    1    3    3  502    0 -0.37950295107E+02  0.35505049671E+01  0.85334091768E+01  0.39282597374E+02  0.41800000000E+01 0. -1.
         -5    1    3    3    0  502  0.19550782501E+02 -0.25331706627E+02 -0.14289454165E+03  0.14649317694E+03  0.41800000000E+01 0. -1.
        -11    1    1    2    0    0 -0.14319943268E+02  0.42067181427E+02 -0.12783650560E+03  0.13533987104E+03  0.00000000000E+00 0. -1.
         11    1    1    2    0    0  0.32719455874E+02 -0.20285979767E+02 -0.29578330351E+02  0.48548546777E+02  0.00000000000E+00 0.  1.
</event>
<event>
 7    1  0.3056346E-009  0.1196729E+03  0.7561462E-02  0.1243638E+00
         -2   -1    0    0    0  501 -0.00000000000E+00  0.00000000000E+00  0.33777821708E+02  0.33777821708E+02  0.00000000000E+00 0.  1.
          2   -1    0    0  501    0  0.00000000000E+00 -0.00000000000E+00 -0.51447173010E+03  0.51447173010E+03  0.00000000000E+00 0. -1.
         25    2    1    2    0    0 -0.65051598568E+02 -0.41657933660E+02 -0.18314125526E+03  0.23485268313E+03  0.12509184418E+03 0.  0.
          5    1    3    3  502    0 -0.38655081242E+02  0.40967889378E+02 -0.47524491337E+02  0.73814855841E+02  0.41800000000E+01 0.  1.
         -5    1    3    3    0  502 -0.26396517327E+02 -0.82625823038E+02 -0.13561676393E+03  0.16103782729E+03  0.41800000000E+01 0.  1.
        -11    1    1    2    0    0  0.60057948229E+02  0.63808806855E+01 -0.21836174446E+03  0.22656020000E+03  0.00000000000E+00 0. -1.
         11    1    1    2    0    0  0.49936503389E+01  0.35277052975E+02 -0.79190908675E+02  0.86836668678E+02  0.00000000000E+00 0.  1.
</event>
<event>
 7    1  0.3056346E-009  0.1668761E+03  0.7561462E-02  0.1181145E+00
          2   -1    0    0  501    0  0.00000000000E+00  0.00000000000E+00  0.13478827760E+04  0.13478827760E+04  0.00000000000E+00 0. -1.
         -2   -1    0    0    0  501 -0.00000000000E+00 -0.00000000000E+00 -0.23875607383E+02  0.23875607383E+02  0.00000000000E+00 0.  1.
         25    2    1    2    0    0 -0.13971593407E+03 -0.27639435665E+02  0.69747303469E+03  0.72277294253E+03  0.12509041410E+03 0.  0.
          5    1    3    3  502    0 -0.54639915619E+02  0.34945822316E+02  0.12780323067E+03  0.14338015569E+03  0.41800000000E+01 0. -1.
         -5    1    3    3    0  502 -0.85076018452E+02 -0.62585257981E+02  0.56966980402E+03  0.57939278684E+03  0.41800000000E+01 0. -1.
        -11    1    1    2    0    0  0.10634593789E+03  0.55164274954E+02  0.52721056015E+03  0.54065102466E+03  0.00000000000E+00 0.  1.
         11    1    1    2    0    0  0.33369996178E+02 -0.27524839289E+02  0.99323573790E+02  0.10833441620E+03  0.00000000000E+00 0. -1.
</event>
<event>
 7    1  0.3056346E-009  0.1088055E+03  0.7561462E-02  0.1262798E+00
         -1   -1    0    0    0  501 -0.00000000000E+00  0.00000000000E+00  0.25634230549E+03  0.25634230549E+03  0.00000000000E+00 0.  1.
          1   -1    0    0  501    0  0.00000000000E+00 -0.00000000000E+00 -0.57711731658E+02  0.57711731658E+02  0.00000000000E+00 0. -1.
         25    2    1    2    0    0 -0.65836924701E+01  0.49286689863E+02  0.89266364122E+02  0.16151412987E+03  0.12508320263E+03 0.  0.
          5    1    3    3  502    0 -0.10272159197E+02  0.90934317019E+02  0.69987085613E+02  0.11528326773E+03  0.41800000000E+01 0.  1.
         -5    1    3    3    0  502  0.36884667266E+01 -0.41647627156E+02  0.19279278509E+02  0.46230862142E+02  0.41800000000E+01 0.  1.
        -11    1    1    2    0    0 -0.26256915450E+02 -0.18946285100E+01  0.86663332012E+02  0.90573441701E+02  0.00000000000E+00 0.  1.
         11    1    1    2    0    0  0.32840607920E+02 -0.47392061353E+02  0.22700877703E+02  0.61966465579E+02  0.00000000000E+00 0. -1.
</event>
<event>
 7    1  0.3056346E-009  0.1117805E+03  0.7561462E-02  0.1257308E+00
          2   -1    0    0  501    0  0.00000000000E+00  0.00000000000E+00  0.48752988851E+02  0.48752988851E+02  0.00000000000E+00 0. -1.
         -2   -1    0    0    0  501 -0.00000000000E+00 -0.00000000000E+00 -0.27641149213E+03  0.27641149213E+03  0.00000000000E+00 0.  1.
         25    2    1    2    0    0  0.39591897030E+02 -0.82748094951E+01 -0.12579497914E+03  0.18195432480E+03  0.12508800403E+03 0.  0.
          5    1    3    3  502    0  0.74954390745E+02 -0.32953175515E+02 -0.54232271265E+02  0.98298952767E+02  0.41800000000E+01 0. -1.
         -5    1    3    3    0  502 -0.35362493715E+02  0.24678366020E+02 -0.71562707873E+02  0.83655372029E+02  0.41800000000E+01 0. -1.
        -11    1    1    2    0    0 -0.23634370731E+02 -0.40522648709E+02 -0.33181730292E+02  0.57460384295E+02  0.00000000000E+00 0.  1.
         11    1    1    2    0    0 -0.15957526299E+02  0.48797458204E+02 -0.68681793847E+02  0.85749771887E+02  0.00000000000E+00 0. -1.
</event>
<event>
 7    1  0.4554704E-009  0.1190506E+03  0.7561462E-02  0.1244672E+00
          1   -1    0    0  501    0  0.00000000000E+00  0.00000000000E+00  0.17048559906E+03  0.17048559906E+03  0.00000000000E+00 0. -1.
         -1   -1    0    0    0  501 -0.00000000000E+00 -0.00000000000E+00 -0.11885374898E+03  0.11885374898E+03  0.00000000000E+00 0.  1.
         25    2    1    2    0    0 -0.61951455134E+02 -0.67373913158E+02  0.26479249628E+02  0.15724404638E+03  0.12508921814E+03 0.  0.
          5    1    3    3  502    0 -0.17993097125E+02  0.32043385873E+02  0.31157561821E+02  0.48361101942E+02  0.41800000000E+01 0. -1.
         -5    1    3    3    0  502 -0.43958358009E+02 -0.99417299032E+02 -0.46783121937E+01  0.10888294444E+03  0.41800000000E+01 0. -1.
        -11    1    1    2    0    0  0.25190041813E+02  0.36373907474E+02  0.58667325730E+02  0.73480980259E+02  0.00000000000E+00 0. -1.
         11    1    1    2    0    0  0.36761413321E+02  0.31000005684E+02 -0.33514725284E+02  0.58614321395E+02  0.00000000000E+00 0.  1.
</event>
<event>
 7    1  0.3056346E-009  0.8881641E+02  0.7561462E-02  0.1305744E+00
          2   -1    0    0  501    0  0.00000000000E+00  0.00000000000E+00  0.13513210273E+03  0.13513210273E+03  0.00000000000E+00 0.  1.
         -2   -1    0    0    0  501 -0.00000000000E+00 -0.00000000000E+00 -0.12093741714E+03  0.12093741714E+03  0.00000000000E+00 0. -1.
         25    2    1    2    0    0  0.40140236161E+02  0.19215789455E+02 -0.41348425946E+02  0.13905710365E+03  0.12508677238E+03 0.  0.
          5    1    3    3  502    0 -0.31041995054E+02  0.46761009904E+02 -0.19326220265E+02  0.59507753226E+02  0.41800000000E+01 0.  1.
         -5    1    3    3    0  502  0.71182231215E+02 -0.27545220449E+02 -0.22022205681E+02  0.79549350427E+02  0.41800000000E+01 0.  1.
        -11    1    1    2    0    0 -0.12476327112E+02 -0.91508675362E+01  0.78293635758E+02  0.79807834923E+02  0.00000000000E+00 0.  1.
         11    1    1    2    0    0 -0.27663909049E+02 -0.10064921919E+02 -0.22750524215E+02  0.37204581293E+02  0.00000000000E+00 0. -1.
</event>
<event>
 7    1  0.3056346E-009  0.1327395E+03  0.7561462E-02  0.1223446E+00
         -1   -1    0    0    0  501 -0.00000000000E+00  0.00000000000E+00  0.32704881917E+02  0.32704881917E+02  0.00000000000E+00 0.  1.
          1   -1    0    0  501    0  0.00000000000E+00 -0.00000000000E+00 -0.69919404216E+03  0.69919404216E+03  0.00000000000E+00 0. -1.
         25    2    1    2    0    0  0.10027384418E+03 -0.16375244898E+02 -0.41664260930E+03  0.44672233780E+03  0.12508713256E+03 0.  0.
          5    1    3    3  502    0  0.57213339692E+02  0.45460011560E+02 -0.29182125035E+03  0.30086058805E+03  0.41800000000E+01 0.  1.
         -5    1    3    3    0  502  0.43060504487E+02 -0.61835256458E+02 -0.12482135896E+03  0.14586174975E+03  0.41800000000E+01 0.  1.
        -11    1    1    2    0    0 -0.78584170489E+02  0.37025278953E+02 -0.23731121855E+03  0.25271121381E+03  0.00000000000E+00 0.  1.
         11    1    1    2    0    0 -0.21689673690E+02 -0.20650034055E+02 -0.12535332381E+02  0.32465372463E+02  0.00000000000E+00 0. -1.
</event>
<event>
 7    1  0.3056346E-009  0.8765586E+02  0.7561462E-02  0.1308630E+00
         -2   -1    0    0    0  501 -0.00000000000E+00  0.00000000000E+00  0.86152225071E+02  0.86152225071E+02  0.00000000000E+00 0.  1.
          2   -1    0    0  501    0  0.00000000000E+00 -0.00000000000E+00 -0.15617456683E+03  0.15617456683E+03  0.00000000000E+00 0. -1.
         25    2    1    2    0    0  0.27282203269E+02 -0.19061788566E+02 -0.17293709934E+02  0.13059047809E+03  0.12508848934E+03 0.  0.
          5    1    3    3  502    0  0.70410808890E+01 -0.46000301808E+02 -0.59990403938E+02  0.76038973896E+02  0.41800000000E+01 0.  1.
         -5    1    3    3    0  502  0.20241122380E+02  0.26938513242E+02  0.42696694004E+02  0.54551504194E+02  0.41800000000E+01 0.  1.
        -11    1    1    2    0    0  0.31452962595E+02  0.17247151846E+02 -0.53831134757E+01  0.36273006678E+02  0.00000000000E+00 0.  1.
         11    1    1    2    0    0 -0.58735165864E+02  0.18146367202E+01 -0.47345518347E+02  0.75463307130E+02  0.00000000000E+00 0. -1.
</event>
<event>
 7    1  0.3056346E-009  0.1496861E+03  0.7561462E-02  0.1200859E+00
         -1   -1    0    0    0  501 -0.00000000000E+00  0.00000000000E+00  0.84088985046E+02  0.84088985046E+02  0.00000000000E+00 0.  1.
          1   -1    0    0  501    0  0.00000000000E+00 -0.00000000000E+00 -0.43895459777E+03  0.43895459777E+03  0.00000000000E+00 0. -1.
         25    2    1    2    0    0  0.13103963759E+03  0.43402556341E+02 -0.81321858921E+02  0.20326203582E+03  0.12508813673E+03 0.  0.
          5    1    3    3  502    0  0.12638974790E+03  0.32006070439E+02 -0.10070269583E+02  0.13083439781E+03  0.41800000000E+01 0.  1.
         -5    1    3    3    0  502  0.46498896897E+01  0.11396485902E+02 -0.71251589338E+02  0.72427638014E+02  0.41800000000E+01 0.  1.
        -11    1    1    2    0    0 -0.37293143284E+02  0.20419776347E+02 -0.32924024354E+02  0.53774875004E+02  0.00000000000E+00 0.  1.
         11    1    1    2    0    0 -0.93746494307E+02 -0.63822332688E+02 -0.24061972945E+03  0.26600667199E+03  0.00000000000E+00 0. -1.
</event>
<event>
 7    1  0.3056346E-009  0.7939957E+02  0.7561462E-02  0.1330764E+00
         -1   -1    0    0    0  501 -0.00000000000E+00  0.00000000000E+00  0.14878933402E+03  0.14878933402E+03  0.00000000000E+00 0.  1.
          1   -1    0    0  501    0  0.00000000000E+00 -0.00000000000E+00 -0.18207901248E+03  0.18207901248E+03  0.00000000000E+00 0. -1.
         25    2    1    2    0    0  0.12766216168E+01  0.36421862170E+02  0.10125855253E+03  0.16501375082E+03  0.12509221276E+03 0.  0.
          5    1    3    3  502    0 -0.20620889979E+02  0.37267808065E+02 -0.15971327581E+02  0.45680042975E+02  0.41800000000E+01 0. -1.
         -5    1    3    3    0  502  0.21897511595E+02 -0.84594589516E+00  0.11722988011E+03  0.11933370785E+03  0.41800000000E+01 0. -1.
        -11    1    1    2    0    0  0.17533947580E+01 -0.64965511314E+02 -0.71750453874E+02  0.96807642697E+02  0.00000000000E+00 0.  1.
         11    1    1    2    0    0 -0.30300163748E+01  0.28543649144E+02 -0.62797777116E+02  0.69046952985E+02  0.00000000000E+00 0. -1.
</event>
<event>
 7    1  0.3056346E-009  0.9156172E+02  0.7561462E-02  0.1299113E+00
         -2   -1    0    0    0  501 -0.00000000000E+00  0.00000000000E+00  0.16603504084E+02  0.16603504084E+02  0.00000000000E+00 0.  1.
          2   -1    0    0  501    0  0.00000000000E+00 -0.00000000000E+00 -0.24646263038E+04  0.24646263038E+04  0.00000000000E+00 0. -1.
         25    2    1    2    0    0 -0.73501826749E+02 -0.26240173700E+02 -0.22089671386E+04  0.22138821639E+04  0.12508937236E+03 0.  0.
          5    1    3    3  502    0 -0.17117825465E+02 -0.42443688191E+02 -0.26016460886E+03  0.26419232146E+03  0.41800000000E+01 0. -1.
         -5    1    3    3    0  502 -0.56384001283E+02  0.16203514491E+02 -0.19488025297E+04  0.19496898424E+04  0.41800000000E+01 0. -1.
        -11    1    1    2    0    0  0.58359329911E+02  0.17783717743E+02 -0.24216113718E+03  0.24972802879E+03  0.00000000000E+00 0. -1.
         11    1    1    2    0    0  0.15142496837E+02  0.84564559570E+01  0.31054760449E+01  0.17619615186E+02  0.00000000000E+00 0.  1.
</event>
<event>
 7    1  0.3056346E-009  0.7604286E+02  0.7561462E-02  0.1340672E+00
          2   -1    0    0  501    0  0.00000000000E+00  0.00000000000E+00  0.98398787326E+03  0.98398787326E+03  0.00000000000E+00 0.  1.
         -2   -1    0    0    0  501 -0.00000000000E+00 -0.00000000000E+00 -0.28937585748E+02  0.28937585748E+02  0.00000000000E+00 0. -1.
         25    2    1    2    0    0 -0.46394982157E+02  0.39798072465E+02  0.84755142542E+03  0.85890964357E+03  0.12508387643E+03 0.  0.
          5    1    3    3  502    0  0.84608160388E+01  0.17492660256E+02  0.69396435235E+03  0.69424892748E+03  0.41800000000E+01 0. -1.
         -5    1    3    3    0  502 -0.54855798196E+02  0.22305412209E+02  0.15358707306E+03  0.16466071609E+03  0.41800000000E+01 0. -1.
        -11    1    1    2    0    0  0.27864231153E+02  0.11618865826E+01 -0.88697997237E+01  0.29264974036E+02  0.00000000000E+00 0. -1.
         11    1    1    2    0    0  0.18530751003E+02 -0.40959959048E+02  0.11636866182E+03  0.12475084140E+03  0.00000000000E+00 0.  1.
</event>
<event>
 7    1  0.3056346E-009  0.9105285E+02  0.7561462E-02  0.1300322E+00
         -2   -1    0    0    0  501 -0.00000000000E+00  0.00000000000E+00  0.17662762851E+02  0.17662762851E+02  0.00000000000E+00 0.  1.
          2   -1    0    0  501    0  0.00000000000E+00 -0.00000000000E+00 -0.10089367587E+04  0.10089367587E+04  0.00000000000E+00 0. -1.
         25    2    1    2    0    0  0.35445512795E+02  0.93451426358E+01 -0.80880578531E+03  0.81924340923E+03  0.12509695898E+03 0.  0.
          5    1    3    3  502    0  0.45681079628E+02 -0.36544355650E+02 -0.19509039641E+03  0.20371545385E+03  0.41800000000E+01 0. -1.
         -5    1    3    3    0  502 -0.10235566833E+02  0.45889498286E+02 -0.61371538890E+03  0.61552795538E+03  0.41800000000E+01 0. -1.
        -11    1    1    2    0    0 -0.51232027090E+02  0.90375246756E+01 -0.17412299613E+03  0.18172841064E+03  0.00000000000E+00 0. -1.
         11    1    1    2    0    0  0.15786514295E+02 -0.18382667311E+02 -0.83452144384E+01  0.25627701713E+02  0.00000000000E+00 0.  1.
</event>
<event>
 6    1  0.3056346E-009  0.1302738E+03  0.7561462E-02  0.1227050E+00
         -1   -1    0    0    0  501 -0.00000000000E+00  0.00000000000E+00  0.73514591823E+03  0.73514591823E+03  0.00000000000E+00 0.  1.
          1   -1    0    0  501    0  0.00000000000E+00 -0.00000000000E+00 -0.34029476933E+02  0.34029476933E+02  0.00000000000E+00 0. -1.
          5    1    1    2  502    0 -0.21581835105E+02  0.53470058990E+02  0.57997367383E+02  0.81890108305E+02  0.41800000000E+01 0.  1.
         -5    1    1    2    0  502  0.52392553265E+02  0.55568223027E+02  0.37665678846E+03  0.38434439731E+03  0.41800000000E+01 0.  1.
        -11    1    1    2    0    0 -0.42658004234E+02 -0.48628239008E+02  0.62718893804E+02  0.90100336260E+02  0.00000000000E+00 0. -1.
         11    1    1    2    0    0  0.11847286074E+02 -0.60410043009E+02  0.20374339165E+03  0.21284055329E+03  0.00000000000E+00 0.  1.
</event>
<event>
 7    1  0.3056346E-009  0.1016794E+03  0.7561462E-02  0.1276804E+00
          2   -1    0    0  501    0  0.00000000000E+00  0.00000000000E+00  0.22472984013E+03  0.22472984013E+03  0.00000000000E+00 0. -1.
         -2   -1    0    0    0  501 -0.00000000000E+00 -0.00000000000E+00 -0.68376504844E+02  0.68376504844E+02  0.00000000000E+00 0.  1.
         25    2    1    2    0    0 -0.45108925684E+02 -0.99176711549E+01  0.43164479498E+02  0.14015628197E+03  0.12508971064E+03 0.  0.
          5    1    3    3  502    0 -0.60646483592E+02 -0.41771106315E+02 -0.11726338164E+02  0.74684675145E+02  0.41800000000E+01 0. -1.
         -5    1    3    3    0  502  0.15537557907E+02  0.31853435160E+02  0.54890817662E+02  0.65471606829E+02  0.41800000000E+01 0. -1.
        -11    1    1    2    0    0  0.65283289848E+02  0.23732080124E+02  0.10726409908E+03  0.12779165275E+03  0.00000000000E+00 0.  1.
         11    1    1    2    0    0 -0.20174364164E+02 -0.13814408969E+02  0.59247567124E+01  0.25158410258E+02  0.00000000000E+00 0. -1.
</event>
<event>
 7    1  0.3056346E-009  0.2262134E+03  0.7561462E-02  0.1129334E+00
          1   -1    0    0  501    0  0.00000000000E+00  0.00000000000E+00  0.23465899605E+03  0.23465899605E+03  0.00000000000E+00 0. -1.
         -1   -1    0    0    0  501 -0.00000000000E+00 -0.00000000000E+00 -0.23722892851E+03  0.23722892851E+03  0.00000000000E+00 0.  1.
         25    2    1    2    0    0  0.78841846598E+02 -0.18899523329E+03  0.41418941702E+02  0.24350371333E+03  0.12507315736E+03 0.  0.
          5    1    3    3  502    0  0.92426276805E+02 -0.62402004143E+02  0.30257669744E+02  0.11562709779E+03  0.41800000000E+01 0.  1.
         -5    1    3    3    0  502 -0.13584430207E+02 -0.12659322915E+03  0.11161271958E+02  0.12787661554E+03  0.41800000000E+01 0.  1.
        -11    1    1    2    0    0 -0.29158498782E+02  0.15603568648E+02 -0.34462416724E+02  0.47763454358E+02  0.00000000000E+00 0.  1.
         11    1    1    2    0    0 -0.49683347817E+02  0.17339166464E+03 -0.95264574374E+01  0.18062075686E+03  0.00000000000E+00 0. -1.
</event>
<event>
 7    1  0.3056346E-009  0.1227680E+03  0.7561462E-02  0.1238599E+00
         -2   -1    0    0    0  501 -0.00000000000E+00  0.00000000000E+00  0.14032204105E+02  0.14032204105E+02  0.00000000000E+00 0.  1.
          2   -1    0    0  501    0  0.00000000000E+00 -0.00000000000E+00 -0.12580289924E+04  0.12580289924E+04  0.00000000000E+00 0. -1.
         25    2    1    2    0    0 -0.65117893409E+02  0.34430677741E+02 -0.58998681081E+03  0.60758345281E+03  0.12508958221E+03 0.  0.
          5    1    3    3  502    0  0.14492993000E+02  0.45257015465E+02 -0.37525526383E+03  0.37827533587E+03  0.41800000000E+01 0.  1.
         -5    1    3    3    0  502 -0.79610886410E+02 -0.10826337724E+02 -0.21473154698E+03  0.22930811694E+03  0.41800000000E+01 0.  1.
        -11    1    1    2    0    0  0.80298657681E+02 -0.60257442811E+00 -0.46002759932E+03  0.46698354324E+03  0.00000000000E+00 0. -1.
         11    1    1    2    0    0 -0.15180764271E+02 -0.33828103313E+02 -0.19398237817E+03  0.19749420047E+03  0.00000000000E+00 0.  1.
</event>
<event>
 7    1  0.3056346E-009  0.1089624E+03  0.7561462E-02  0.1262504E+00
         -1   -1    0    0    0  501 -0.00000000000E+00  0.00000000000E+00  0.40725849793E+02  0.40725849793E+02  0.00000000000E+00 0.  1.
          1   -1    0    0  501    0  0.00000000000E+00 -0.00000000000E+00 -0.85910209899E+03  0.85910209899E+03  0.00000000000E+00 0. -1.
         25    2    1    2    0    0 -0.12741433160E+01  0.57132935672E+01 -0.79300997100E+03  0.80283614647E+03  0.12508716485E+03 0.  0.
          5    1    3    3  502    0 -0.55351250422E+02  0.32598469618E+02 -0.38018803283E+03  0.38559931775E+03  0.41800000000E+01 0.  1.
         -5    1    3    3    0  502  0.54077107106E+02 -0.26885176051E+02 -0.41282193817E+03  0.41723682872E+03  0.41800000000E+01 0.  1.
        -11    1    1    2    0    0  0.41498145806E+01 -0.49229666213E+02 -0.79894266107E+01  0.50046098091E+02  0.00000000000E+00 0.  1.
         11    1    1    2    0    0 -0.28756712646E+01  0.43516372646E+02 -0.17376851582E+02  0.46945704217E+02  0.00000000000E+00 0. -1.
</event>
<event>
 6    1  0.3056346E-009  0.1298694E+03  0.7561462E-02  0.1227650E+00
         -3   -1    0    0    0  501 -0.00000000000E+00  0.00000000000E+00  0.38428458548E+03  0.38428458548E+03  0.00000000000E+00 0.  1.
          3   -1    0    0  501    0  0.00000000000E+00 -0.00000000000E+00 -0.59109949751E+02  0.59109949751E+02  0.00000000000E+00 0. -1.
          5    1    1    2  502    0 -0.12286968744E+01  0.62307722838E+02  0.97208139294E+02  0.11554504215E+03  0.41800000000E+01 0. -1.
         -5    1    1    2    0  502  0.93508555986E+02 -0.23392833060E+02  0.12901934354E+03  0.16110412189E+03  0.41800000000E+01 0. -1.
        -11    1    1    2    0    0 -0.18413626214E+02 -0.29741654324E+01 -0.16603208022E+02  0.24971459849E+02  0.00000000000E+00 0. -1.
         11    1    1    2    0    0 -0.73866232898E+02 -0.35940724346E+02  0.11555036091E+03  0.14177391134E+03  0.00000000000E+00 0.  1.
</event>
<event>
 7    1  0.3056346E-009  0.6215752E+02  0.7561462E-02  0.1388994E+00
         -4   -1    0    0    0  501 -0.00000000000E+00  0.00000000000E+00  0.48057315161E+02  0.48057315161E+02  0.00000000000E+00 0.  1.
          4   -1    0    0  501    0  0.00000000000E+00 -0.00000000000E+00 -0.24559619172E+03  0.24559619172E+03  0.00000000000E+00 0. -1.
         25    2    1    2    0    0  0.11348603164E+02  0.38483951874E+00 -0.10279808921E+03  0.16230954437E+03  0.12509197477E+03 0.  0.
          5    1    3    3  502    0 -0.31064344312E+02 -0.71067847093E+01  0.15981040820E+02  0.35893814817E+02  0.41800000000E+01 0. -1.
         -5    1    3    3    0  502  0.42412947476E+02  0.74916242281E+01 -0.11877913003E+03  0.12641572955E+03  0.41800000000E+01 0. -1.
        -11    1    1    2    0    0 -0.18103689516E+02 -0.20696924931E+02  0.61755637068E+01  0.28182332458E+02  0.00000000000E+00 0.  1.
         11    1    1    2    0    0  0.67550863518E+01  0.20312085412E+02 -0.10091635106E+03  0.10316163006E+03  0.00000000000E+00 0. -1.
</event>
<event>
 7    1  0.3056346E-009  0.2499034E+03  0.7561462E-02  0.1113366E+00
          2   -1    0    0  501    0  0.00000000000E+00  0.00000000000E+00  0.14370171605E+04  0.14370171605E+04  0.00000000000E+00 0.  1.
         -2   -1    0    0    0  501 -0.00000000000E+00 -0.00000000000E+00 -0.47869436648E+02  0.47869436648E+02  0.00000000000E+00 0. -1.
         25    2    1    2    0    0  0.93722849015E+02  0.20763953872E+03  0.90145406902E+03  0.93817084518E+03  0.12508775212E+03 0.  0.
          5    1    3    3  502    0 -0.20372647842E+02  0.78701216550E+02  0.39298042669E+03  0.40132283069E+03  0.41800000000E+01 0.  1.
         -5    1    3    3    0  502  0.11409549686E+03  0.12893832217E+03  0.50847364233E+03  0.53684801450E+03  0.41800000000E+01 0.  1.
        -11    1    1    2    0    0 -0.80778270738E+02 -0.66999979344E+02  0.23131347100E+03  0.25400796862E+03  0.00000000000E+00 0.  1.
         11    1    1    2    0    0 -0.12944578277E+02 -0.14063955937E+03  0.25638018378E+03  0.29270778330E+03  0.00000000000E+00 0. -1.
</event>
<event>
 7    1  0.3056346E-009  0.9855459E+02  0.7561462E-02  0.1283365E+00
         -2   -1    0    0    0  501 -0.00000000000E+00  0.00000000000E+00  0.93100506504E+01  0.93100506504E+01  0.00000000000E+00 0.  1.
          2   -1    0    0  501    0  0.00000000000E+00 -0.00000000000E+00 -0.17726075460E+04  0.17726075460E+04  0.00000000000E+00 0. -1.
         25    2    1    2    0    0  0.35365459230E+02 -0.33427560717E+02 -0.13260495146E+04  0.13328223294E+04  0.12505970171E+03 0.  0.
          5    1    3    3  502    0  0.59085657689E+02 -0.38809659438E+02 -0.12648940324E+04  0.12668747729E+04  0.41800000000E+01 0.  1.
         -5    1    3    3    0  502 -0.23720198460E+02  0.53820987203E+01 -0.61155482153E+02  0.65947556429E+02  0.41800000000E+01 0.  1.
        -11    1    1    2    0    0  0.16945532869E+01 -0.28981549322E+02 -0.10022467159E+03  0.10434455667E+03  0.00000000000E+00 0.  1.
         11    1    1    2    0    0 -0.37060012517E+02  0.62409110039E+02 -0.33702330919E+03  0.34475071064E+03  0.00000000000E+00 0. -1.
</event>
<event>
 7    1  0.3056346E-009  0.1244350E+03  0.7561462E-02  0.1235955E+00
         -1   -1    0    0    0  501 -0.00000000000E+00  0.00000000000E+00  0.90701867611E+02  0.90701867611E+02  0.00000000000E+00 0.  1.
          1   -1    0    0  501    0  0.00000000000E+00 -0.00000000000E+00 -0.25422404018E+03  0.25422404018E+03  0.00000000000E+00 0. -1.
         25    2    1    2    0    0 -0.10464701520E+03 -0.49405137200E+01 -0.10547968847E+03  0.19429055356E+03  0.12508976000E+03 0.  0.
          5    1    3    3  502    0 -0.23956288494E+02 -0.20151821655E+02 -0.10750410205E+03  0.11204732943E+03  0.41800000000E+01 0. -1.
         -5    1    3    3    0  502 -0.80690726708E+02  0.15211307935E+02  0.20244135787E+01  0.82243224135E+02  0.41800000000E+01 0. -1.
        -11    1    1    2    0    0  0.28807403349E+00  0.28157130779E+02  0.16180433234E+01  0.28205053883E+02  0.00000000000E+00 0. -1.
         11    1    1    2    0    0  0.10435894117E+03 -0.23216617059E+02 -0.59660527416E+02  0.12243030034E+03  0.00000000000E+00 0.  1.
</event>
<event>
 7    1  0.3056346E-009  0.9060807E+02  0.7561462E-02  0.1301386E+00
         -4   -1    0    0    0  501 -0.00000000000E+00  0.00000000000E+00  0.43967640195E+03  0.43967640195E+03  0.00000000000E+00 0.  1.
          4   -1    0    0  501    0  0.00000000000E+00 -0.00000000000E+00 -0.37631648988E+02  0.37631648988E+02  0.00000000000E+00 0. -1.
         25    2    1    2    0    0  0.67478605385E+02 -0.38858746844E+01  0.25098481962E+03  0.28845668887E+03  0.12508165121E+03 0.  0.
          5    1    3    3  502    0  0.12749844964E+02  0.78158420214E+00 -0.13051895804E+02  0.18734828650E+02  0.41800000000E+01 0. -1.
         -5    1    3    3    0  502  0.54728760420E+02 -0.46674588866E+01  0.26403671543E+03  0.26972186022E+03  0.41800000000E+01 0. -1.
        -11    1    1    2    0    0 -0.88697152986E+02 -0.67518975806E+01  0.12699803375E+03  0.15505248674E+03  0.00000000000E+00 0. -1.
         11    1    1    2    0    0  0.21218547602E+02  0.10637772265E+02  0.24061899590E+02  0.33798875321E+02  0.00000000000E+00 0.  1.
</event>
<event>
 7    1  0.3056346E-009  0.2256800E+03  0.7561462E-02  0.1129718E+00
         -1   -1    0    0    0  501 -0.00000000000E+00  0.00000000000E+00  0.77440966249E+02  0.77440966249E+02  0.00000000000E+00 0.  1.
          1   -1    0    0  501    0  0.00000000000E+00 -0.00000000000E+00 -0.75973860911E+03  0.75973860911E+03  0.00000000000E+00 0. -1.
         25    2    1    2    0    0 -0.18337952163E+02  0.21486463388E+03 -0.33246403782E+03  0.41554488638E+03  0.12506848033E+03 0.  0.
          5    1    3    3  502    0 -0.16026929649E+02  0.82562014355E+02 -0.37394400136E+02  0.92136649873E+02  0.41800000000E+01 0.  1.
         -5    1    3    3    0  502 -0.23110225138E+01  0.13230261953E+03 -0.29506963768E+03  0.32340823651E+03  0.41800000000E+01 0.  1.
        -11    1    1    2    0    0  0.49439092641E+02 -0.64776856072E+02 -0.10747248686E+03  0.13487253388E+03  0.00000000000E+00 0.  1.
         11    1    1    2    0    0 -0.31101140478E+02 -0.15008777781E+03 -0.24236111818E+03  0.28676215509E+03  0.00000000000E+00 0. -1.
</event>
<event>
 7    1  0.3056346E-009  0.1062116E+03  0.7561462E-02  0.1267751E+00
         -2   -1    0    0    0  501 -0.00000000000E+00  0.00000000000E+00  0.41952711864E+02  0.41952711864E+02  0.00000000000E+00 0.  1.
          2   -1    0    0  501    0  0.00000000000E+00 -0.00000000000E+00 -0.44384430897E+03  0.44384430897E+03  0.00000000000E+00 0. -1.
         25    2    1    2    0    0  0.29927398631E+02 -0.68115561626E+02 -0.28219687409E+03  0.31751696860E+03  0.12508625296E+03 0.  0.
          5    1    3    3  502    0 -0.28493073079E+01  0.14937035940E+02 -0.18421883276E+03  0.18489262921E+03  0.41800000000E+01 0.  1.
         -5    1    3    3    0  502  0.32776705939E+02 -0.83052597566E+02 -0.97978041330E+02  0.13262433939E+03  0.41800000000E+01 0.  1.
        -11    1    1    2    0    0 -0.21500844109E+02 -0.13389580792E+02 -0.27388932717E+01  0.25476826873E+02  0.00000000000E+00 0.  1.
         11    1    1    2    0    0 -0.84265545223E+01  0.81505142418E+02 -0.11695582974E+03  0.14280322536E+03  0.00000000000E+00 0. -1.
</event>
<event>
 7    1  0.3056346E-009  0.1023389E+03  0.7561462E-02  0.1275453E+00
          2   -1    0    0  501    0  0.00000000000E+00  0.00000000000E+00  0.83436944966E+03  0.83436944966E+03  0.00000000000E+00 0. -1.
         -2   -1    0    0    0  501 -0.00000000000E+00 -0.00000000000E+00 -0.25330453799E+02  0.25330453799E+02  0.00000000000E+00 0.  1.
         25    2    1    2    0    0  0.27191491169E+02 -0.91927562803E+02  0.45245847089E+03  0.47912003009E+03  0.12508909366E+03 0.  0.
          5    1    3    3  502    0 -0.94862098310E+01 -0.54749880783E+02  0.40377195138E+03  0.40759882083E+03  0.41800000000E+01 0.  1.
         -5    1    3    3    0  502  0.36677701000E+02 -0.37177682020E+02  0.48686519515E+02  0.71521209257E+02  0.41800000000E+01 0.  1.
        -11    1    1    2    0    0 -0.12458025011E+02  0.61590517886E+02  0.33431082140E+03  0.34016513576E+03  0.00000000000E+00 0. -1.
         11    1    1    2    0    0 -0.14733466158E+02  0.30337044917E+02  0.22269703568E+02  0.40414737613E+02  0.00000000000E+00 0.  1.
</event>
<event>
 7    1  0.3056346E-009  0.8416084E+02  0.7561462E-02  0.1317642E+00
         -2   -1    0    0    0  501 -0.00000000000E+00  0.00000000000E+00  0.80399592676E+02  0.80399592676E+02  0.00000000000E+00 0. -1.
          2   -1    0    0  501    0  0.00000000000E+00 -0.00000000000E+00 -0.14799894195E+03  0.14799894195E+03  0.00000000000E+00 0.  1.
         25    2    1    2    0    0  0.15878877804E+02 -0.62182370774E+01 -0.32228376648E+02  0.13029958400E+03  0.12509399704E+03 0.  0.
          5    1    3    3  502    0 -0.21577281917E+02 -0.40355186710E+02 -0.57426226359E+02  0.73548379065E+02  0.41800000000E+01 0.  1.
         -5    1    3    3    0  502  0.37456159721E+02  0.34136949633E+02  0.25197849711E+02  0.56751204933E+02  0.41800000000E+01 0.  1.
        -11    1    1    2    0    0 -0.27149989263E+02 -0.25874448599E+02 -0.48784890239E+02  0.61535148679E+02  0.00000000000E+00 0.  1.
         11    1    1    2    0    0  0.11271111459E+02  0.32092685676E+02  0.13413917611E+02  0.36563801951E+02  0.00000000000E+00 0. -1.
</event>
<event>
 7    1  0.3056346E-009  0.3410910E+03  0.7561462E-02  0.1066332E+00
         -2   -1    0    0    0  501 -0.00000000000E+00  0.00000000000E+00  0.28904404574E+03  0.28904404574E+03  0.00000000000E+00 0.  1.
          2   -1    0    0  501    0  0.00000000000E+00 -0.00000000000E+00 -0.47797042862E+03  0.47797042862E+03  0.00000000000E+00 0. -1.
         25    2    1    2    0    0  0.23777137259E+03  0.23799221801E+03 -0.21198661604E+03  0.41684660005E+03  0.12508893290E+03 0.  0.
          5    1    3    3  502    0  0.15009096047E+03  0.12509155849E+03 -0.18924229537E+03  0.27203917582E+03  0.41800000000E+01 0.  1.
         -5    1    3    3    0  502  0.87680412118E+02  0.11290065953E+03 -0.22744320666E+02  0.14480742423E+03  0.41800000000E+01 0.  1.
        -11    1    1    2    0    0 -0.46616598171E+01 -0.32977851180E+02 -0.16590521252E+02  0.37209073304E+02  0.00000000000E+00 0. -1.
         11    1    1    2    0    0 -0.23310971277E+03 -0.20501436683E+03  0.39650754412E+02  0.31295880100E+03  0.00000000000E+00 0.  1.
</event>
<event>
 7    1  0.3056346E-009  0.1350749E+03  0.7561462E-02  0.1220114E+00
          1   -1    0    0  501    0  0.00000000000E+00  0.00000000000E+00  0.87538925951E+02  0.87538925951E+02  0.00000000000E+00 0. -1.
         -1   -1    0    0    0  501 -0.00000000000E+00 -0.00000000000E+00 -0.23826459576E+03  0.23826459576E+03  0.00000000000E+00 0.  1.
         25    2    1    2    0    0  0.56765181556E+02 -0.81721795144E+02 -0.85045448043E+02  0.18105582640E+03  0.12509095252E+03 0.  0.
          5    1    3    3  502    0  0.75057084396E+02 -0.14115252080E+02 -0.80845623591E+01  0.76913190077E+02  0.41800000000E+01 0.  1.
         -5    1    3    3    0  502 -0.18291902840E+02 -0.67606543064E+02 -0.76960885684E+02  0.10414263632E+03  0.41800000000E+01 0.  1.
        -11    1    1    2    0    0 -0.73149973188E+02  0.52642181057E+02 -0.65428574753E+02  0.11136882956E+03  0.00000000000E+00 0.  1.
         11    1    1    2    0    0  0.16384791633E+02  0.29079614088E+02 -0.25164700820E+00  0.33378865747E+02  0.00000000000E+00 0. -1.
</event>
<event>
 7    1  0.3056346E-009  0.1069212E+03  0.7561462E-02  0.1266380E+00
         -3   -1    0    0    0  501 -0.00000000000E+00  0.00000000000E+00  0.19995876297E+02  0.19995876297E+02  0.00000000000E+00 0.  1.
          3   -1    0    0  501    0  0.00000000000E+00 -0.00000000000E+00 -0.79112100677E+03  0.79112100677E+03  0.00000000000E+00 0. -1.
         25    2    1    2    0    0 -0.38156062599E+02  0.51351310255E+02 -0.43392910544E+03  0.45610833052E+03  0.12508996138E+03 0.  0.
          5    1    3    3  502    0  0.28897946349E+02 -0.24504536068E+02 -0.95212632720E+02  0.10255964811E+03  0.41800000000E+01 0. -1.
         -5    1    3    3    0  502 -0.67054008947E+02  0.75855846323E+02 -0.33871647272E+03  0.35354868241E+03  0.41800000000E+01 0. -1.
        -11    1    1    2    0    0  0.45719937562E+02 -0.39971745618E+02 -0.33582953889E+03  0.34127632840E+03  0.00000000000E+00 0. -1.
         11    1    1    2    0    0 -0.75638749639E+01 -0.11379564637E+02 -0.13664861475E+01  0.13732224153E+02  0.00000000000E+00 0.  1.
</event>
<event>
 7    1  0.3056346E-009  0.1715970E+03  0.7561462E-02  0.1176193E+00
          2   -1    0    0  501    0  0.00000000000E+00  0.00000000000E+00  0.17971392772E+03  0.17971392772E+03  0.00000000000E+00 0.  1.
         -2   -1    0    0    0  501 -0.00000000000E+00 -0.00000000000E+00 -0.20721120566E+03  0.20721120566E+03  0.00000000000E+00 0. -1.
         25    2    1    2    0    0  0.78995686545E+02 -0.13411019456E+03  0.18189016053E+02  0.20050894630E+03  0.12508850652E+03 0.  0.
          5    1    3    3  502    0  0.45500138708E+02 -0.11564452316E+03 -0.40114230307E+02  0.13065428517E+03  0.41800000000E+01 0.  1.
         -5    1    3    3    0  502  0.33495547837E+02 -0.18465671396E+02  0.58303246360E+02  0.69854661127E+02  0.41800000000E+01 0.  1.
        -11    1    1    2    0    0 -0.50207338705E+02  0.77816603952E+01 -0.18179426507E+02  0.53961306938E+02  0.00000000000E+00 0.  1.
         11    1    1    2    0    0 -0.28788347840E+02  0.12632853416E+03 -0.27506867485E+02  0.13245488014E+03  0.00000000000E+00 0. -1.
</event>
<event>
 7    1  0.3056346E-009  0.1302435E+03  0.7561462E-02  0.1227095E+00
         -2   -1    0    0    0  501 -0.00000000000E+00  0.00000000000E+00  0.89049872096E+02  0.89049872096E+02  0.00000000000E+00 0. -1.
          2   -1    0    0  501    0  0.00000000000E+00 -0.00000000000E+00 -0.34087995891E+03  0.34087995891E+03  0.00000000000E+00 0.  1.
         25    2    1    2    0    0 -0.84465451913E+02 -0.89352983674E+02 -0.55941514887E+02  0.18411399254E+03  0.12510052320E+03 0.  0.
          5    1    3    3  502    0 -0.32435831733E+02 -0.53403644737E+02 -0.91928222357E+02  0.11123085416E+03  0.41800000000E+01 0.  1.
         -5    1    3    3    0  502 -0.52029620180E+02 -0.35949338937E+02  0.35986707470E+02  0.72883138383E+02  0.41800000000E+01 0.  1.
        -11    1    1    2    0    0  0.44418248284E+02  0.82722649198E+02 -0.81128019245E+02  0.12408776321E+03  0.00000000000E+00 0. -1.
         11    1    1    2    0    0  0.40047203628E+02  0.66303344762E+01 -0.11476055268E+03  0.12172807525E+03  0.00000000000E+00 0.  1.
</event>
<event>
 7    1  0.3056346E-009  0.1322056E+03  0.7561462E-02  0.1224219E+00
         -2   -1    0    0    0  501 -0.00000000000E+00  0.00000000000E+00  0.94535147982E+02  0.94535147982E+02  0.00000000000E+00 0.  1.
          2   -1    0    0  501    0  0.00000000000E+00 -0.00000000000E+00 -0.19949082521E+03  0.19949082521E+03  0.00000000000E+00 0. -1.
         25    2    1    2    0    0 -0.54027802358E+01 -0.83880927407E+02 -0.71145803693E+02  0.16665537398E+03  0.12508832190E+03 0.  0.
          5    1    3    3  502    0  0.57483618904E+02 -0.21941652847E+02 -0.37016715306E+02  0.71927131070E+02  0.41800000000E+01 0.  1.
         -5    1    3    3    0  502 -0.62886399140E+02 -0.61939274560E+02 -0.34129088387E+02  0.94728242906E+02  0.41800000000E+01 0.  1.
        -11    1    1    2    0    0  0.17483420389E+02 -0.97152949154E+01 -0.25819319518E+02  0.32660284815E+02  0.00000000000E+00 0. -1.
         11    1    1    2    0    0 -0.12080640154E+02  0.93596222323E+02 -0.79905540132E+01  0.94710314396E+02  0.00000000000E+00 0.  1.
</event>
<event>
 7    1  0.3056346E-009  0.1167707E+03  0.7561462E-02  0.1248522E+00
          2   -1    0    0  501    0  0.00000000000E+00  0.00000000000E+00  0.53090933014E+03  0.53090933014E+03  0.00000000000E+00 0. -1.
         -2   -1    0    0    0  501 -0.00000000000E+00 -0.00000000000E+00 -0.26831811254E+02  0.26831811254E+02  0.00000000000E+00 0.  1.
         25    2    1    2    0    0 -0.29475705217E+02 -0.34634038115E+02  0.22913193557E+03  0.26498786659E+03  0.12509513079E+03 0.  0.
          5    1    3    3  502    0  0.26612521799E+02  0.34635049162E+02  0.75537433085E+02  0.87356677730E+02  0.41800000000E+01 0.  1.
         -5    1    3    3    0  502 -0.56088227016E+02 -0.69269087277E+02  0.15359450248E+03  0.17763118886E+03  0.41800000000E+01 0.  1.
        -11    1    1    2    0    0 -0.31991546822E+02  0.56858470741E+01  0.82654267496E+02  0.88811687634E+02  0.00000000000E+00 0.  1.
         11    1    1    2    0    0  0.61467252040E+02  0.28948191041E+02  0.19229131583E+03  0.20394158718E+03  0.00000000000E+00 0. -1.
</event>
<event>
 7    1  0.3056346E-009  0.1588854E+03  0.7561462E-02  0.1189961E+00
         -2   -1    0    0    0  501 -0.00000000000E+00  0.00000000000E+00  0.68330554377E+02  0.68330554377E+02  0.00000000000E+00 0.  1.
          2   -1    0    0  501    0  0.00000000000E+00 -0.00000000000E+00 -0.42748466332E+03  0.42748466332E+03  0.00000000000E+00 0. -1.
         25    2    1    2    0    0 -0.12216781030E+03  0.48857610437E+02 -0.18903074350E+03  0.26209954164E+03  0.12510598614E+03 0.  0.
          5    1    3    3  502    0  0.25420611072E+02  0.95140245973E+01 -0.41043597014E+02  0.49383938555E+02  0.41800000000E+01 0.  1.
         -5    1    3    3    0  502 -0.14758842138E+03  0.39343585839E+02 -0.14798714649E+03  0.21271560309E+03  0.41800000000E+01 0.  1.
        -11    1    1    2    0    0  0.82967626718E+02 -0.52430648123E+02 -0.56007935925E+02  0.11300216295E+03  0.00000000000E+00 0.  1.
         11    1    1    2    0    0  0.39200183586E+02  0.35730376869E+01 -0.11411542952E+03  0.12071351311E+03  0.00000000000E+00 0. -1.
</event>
<event>
 7    1  0.3056346E-009  0.9391472E+02  0.7561462E-02  0.1293639E+00
         -2   -1    0    0    0  501 -0.00000000000E+00  0.00000000000E+00  0.22968256168E+02  0.22968256168E+02  0.00000000000E+00 0.  1.
          2   -1    0    0  501    0  0.00000000000E+00 -0.00000000000E+00 -0.54539786796E+03  0.54539786796E+03  0.00000000000E+00 0. -1.
         25    2    1    2    0    0 -0.83348551118E+01  0.17112701283E+02 -0.24719907474E+03  0.27769919472E+03  0.12508855200E+03 0.  0.
          5    1    3    3  502    0  0.36944446576E+02 -0.19744946185E+02 -0.27375334722E+02  0.50215897720E+02  0.41800000000E+01 0. -1.
         -5    1    3    3    0  502 -0.45279301688E+02  0.36857647468E+02 -0.21982374002E+03  0.22748329700E+03  0.41800000000E+01 0. -1.
        -11    1    1    2    0    0  0.46429172008E+02 -0.15928097611E+02 -0.20464192283E+03  0.21044640383E+03  0.00000000000E+00 0.  1.
         11    1    1    2    0    0 -0.38094316897E+02 -0.11846036722E+01 -0.70588614225E+02  0.80220525578E+02  0.00000000000E+00 0. -1.
</event>
<event>
 7    1  0.3056346E-009  0.1272478E+03  0.7561462E-02  0.1231598E+00
         -1   -1    0    0    0  501 -0.00000000000E+00  0.00000000000E+00  0.86359070762E+02  0.86359070762E+02  0.00000000000E+00 0.  1.
          1   -1    0    0  501    0  0.00000000000E+00 -0.00000000000E+00 -0.32916968281E+03  0.32916968281E+03  0.00000000000E+00 0. -1.
         25    2    1    2    0    0 -0.55585751595E+02 -0.62612480694E+02 -0.20251714727E+03  0.25233496061E+03  0.12509851673E+03 0.  0.
          5    1    3    3  502    0  0.24693822815E+02 -0.23984278894E+02 -0.13791665883E+03  0.14220937980E+03  0.41800000000E+01 0.  1.
         -5    1    3    3    0  502 -0.80279574410E+02 -0.38628201799E+02 -0.64600488434E+02  0.11012558080E+03  0.41800000000E+01 0.  1.
        -11    1    1    2    0    0  0.35115398710E+02  0.89902246437E+02 -0.68970809325E+02  0.11862747439E+03  0.00000000000E+00 0. -1.
         11    1    1    2    0    0  0.20470352885E+02 -0.27289765743E+02  0.28677344543E+02  0.44566318578E+02  0.00000000000E+00 0.  1.
</event>
<event>
 7    1  0.3580860E-009  0.1338668E+03  0.7561462E-02  0.1221828E+00
          2   -1    0    0  501    0  0.00000000000E+00  0.00000000000E+00  0.21099612267E+03  0.21099612267E+03  0.00000000000E+00 0. -1.
         -2   -1    0    0    0  501 -0.00000000000E+00 -0.00000000000E+00 -0.88716633675E+02  0.88716633675E+02  0.00000000000E+00 0.  1.
         25    2    1    2    0    0  0.15037663959E+02  0.81569994986E+02  0.64150136871E+02  0.16322811886E+03  0.12509349826E+03 0.  0.
          5    1    3    3  502    0 -0.25015528436E+02  0.10170890901E+03  0.40558951609E+02  0.11239652926E+03  0.41800000000E+01 0.  1.
         -5    1    3    3    0  502  0.40053192395E+02 -0.20138914020E+02  0.23591185263E+02  0.50831589598E+02  0.41800000000E+01 0.  1.
        -11    1    1    2    0    0 -0.44769939609E+02 -0.19049270201E+02  0.44479270960E+02  0.65921375387E+02  0.00000000000E+00 0. -1.
         11    1    1    2    0    0  0.29732275650E+02 -0.62520724785E+02  0.13650081168E+02  0.70563262105E+02  0.00000000000E+00 0.  1.
</event>
<event>
 7    1  0.3439919E-009  0.1517271E+03  0.7561462E-02  0.1198367E+00
         -1   -1    0    0    0  501 -0.00000000000E+00  0.00000000000E+00  0.30013582040E+02  0.30013582040E+02  0.00000000000E+00 0.  1.
          1   -1    0    0  501    0  0.00000000000E+00 -0.00000000000E+00 -0.84458527646E+03  0.84458527646E+03  0.00000000000E+00 0. -1.
         25    2    1    2    0    0  0.45846538173E+02 -0.10317636450E+03 -0.36193549195E+03  0.39924019158E+03  0.12509261766E+03 0.  0.
          5    1    3    3  502    0 -0.35460110266E+01 -0.11310952019E+03 -0.28992188061E+03  0.31125312369E+03  0.41800000000E+01 0. -1.
         -5    1    3    3    0  502  0.49392549200E+02  0.99331556905E+01 -0.72013611335E+02  0.87987067890E+02  0.41800000000E+01 0. -1.
        -11    1    1    2    0    0  0.18099130120E+02  0.59569469955E+02 -0.26837343825E+03  0.27550027698E+03  0.00000000000E+00 0. -1.
         11    1    1    2    0    0 -0.63945668293E+02  0.43606894547E+02 -0.18426276423E+03  0.19985838993E+03  0.00000000000E+00 0.  1.
</event>
<event>
 7    1  0.3056346E-009  0.1427757E+03  0.7561462E-02  0.1209642E+00
          1   -1    0    0  501    0  0.00000000000E+00  0.00000000000E+00  0.54821274172E+02  0.54821274172E+02  0.00000000000E+00 0. -1.
         -1   -1    0    0    0  501 -0.00000000000E+00 -0.00000000000E+00 -0.43941569749E+03  0.43941569749E+03  0.00000000000E+00 0.  1.
         25    2    1    2    0    0  0.66962785076E+02 -0.86715677906E+02 -0.16234612928E+03  0.23238485182E+03  0.12507130080E+03 0.  0.
          5    1    3    3  502    0  0.57911320807E+02  0.11982051248E+02 -0.28485932407E+02  0.65773941457E+02  0.41800000000E+01 0. -1.
         -5    1    3    3    0  502  0.90514642695E+01 -0.98697729154E+02 -0.13386019687E+03  0.16661091037E+03  0.41800000000E+01 0. -1.
        -11    1    1    2    0    0 -0.23795124873E+02 -0.62194370254E+01 -0.96780118733E+02  0.99856300485E+02  0.00000000000E+00 0.  1.
         11    1    1    2    0    0 -0.43167660203E+02  0.92935114932E+02 -0.12546817531E+03  0.16199581936E+03  0.00000000000E+00 0. -1.
</event>
<event>
 7    1  0.3056346E-009  0.1305766E+03  0.7561462E-02  0.1226603E+00
         -1   -1    0    0    0  501 -0.00000000000E+00  0.00000000000E+00  0.55728803640E+03  0.55728803640E+03  0.00000000000E+00 0.  1.
          1   -1    0    0  501    0  0.00000000000E+00 -0.00000000000E+00 -0.40945580585E+02  0.40945580585E+02  0.00000000000E+00 0. -1.
         25    2    1    2    0    0  0.88246380031E+02  0.51630832428E+02  0.24043279624E+03  0.28967172208E+03  0.12509440682E+03 0.  0.
          5    1    3    3  502    0  0.11780076734E+03  0.36365059930E+02  0.21388250197E+03  0.24690612674E+03  0.41800000000E+01 0.  1.
         -5    1    3    3    0  502 -0.29554387312E+02  0.15265772498E+02  0.26550294271E+02  0.42765595345E+02  0.41800000000E+01 0.  1.
        -11    1    1    2    0    0 -0.30597606417E+02 -0.29551754175E+02  0.22370989730E+03  0.22771833006E+03  0.00000000000E+00 0.  1.
         11    1    1    2    0    0 -0.57648773614E+02 -0.22079078252E+02  0.52199762264E+02  0.80843564840E+02  0.00000000000E+00 0. -1.
</event>
<event>
 7    1  0.3056346E-009  0.1516170E+03  0.7561462E-02  0.1198500E+00
         -1   -1    0    0    0  501 -0.00000000000E+00  0.00000000000E+00  0.21346344149E+02  0.21346344149E+02  0.00000000000E+00 0.  1.
          1   -1    0    0  501    0  0.00000000000E+00 -0.00000000000E+00 -0.20581412918E+04  0.20581412918E+04  0.00000000000E+00 0. -1.
         25    2    1    2    0    0  0.13836741771E+03 -0.25768543496E+02 -0.16101500287E+04  0.16211230652E+04  0.12508923835E+03 0.  0.
          5    1    3    3  502    0  0.30839532277E+01 -0.18971869469E+01 -0.75333385425E+03  0.75335415208E+03  0.41800000000E+01 0.  1.
         -5    1    3    3    0  502  0.13528346449E+03 -0.23871356549E+02 -0.85681617440E+03  0.86776891310E+03  0.41800000000E+01 0.  1.
        -11    1    1    2    0    0 -0.96625651550E+02  0.53214849264E+02 -0.34916513566E+03  0.36617568008E+03  0.00000000000E+00 0.  1.
         11    1    1    2    0    0 -0.41741766164E+02 -0.27446305768E+02 -0.77479783364E+02  0.92188890724E+02  0.00000000000E+00 0. -1.
</event>
<event>
 7    1  0.3056346E-009  0.1208119E+03  0.7561462E-02  0.1241764E+00
          1   -1    0    0  501    0  0.00000000000E+00  0.00000000000E+00  0.13464039532E+03  0.13464039532E+03  0.00000000000E+00 0. -1.
         -1   -1    0    0    0  501 -0.00000000000E+00 -0.00000000000E+00 -0.12403210216E+03  0.12403210216E+03  0.00000000000E+00 0.  1.
         25    2    1    2    0    0  0.23846025754E+02  0.61076747852E+02  0.29467714455E+02  0.14427450285E+03  0.12509110242E+03 0.  0.
          5    1    3    3  502    0  0.68896163987E+02  0.13014907133E+02 -0.38316724744E+01  0.70343609047E+02  0.41800000000E+01 0. -1.
         -5    1    3    3    0  502 -0.45050138233E+02  0.48061840718E+02  0.33299386929E+02  0.73930893799E+02  0.41800000000E+01 0. -1.
        -11    1    1    2    0    0 -0.54609172106E+02 -0.44423507162E+02  0.72194730880E+01  0.70765319602E+02  0.00000000000E+00 0. -1.
         11    1    1    2    0    0  0.30763146353E+02 -0.16653240690E+02 -0.26078894379E+02  0.43632675039E+02  0.00000000000E+00 0.  1.
</event>
<event>
 7    1  0.3056346E-009  0.1045447E+03  0.7561462E-02  0.1271019E+00
          1   -1    0    0  501    0  0.00000000000E+00  0.00000000000E+00  0.54511443181E+03  0.54511443181E+03  0.00000000000E+00 0. -1.
         -1   -1    0    0    0  501 -0.00000000000E+00 -0.00000000000E+00 -0.27233206164E+02  0.27233206164E+02  0.00000000000E+00 0.  1.
         25    2    1    2    0    0 -0.18214793894E+02 -0.57819193666E+02  0.34127803041E+03  0.36849995131E+03  0.12508669874E+03 0.  0.
          5    1    3    3  502    0  0.36315192038E+02 -0.56981616431E+02  0.97744861932E+02  0.11890007661E+03  0.41800000000E+01 0. -1.
         -5    1    3    3    0  502 -0.54529985932E+02 -0.83757723549E+00  0.24353316848E+03  0.24959987470E+03  0.41800000000E+01 0. -1.
        -11    1    1    2    0    0 -0.23165593865E+02  0.22417287424E+02  0.12404088791E+03  0.12816131003E+03  0.00000000000E+00 0.  1.
         11    1    1    2    0    0  0.41380387759E+02  0.35401906242E+02  0.52562307323E+02  0.75686376633E+02  0.00000000000E+00 0. -1.
</event>
<event>
 7    1  0.3056346E-009  0.2312721E+03  0.7561462E-02  0.1125748E+00
         -1   -1    0    0    0  501 -0.00000000000E+00  0.00000000000E+00  0.46406177988E+03  0.46406177988E+03  0.00000000000E+00 0.  1.
          1   -1    0    0  501    0  0.00000000000E+00 -0.00000000000E+00 -0.12116850680E+03  0.12116850680E+03  0.00000000000E+00 0. -1.
         25    2    1    2    0    0  0.19944094130E+03  0.67445248758E+02  0.16065223642E+03  0.29288714984E+03  0.12509272892E+03 0.  0.
          5    1    3    3  502    0 -0.11820091318E+02  0.63392822801E+01 -0.75834149901E+01  0.15965013045E+02  0.41800000000E+01 0. -1.
         -5    1    3    3    0  502  0.21126103262E+03  0.61105966478E+02  0.16823565141E+03  0.27692213680E+03  0.41800000000E+01 0. -1.
        -11    1    1    2    0    0 -0.61755509713E+02 -0.66628908041E+02  0.69349158735E+02  0.11429112032E+03  0.00000000000E+00 0.  1.
         11    1    1    2    0    0 -0.13768543159E+03 -0.81634071700E+00  0.11289187793E+03  0.17805201652E+03  0.00000000000E+00 0. -1.
</event>
<event>
 7    1  0.3056346E-009  0.1358098E+03  0.7561462E-02  0.1219081E+00
         -2   -1    0    0    0  501 -0.00000000000E+00  0.00000000000E+00  0.68553004908E+02  0.68553004908E+02  0.00000000000E+00 0.  1.
          2   -1    0    0  501    0  0.00000000000E+00 -0.00000000000E+00 -0.43543034762E+03  0.43543034762E+03  0.00000000000E+00 0. -1.
         25    2    1    2    0    0 -0.31357106657E+02  0.10041087166E+03 -0.30644940190E+03  0.34731012832E+03  0.12508987980E+03 0.  0.
          5    1    3    3  502    0 -0.92636089741E+00 -0.26256626792E+02 -0.97307649821E+02  0.10087873764E+03  0.41800000000E+01 0.  1.
         -5    1    3    3    0  502 -0.30430745760E+02  0.12666749845E+03 -0.20914175208E+03  0.24643139068E+03  0.41800000000E+01 0.  1.
        -11    1    1    2    0    0  0.18819560417E+02 -0.64652784069E+01 -0.58589889348E+02  0.61876900479E+02  0.00000000000E+00 0. -1.
         11    1    1    2    0    0  0.12537546240E+02 -0.93945593253E+02 -0.18380514634E+01  0.94796323718E+02  0.00000000000E+00 0.  1.
</event>
<event>
 7    1  0.3056346E-009  0.1215870E+03  0.7561462E-02  0.1240502E+00
          2   -1    0    0  501    0  0.00000000000E+00  0.00000000000E+00  0.79946255288E+03  0.79946255288E+03  0.00000000000E+00 0.  1.
         -2   -1    0    0    0  501 -0.00000000000E+00 -0.00000000000E+00 -0.21322819147E+02  0.21322819147E+02  0.00000000000E+00 0. -1.
         25    2    1    2    0    0 -0.54568478428E+01  0.69524486471E+02  0.50638145516E+03  0.52624409955E+03  0.12508893947E+03 0.  0.
          5    1    3    3  502    0  0.36733714754E+02 -0.12689471047E+02  0.26277694142E+03  0.26566817991E+03  0.41800000000E+01 0.  1.
         -5    1    3    3    0  502 -0.42190562596E+02  0.82213957518E+02  0.24360451374E+03  0.26057591964E+03  0.41800000000E+01 0.  1.
        -11    1    1    2    0    0 -0.40057740741E+02 -0.43583654389E+02  0.11639391655E+03  0.13058216315E+03  0.00000000000E+00 0.  1.
         11    1    1    2    0    0  0.45514588584E+02 -0.25940832082E+02  0.15536436203E+03  0.16395910933E+03  0.00000000000E+00 0. -1.
</event>
<event>
 7    1  0.3056346E-009  0.1195601E+03  0.7561462E-02  0.1243825E+00
         -1   -1    0    0    0  501 -0.00000000000E+00  0.00000000000E+00  0.40327768091E+02  0.40327768091E+02  0.00000000000E+00 0.  1.
          1   -1    0    0  501    0  0.00000000000E+00 -0.00000000000E+00 -0.44006579643E+03  0.44006579643E+03  0.00000000000E+00 0. -1.
         25    2    1    2    0    0  0.72069627879E+02 -0.10497908297E+02 -0.17443771420E+03  0.22668157292E+03  0.12510708222E+03 0.  0.
          5    1    3    3  502    0  0.89564687769E+02 -0.45493558426E+02 -0.14926905514E+03  0.17997283233E+03  0.41800000000E+01 0.  1.
         -5    1    3    3    0  502 -0.17495059890E+02  0.34995650129E+02 -0.25168659063E+02  0.46708740591E+02  0.41800000000E+01 0.  1.
        -11    1    1    2    0    0 -0.16121920787E+02 -0.27303493021E+02 -0.19750239607E+02  0.37355977106E+02  0.00000000000E+00 0.  1.
         11    1    1    2    0    0 -0.55947707092E+02  0.37801401318E+02 -0.20555007453E+03  0.21635601450E+03  0.00000000000E+00 0. -1.
</event>
<event>
 7    1  0.3056346E-009  0.9103109E+02  0.7561462E-02  0.1300374E+00
         -1   -1    0    0    0  501 -0.00000000000E+00  0.00000000000E+00  0.14305638986E+04  0.14305638986E+04  0.00000000000E+00 0.  1.
          1   -1    0    0  501    0  0.00000000000E+00 -0.00000000000E+00 -0.13399636277E+02  0.13399636277E+02  0.00000000000E+00 0. -1.
         25    2    1    2    0    0 -0.63408576010E+02 -0.77812456908E+01  0.10179623286E+04  0.10276068664E+04  0.12508946468E+03 0.  0.
          5    1    3    3  502    0 -0.42446460185E+02  0.15448359580E+02  0.10855851649E+03  0.11765533434E+03  0.41800000000E+01 0. -1.
         -5    1    3    3    0  502 -0.20962115825E+02 -0.23229605271E+02  0.90940381209E+03  0.90995153206E+03  0.41800000000E+01 0. -1.
        -11    1    1    2    0    0  0.35575295684E+02 -0.37683763293E+02  0.29276581861E+03  0.29731715764E+03  0.00000000000E+00 0.  1.
         11    1    1    2    0    0  0.27833280326E+02  0.45465008984E+02  0.10643611512E+03  0.11903951083E+03  0.00000000000E+00 0. -1.
</event>
<event>
 7    1  0.3056346E-009  0.1447159E+03  0.7561462E-02  0.1207121E+00
          1   -1    0    0  501    0  0.00000000000E+00  0.00000000000E+00  0.87529706426E+03  0.87529706426E+03  0.00000000000E+00 0. -1.
         -1   -1    0    0    0  501 -0.00000000000E+00 -0.00000000000E+00 -0.42629931632E+02  0.42629931632E+02  0.00000000000E+00 0.  1.
         25    2    1    2    0    0 -0.86174145726E+02 -0.71264299494E+02  0.70398263707E+03  0.72370074397E+03  0.12508648908E+03 0.  0.
          5    1    3    3  502    0  0.19990341608E+02 -0.82296177702E+01  0.23931572857E+02  0.32519731635E+02  0.41800000000E+01 0. -1.
         -5    1    3    3    0  502 -0.10616448733E+03 -0.63034681724E+02  0.68005106421E+03  0.69118101233E+03  0.41800000000E+01 0. -1.
        -11    1    1    2    0    0  0.10191574365E+03  0.41179651430E+02  0.85305286264E+02  0.13913868751E+03  0.00000000000E+00 0.  1.
         11    1    1    2    0    0 -0.15741597927E+02  0.30084648065E+02  0.43379209297E+02  0.55087564420E+02  0.00000000000E+00 0. -1.
</event>
<event>
 7    1  0.3056346E-009  0.1148362E+03  0.7561462E-02  0.1251867E+00
         -1   -1    0    0    0  501 -0.00000000000E+00  0.00000000000E+00  0.15577742164E+03  0.15577742164E+03  0.00000000000E+00 0.  1.
          1   -1    0    0  501    0  0.00000000000E+00 -0.00000000000E+00 -0.11615096172E+03  0.11615096172E+03  0.00000000000E+00 0. -1.
         25    2    1    2    0    0 -0.68181722339E+02  0.37154023051E+02  0.21435388436E+02  0.14878403392E+03  0.12509214277E+03 0.  0.
          5    1    3    3  502    0 -0.26868151765E+02  0.70083677735E+02 -0.24068106563E+02  0.78932665086E+02  0.41800000000E+01 0.  1.
         -5    1    3    3    0  502 -0.41313570574E+02 -0.32929654685E+02  0.45503494999E+02  0.69851368837E+02  0.41800000000E+01 0.  1.
        -11    1    1    2    0    0  0.74112389873E+01 -0.39984555221E+02  0.41399781690E+02  0.58031310889E+02  0.00000000000E+00 0.  1.
         11    1    1    2    0    0  0.60770483352E+02  0.28305321707E+01 -0.23208710202E+02  0.65113038544E+02  0.00000000000E+00 0. -1.
</event>
<event>
 7    1  0.3461242E-009  0.1802678E+03  0.7561462E-02  0.1167544E+00
          1   -1    0    0  501    0  0.00000000000E+00  0.00000000000E+00  0.13684626051E+04  0.13684626051E+04  0.00000000000E+00 0. -1.
         -1   -1    0    0    0  501 -0.00000000000E+00 -0.00000000000E+00 -0.24207887419E+02  0.24207887419E+02  0.00000000000E+00 0.  1.
         25    2    1    2    0    0  0.69510514904E+02  0.12769347222E+03  0.75433531310E+03  0.77833609807E+03  0.12509189599E+03 0.  0.
          5    1    3    3  502    0  0.97633562896E+02  0.12749913115E+03  0.58615421424E+03  0.60776852199E+03  0.41800000000E+01 0. -1.
         -5    1    3    3    0  502 -0.28123047992E+02  0.19434106190E+00  0.16818109886E+03  0.17056757608E+03  0.41800000000E+01 0. -1.
        -11    1    1    2    0    0 -0.33347693389E+02  0.51861210995E+01  0.11368493748E+03  0.11858848813E+03  0.00000000000E+00 0.  1.
         11    1    1    2    0    0 -0.36162821515E+02 -0.13287959332E+03  0.47623446711E+03  0.49574590633E+03  0.00000000000E+00 0. -1.
</event>
<event>
 7    1  0.3056346E-009  0.1267242E+03  0.7561462E-02  0.1232399E+00
         -1   -1    0    0    0  501 -0.00000000000E+00  0.00000000000E+00  0.56266428856E+02  0.56266428856E+02  0.00000000000E+00 0.  1.
          1   -1    0    0  501    0  0.00000000000E+00 -0.00000000000E+00 -0.39629570977E+03  0.39629570977E+03  0.00000000000E+00 0. -1.
         25    2    1    2    0    0 -0.95407098042E+02  0.63470111436E+01 -0.23943519419E+03  0.28656461173E+03  0.12508903058E+03 0.  0.
          5    1    3    3  502    0 -0.87981798806E+02 -0.39910555465E+02 -0.20968774270E+03  0.23091139253E+03  0.41800000000E+01 0. -1.
         -5    1    3    3    0  502 -0.74252992362E+01  0.46257566609E+02 -0.29747451484E+02  0.55653219198E+02  0.41800000000E+01 0. -1.
        -11    1    1    2    0    0  0.50759939337E+02 -0.30227961811E+02 -0.68775088262E+01  0.59477737385E+02  0.00000000000E+00 0.  1.
         11    1    1    2    0    0  0.44647158705E+02  0.23880950667E+02 -0.93716577904E+02  0.10651978952E+03  0.00000000000E+00 0. -1.
</event>
<event>
 7    1  0.3056346E-009  0.1143283E+03  0.7561462E-02  0.1252758E+00
         -2   -1    0    0    0  501 -0.00000000000E+00  0.00000000000E+00  0.78866282280E+01  0.78866282280E+01  0.00000000000E+00 0. -1.
          2   -1    0    0  501    0  0.00000000000E+00 -0.00000000000E+00 -0.23560984531E+04  0.23560984531E+04  0.00000000000E+00 0.  1.
         25    2    1    2    0    0  0.46301973502E+01  0.49626840984E+02 -0.18774385476E+04  0.18822610874E+04  0.12508812547E+03 0.  0.
          5    1    3    3  502    0 -0.20853011013E+02  0.83806373391E+02 -0.14792763978E+04  0.14818010966E+04  0.41800000000E+01 0.  1.
         -5    1    3    3    0  502  0.25483208363E+02 -0.34179532407E+02 -0.39816214971E+03  0.40045999077E+03  0.41800000000E+01 0.  1.
        -11    1    1    2    0    0  0.39248111606E+02 -0.36394410132E+02 -0.30824205602E+03  0.31285481050E+03  0.00000000000E+00 0.  1.
         11    1    1    2    0    0 -0.43878308956E+02 -0.13232430852E+02 -0.16253122128E+03  0.16886918344E+03  0.00000000000E+00 0. -1.
</event>
<event>
 7    1  0.3056346E-009  0.1024227E+03  0.7561462E-02  0.1275282E+00
         -1   -1    0    0    0  501 -0.00000000000E+00  0.00000000000E+00  0.34583183734E+02  0.34583183734E+02  0.00000000000E+00 0.  1.
          1   -1    0    0  501    0  0.00000000000E+00 -0.00000000000E+00 -0.57329557141E+03  0.57329557141E+03  0.00000000000E+00 0. -1.
         25    2    1    2    0    0  0.66655694785E+02 -0.32884356452E+02 -0.40434800639E+03  0.42973146177E+03  0.12508979341E+03 0.  0.
          5    1    3    3  502    0  0.47851611182E-01 -0.24090719885E+02 -0.52651937988E+01  0.25011192297E+02  0.41800000000E+01 0. -1.
         -5    1    3    3    0  502  0.66607843174E+02 -0.87936365669E+01 -0.39908281259E+03  0.40472026947E+03  0.41800000000E+01 0. -1.
        -11    1    1    2    0    0 -0.16462736843E+02  0.55599366716E+02 -0.91572169335E+02  0.10838714629E+03  0.00000000000E+00 0. -1.
         11    1    1    2    0    0 -0.50192957943E+02 -0.22715010264E+02 -0.42792211959E+02  0.69760147094E+02  0.00000000000E+00 0.  1.
</event>
<event>
 7    1  0.3056346E-009  0.9500987E+02  0.7561462E-02  0.1291154E+00
          2   -1    0    0  501    0  0.00000000000E+00  0.00000000000E+00  0.21585547967E+03  0.21585547967E+03  0.00000000000E+00 0. -1.
         -2   -1    0    0    0  501 -0.00000000000E+00 -0.00000000000E+00 -0.65303887398E+02  0.65303887398E+02  0.00000000000E+00 0.  1.
         25    2    1    2    0    0 -0.98393996311E+01 -0.46175064116E+02  0.83110349804E+02  0.15742854543E+03  0.12508983308E+03 0.  0.
          5    1    3    3  502    0  0.35783493301E+02 -0.18493360268E+01 -0.16099420917E+02  0.39503698440E+02  0.41800000000E+01 0. -1.
         -5    1    3    3    0  502 -0.45622892932E+02 -0.44325728089E+02  0.99209770722E+02  0.11792484699E+03  0.41800000000E+01 0. -1.
        -11    1    1    2    0    0  0.43396251057E+02  0.20776463674E+02  0.49194492759E+01  0.48364212284E+02  0.00000000000E+00 0.  1.
         11    1    1    2    0    0 -0.33556851426E+02  0.25398600442E+02  0.62521793188E+02  0.75366609354E+02  0.00000000000E+00 0. -1.
</event>
<event>
 7    1  0.3056346E-009  0.1292745E+03  0.7561462E-02  0.1228536E+00
          1   -1    0    0  501    0  0.00000000000E+00  0.00000000000E+00  0.21687593697E+03  0.21687593697E+03  0.00000000000E+00 0. -1.
         -1   -1    0    0    0  501 -0.00000000000E+00 -0.00000000000E+00 -0.12059284019E+03  0.12059284019E+03  0.00000000000E+00 0.  1.
         25    2    1    2    0    0 -0.10568697853E+03 -0.93926521496E+01 -0.77827907030E+01  0.16421574235E+03  0.12509308079E+03 0.  0.
          5    1    3    3  502    0 -0.78075777174E+02  0.18776791223E+02 -0.58783333700E+02  0.99605961623E+02  0.41800000000E+01 0.  1.
         -5    1    3    3    0  502 -0.27611201351E+02 -0.28169443373E+02  0.51000542997E+02  0.64609780730E+02  0.41800000000E+01 0.  1.
        -11    1    1    2    0    0  0.86489620674E+02  0.45389719283E+02  0.75388609784E+02  0.12338607533E+03  0.00000000000E+00 0.  1.
         11    1    1    2    0    0  0.19197357851E+02 -0.35997067133E+02  0.28677277697E+02  0.49866959470E+02  0.00000000000E+00 0. -1.
</event>
<event>
 7    1  0.3056346E-009  0.1061467E+03  0.7561462E-02  0.1267877E+00
         -2   -1    0    0    0  501 -0.00000000000E+00  0.00000000000E+00  0.32805578380E+02  0.32805578380E+02  0.00000000000E+00 0.  1.
          2   -1    0    0  501    0  0.00000000000E+00 -0.00000000000E+00 -0.52989973009E+03  0.52989973009E+03  0.00000000000E+00 0. -1.
         25    2    1    2    0    0 -0.50456231193E+02 -0.22078590564E+02 -0.37882384797E+03  0.40272615452E+03  0.12509017675E+03 0.  0.
          5    1    3    3  502    0  0.20198080630E+02 -0.54655691653E+02 -0.14831684580E+03  0.15940692030E+03  0.41800000000E+01 0.  1.
         -5    1    3    3    0  502 -0.70654311823E+02  0.32577101088E+02 -0.23050700217E+03  0.24331923423E+03  0.41800000000E+01 0.  1.
        -11    1    1    2    0    0 -0.10938300874E+02  0.74137411018E+00  0.10848696411E+02  0.15423692016E+02  0.00000000000E+00 0.  1.
         11    1    1    2    0    0  0.61394532067E+02  0.21337216454E+02 -0.12911900015E+03  0.14455546193E+03  0.00000000000E+00 0. -1.
</event>
<event>
 7    1  0.3056346E-009  0.1142682E+03  0.7561462E-02  0.1252864E+00
         -2   -1    0    0    0  501 -0.00000000000E+00  0.00000000000E+00  0.30302235712E+02  0.30302235712E+02  0.00000000000E+00 0.  1.
          2   -1    0    0  501    0  0.00000000000E+00 -0.00000000000E+00 -0.50199308221E+03  0.50199308221E+03  0.00000000000E+00 0. -1.
         25    2    1    2    0    0 -0.36553980929E+02 -0.49068424823E+02 -0.27951933138E+03  0.31228729293E+03  0.12509353652E+03 0.  0.
          5    1    3    3  502    0  0.11944562036E+02 -0.76166348736E+02 -0.11435879685E+03  0.13798330355E+03  0.41800000000E+01 0.  1.
         -5    1    3    3    0  502 -0.48498542965E+02  0.27097923913E+02 -0.16516053453E+03  0.17430398938E+03  0.41800000000E+01 0.  1.
        -11    1    1    2    0    0  0.50573443172E+02  0.67360247309E+01 -0.51731025955E+02  0.72657733448E+02  0.00000000000E+00 0.  1.
         11    1    1    2    0    0 -0.14019462243E+02  0.42332400092E+02 -0.14044048917E+03  0.14735029154E+03  0.00000000000E+00 0. -1.
</event>
<event>
 7    1  0.3056346E-009  0.8779916E+02  0.7561462E-02  0.1308271E+00
          3   -1    0    0  501    0  0.00000000000E+00  0.00000000000E+00  0.74282865955E+03  0.74282865955E+03  0.00000000000E+00 0. -1.
         -3   -1    0    0    0  501 -0.00000000000E+00 -0.00000000000E+00 -0.30208130603E+02  0.30208130603E+02  0.00000000000E+00 0.  1.
         25    2    1    2    0    0  0.93202246081E+01  0.70728402458E+02  0.57952085449E+03  0.59714389177E+03  0.12508810172E+03 0.  0.
          5    1    3    3  502    0  0.14660026561E+02  0.60830949307E+02  0.10381121770E+03  0.12128298353E+03  0.41800000000E+01 0. -1.
         -5    1    3    3    0  502 -0.53398019529E+01  0.98974531502E+01  0.47570963679E+03  0.47586090825E+03  0.41800000000E+01 0. -1.
        -11    1    1    2    0    0 -0.35048680382E+01 -0.85210491686E+02  0.68359672897E+02  0.10929847607E+03  0.00000000000E+00 0.  1.
         11    1    1    2    0    0 -0.58153565699E+01  0.14482089228E+02  0.64740001563E+02  0.66594422310E+02  0.00000000000E+00 0. -1.
</event>
<event>
 7    1  0.3056346E-009  0.8082413E+02  0.7561462E-02  0.1326729E+00
          2   -1    0    0  501    0  0.00000000000E+00  0.00000000000E+00  0.15796200954E+03  0.15796200954E+03  0.00000000000E+00 0. -1.
         -2   -1    0    0    0  501 -0.00000000000E+00 -0.00000000000E+00 -0.10492934271E+03  0.10492934271E+03  0.00000000000E+00 0.  1.
         25    2    1    2    0    0 -0.50376795324E+02  0.26152402866E+02  0.10864795738E+01  0.13736686949E+03  0.12508679671E+03 0.  0.
          5    1    3    3  502    0 -0.24859626670E+02  0.46305379939E+02 -0.52592335514E+02  0.74468888834E+02  0.41800000000E+01 0.  1.
         -5    1    3    3    0  502 -0.25517168655E+02 -0.20152977073E+02  0.53678815087E+02  0.62897980653E+02  0.41800000000E+01 0.  1.
        -11    1    1    2    0    0  0.18722107607E+02 -0.37985247374E+02  0.73936492631E+02  0.85205641092E+02  0.00000000000E+00 0. -1.
         11    1    1    2    0    0  0.31654687717E+02  0.11832844508E+02 -0.21990305370E+02  0.40318841673E+02  0.00000000000E+00 0.  1.
</event>
<event>
 7    1  0.3056346E-009  0.1417490E+03  0.7561462E-02  0.1210995E+00
          1   -1    0    0  501    0  0.00000000000E+00  0.00000000000E+00  0.74761930016E+02  0.74761930016E+02  0.00000000000E+00 0. -1.
         -1   -1    0    0    0  501 -0.00000000000E+00 -0.00000000000E+00 -0.47307539885E+03  0.47307539885E+03  0.00000000000E+00 0.  1.
         25    2    1    2    0    0  0.11659742348E+03 -0.48844603463E+02 -0.34390694230E+03  0.38717029044E+03  0.12509234345E+03 0.  0.
          5    1    3    3  502    0  0.24228391080E+02 -0.29225224441E+02 -0.90785884989E+01  0.39255851120E+02  0.41800000000E+01 0.  1.
         -5    1    3    3    0  502  0.92369032399E+02 -0.19619379021E+02 -0.33482835380E+03  0.34791443932E+03  0.41800000000E+01 0.  1.
        -11    1    1    2    0    0 -0.33589342680E+02 -0.23240076564E+02 -0.96690673084E+01  0.41974229749E+02  0.00000000000E+00 0.  1.
         11    1    1    2    0    0 -0.83008080800E+02  0.72084680027E+02 -0.44737459221E+02  0.11869280867E+03  0.00000000000E+00 0. -1.
</event>
<event>
 7    1  0.3056346E-009  0.1187613E+03  0.7561462E-02  0.1245155E+00
          2   -1    0    0  501    0  0.00000000000E+00  0.00000000000E+00  0.46066560922E+02  0.46066560922E+02  0.00000000000E+00 0. -1.
         -2   -1    0    0    0  501 -0.00000000000E+00 -0.00000000000E+00 -0.31538475396E+03  0.31538475396E+03  0.00000000000E+00 0.  1.
         25    2    1    2    0    0  0.18114573152E+02 -0.48047740917E+02 -0.17213290608E+03  0.21889759407E+03  0.12509874567E+03 0.  0.
          5    1    3    3  502    0 -0.11590118269E+02  0.40181231280E+02 -0.54768841122E+02  0.69035936631E+02  0.41800000000E+01 0.  1.
         -5    1    3    3    0  502  0.29704691420E+02 -0.88228972197E+02 -0.11736406496E+03  0.14986165744E+03  0.41800000000E+01 0.  1.
        -11    1    1    2    0    0 -0.50100702377E+02  0.74975105748E+01 -0.34300928552E+02  0.61178809592E+02  0.00000000000E+00 0. -1.
         11    1    1    2    0    0  0.31986129226E+02  0.40550230342E+02 -0.62884358398E+02  0.81374911212E+02  0.00000000000E+00 0.  1.
</event>
<event>
 7    1  0.3056346E-009  0.1077205E+03  0.7561462E-02  0.1264850E+00
          2   -1    0    0  501    0  0.00000000000E+00  0.00000000000E+00  0.24793769809E+03  0.24793769809E+03  0.00000000000E+00 0. -1.
         -2   -1    0    0    0  501 -0.00000000000E+00 -0.00000000000E+00 -0.51372620533E+02  0.51372620533E+02  0.00000000000E+00 0.  1.
         25    2    1    2    0    0  0.47066983191E+01 -0.19803571033E+02  0.79045038361E+02  0.14936428499E+03  0.12508891680E+03 0.  0.
          5    1    3    3  502    0 -0.58316481955E+02  0.31224188923E+01  0.46147932031E+02  0.74549752502E+02  0.41800000000E+01 0. -1.
         -5    1    3    3    0  502  0.63023180274E+02 -0.22925989925E+02  0.32897106329E+02  0.74814532483E+02  0.41800000000E+01 0. -1.
        -11    1    1    2    0    0 -0.29249740310E+02 -0.25088041589E+02  0.71060875976E+02  0.80836905145E+02  0.00000000000E+00 0. -1.
         11    1    1    2    0    0  0.24543041991E+02  0.44891612622E+02  0.46459163224E+02  0.69109128496E+02  0.00000000000E+00 0.  1.
</event>
<event>
 7    1  0.3056346E-009  0.7795928E+02  0.7561462E-02  0.1334944E+00
         -1   -1    0    0    0  501 -0.00000000000E+00  0.00000000000E+00  0.14311539416E+03  0.14311539416E+03  0.00000000000E+00 0.  1.
          1   -1    0    0  501    0  0.00000000000E+00 -0.00000000000E+00 -0.11714493689E+03  0.11714493689E+03  0.00000000000E+00 0. -1.
         25    2    1    2    0    0  0.22320207982E+02 -0.33697557802E+02 -0.43472146527E+02  0.13846141049E+03  0.12509203646E+03 0.  0.
          5    1    3    3  502    0 -0.31164514987E+02 -0.12780582300E+02 -0.67901545325E+02  0.75912202813E+02  0.41800000000E+01 0. -1.
         -5    1    3    3    0  502  0.53484722969E+02 -0.20916975502E+02  0.24429398798E+02  0.62549207675E+02  0.41800000000E+01 0. -1.
        -11    1    1    2    0    0  0.64211656439E+01  0.35039321101E+02 -0.10252546188E+02  0.37068856130E+02  0.00000000000E+00 0. -1.
         11    1    1    2    0    0 -0.28741373626E+02 -0.13417632993E+01  0.79695149989E+02  0.84730064431E+02  0.00000000000E+00 0.  1.
</event>
<event>
 7    1  0.3787747E-009  0.1201002E+03  0.7561462E-02  0.1242932E+00
          2   -1    0    0  501    0  0.00000000000E+00  0.00000000000E+00  0.25374367618E+03  0.25374367618E+03  0.00000000000E+00 0. -1.
         -2   -1    0    0    0  501 -0.00000000000E+00 -0.00000000000E+00 -0.11375400915E+03  0.11375400915E+03  0.00000000000E+00 0.  1.
         25    2    1    2    0    0  0.10797056797E+03 -0.28373200338E+02  0.12812408803E+01  0.16766345108E+03  0.12508680668E+03 0.  0.
          5    1    3    3  502    0  0.92274583314E+00 -0.15733387042E+02  0.47564093514E+02  0.50281272055E+02  0.41800000000E+01 0.  1.
         -5    1    3    3    0  502  0.10704782214E+03 -0.12639813296E+02 -0.46282852634E+02  0.11738217903E+03  0.41800000000E+01 0.  1.
        -11    1    1    2    0    0 -0.76695263830E+02  0.34591332493E+02  0.14470621572E+03  0.16738761198E+03  0.00000000000E+00 0. -1.
         11    1    1    2    0    0 -0.31275304142E+02 -0.62181321549E+01 -0.59977895714E+01  0.32446622265E+02  0.00000000000E+00 0.  1.
</event>
<event>
 7    1  0.3056346E-009  0.1099125E+03  0.7561462E-02  0.1260732E+00
          4   -1    0    0  501    0  0.00000000000E+00  0.00000000000E+00  0.10018254013E+03  0.10018254013E+03  0.00000000000E+00 0. -1.
         -4   -1    0    0    0  501 -0.00000000000E+00 -0.00000000000E+00 -0.16707725352E+03  0.16707725352E+03  0.00000000000E+00 0.  1.
         25    2    1    2    0    0 -0.37039131070E+02 -0.47387986406E+02 -0.76222611419E+02  0.15835420718E+03  0.12509456405E+03 0.  0.
          5    1    3    3  502    0  0.36570094834E+02 -0.40194979824E+02 -0.62657048351E+02  0.83044484148E+02  0.41800000000E+01 0.  1.
         -5    1    3    3    0  502 -0.73609225905E+02 -0.71930065823E+01 -0.13565563068E+02  0.75309723033E+02  0.41800000000E+01 0.  1.
        -11    1    1    2    0    0  0.22062386787E+02  0.64697463749E+02  0.33062733486E+02  0.75931910761E+02  0.00000000000E+00 0. -1.
         11    1    1    2    0    0  0.14976744283E+02 -0.17309477342E+02 -0.23734835458E+02  0.32973675704E+02  0.00000000000E+00 0.  1.
</event>
<event>
 7    1  0.3056346E-009  0.1462910E+03  0.7561462E-02  0.1205106E+00
         -1   -1    0    0    0  501 -0.00000000000E+00  0.00000000000E+00  0.46903981262E+02  0.46903981262E+02  0.00000000000E+00 0.  1.
          1   -1    0    0  501    0  0.00000000000E+00 -0.00000000000E+00 -0.68641447129E+03  0.68641447129E+03  0.00000000000E+00 0. -1.
         25    2    1    2    0    0 -0.13164500100E+03  0.50712340348E+02 -0.36596891214E+03  0.41167987615E+03  0.12507968669E+03 0.  0.
          5    1    3    3  502    0 -0.60981410224E+02  0.25018467816E+02 -0.31229728869E+03  0.31920483243E+03  0.41800000000E+01 0.  1.
         -5    1    3    3    0  502 -0.70663590778E+02  0.25693872532E+02 -0.53671623449E+02  0.92475043719E+02  0.41800000000E+01 0.  1.
        -11    1    1    2    0    0  0.99102524825E+02 -0.61867323944E+02 -0.25930456544E+03  0.28440768952E+03  0.00000000000E+00 0.  1.
         11    1    1    2    0    0  0.32542476177E+02  0.11154983596E+02 -0.14237012453E+02  0.37230886887E+02  0.00000000000E+00 0. -1.
</event>
<event>
 7    1  0.3056346E-009  0.8901820E+02  0.7561462E-02  0.1305247E+00
         -2   -1    0    0    0  501 -0.00000000000E+00  0.00000000000E+00  0.15114868540E+03  0.15114868540E+03  0.00000000000E+00 0.  1.
          2   -1    0    0  501    0  0.00000000000E+00 -0.00000000000E+00 -0.86428347739E+02  0.86428347739E+02  0.00000000000E+00 0. -1.
         25    2    1    2    0    0 -0.12707610881E+02  0.39507863729E+02  0.54479716839E+02  0.14261147176E+03  0.12509051786E+03 0.  0.
          5    1    3    3  502    0  0.97299738308E+01  0.63848417292E+02 -0.14195550919E+02  0.66259179344E+02  0.41800000000E+01 0.  1.
         -5    1    3    3    0  502 -0.22437584712E+02 -0.24340553563E+02  0.68675267758E+02  0.76352292415E+02  0.41800000000E+01 0.  1.
        -11    1    1    2    0    0  0.11837863405E+02  0.18484110029E+02  0.26807490027E+02  0.34647349900E+02  0.00000000000E+00 0.  1.
         11    1    1    2    0    0  0.86974747628E+00 -0.57991973758E+02 -0.16566869204E+02  0.60318211480E+02  0.00000000000E+00 0. -1.
</event>
<event>
 7    1  0.3056346E-009  0.1612471E+03  0.7561462E-02  0.1187296E+00
         -2   -1    0    0    0  501 -0.00000000000E+00  0.00000000000E+00  0.20836975456E+03  0.20836975456E+03  0.00000000000E+00 0. -1.
          2   -1    0    0  501    0  0.00000000000E+00 -0.00000000000E+00 -0.17497383893E+03  0.17497383893E+03  0.00000000000E+00 0.  1.
         25    2    1    2    0    0 -0.10771791570E+03 -0.97917508954E+02 -0.40978567799E+02  0.19625772548E+03  0.12508742490E+03 0.  0.
          5    1    3    3  502    0 -0.10902099116E+03 -0.40430470091E+02 -0.65596075949E+02  0.13356839823E+03  0.41800000000E+01 0. -1.
         -5    1    3    3    0  502  0.13030754646E+01 -0.57487038863E+02  0.24617508150E+02  0.62689327244E+02  0.41800000000E+01 0. -1.
        -11    1    1    2    0    0  0.30691301789E+02  0.47073738173E+02  0.76313426118E+02  0.94771471641E+02  0.00000000000E+00 0. -1.
         11    1    1    2    0    0  0.77026613910E+02  0.50843770781E+02 -0.19389426885E+01  0.92314396366E+02  0.00000000000E+00 0.  1.
</event>
<event>
 7    1  0.3056346E-009  0.1041581E+03  0.7561462E-02  0.1271787E+00
          2   -1    0    0  501    0  0.00000000000E+00  0.00000000000E+00  0.24783404480E+03  0.24783404480E+03  0.00000000000E+00 0. -1.
         -2   -1    0    0    0  501 -0.00000000000E+00 -0.00000000000E+00 -0.75225638100E+02  0.75225638100E+02  0.00000000000E+00 0.  1.
         25    2    1    2    0    0  0.13343832632E+02  0.79826026253E+02  0.80024455854E+02  0.16909819225E+03  0.12506011654E+03 0.  0.
          5    1    3    3  502    0  0.11240764311E+02  0.93763109389E+02  0.71957838142E+01  0.94800459753E+02  0.41800000000E+01 0.  1.
         -5    1    3    3    0  502  0.21030683215E+01 -0.13937083136E+02  0.72828672040E+02  0.74297732494E+02  0.41800000000E+01 0.  1.
        -11    1    1    2    0    0  0.15934014881E+02 -0.21517886727E+01  0.64279005286E+02  0.66259441178E+02  0.00000000000E+00 0. -1.
         11    1    1    2    0    0 -0.29277847514E+02 -0.77674237580E+02  0.28304945558E+02  0.87702049473E+02  0.00000000000E+00 0.  1.
</event>
<event>
 7    1  0.3056346E-009  0.1082088E+03  0.7561462E-02  0.1263923E+00
         -2   -1    0    0    0  501 -0.00000000000E+00  0.00000000000E+00  0.24321842858E+02  0.24321842858E+02  0.00000000000E+00 0.  1.
          2   -1    0    0  501    0  0.00000000000E+00 -0.00000000000E+00 -0.63850029955E+03  0.63850029955E+03  0.00000000000E+00 0. -1.
         25    2    1    2    0    0  0.54753235499E+02 -0.18271650496E+02 -0.39128335323E+03  0.41482678361E+03  0.12508728104E+03 0.  0.
          5    1    3    3  502    0 -0.28919404172E+02  0.18387926853E+02 -0.19818222798E+03  0.20116688514E+03  0.41800000000E+01 0.  1.
         -5    1    3    3    0  502  0.83672639670E+02 -0.36659577349E+02 -0.19310112525E+03  0.21365989847E+03  0.41800000000E+01 0.  1.
        -11    1    1    2    0    0 -0.62608383925E+02 -0.79154640166E+01 -0.76979202151E+02  0.99540252522E+02  0.00000000000E+00 0.  1.
         11    1    1    2    0    0  0.78551484265E+01  0.26187114512E+02 -0.14591590132E+03  0.14845510628E+03  0.00000000000E+00 0. -1.
</event>
<event>
 7    1  0.3056346E-009  0.1327636E+03  0.7561462E-02  0.1223412E+00
          3   -1    0    0  501    0  0.00000000000E+00  0.00000000000E+00  0.14003444598E+03  0.14003444598E+03  0.00000000000E+00 0. -1.
         -3   -1    0    0    0  501 -0.00000000000E+00 -0.00000000000E+00 -0.15666630525E+03  0.15666630525E+03  0.00000000000E+00 0.  1.
         25    2    1    2    0    0 -0.92525230092E+02 -0.97414002579E+01 -0.46647560710E+02  0.16271219608E+03  0.12507378123E+03 0.  0.
          5    1    3    3  502    0 -0.33755766166E+02 -0.62651453652E+02 -0.97282098409E+00  0.71295688333E+02  0.41800000000E+01 0.  1.
         -5    1    3    3    0  502 -0.58769463926E+02  0.52910053395E+02 -0.45674739726E+02  0.91416507751E+02  0.41800000000E+01 0.  1.
        -11    1    1    2    0    0  0.62723252618E+02  0.38531216982E+02 -0.12447426374E+02  0.74657883204E+02  0.00000000000E+00 0.  1.
         11    1    1    2    0    0  0.29801977473E+02 -0.28789816724E+02  0.42463127816E+02  0.59330671935E+02  0.00000000000E+00 0. -1.
</event>
<event>
 7    1  0.3056346E-009  0.1747865E+03  0.7561462E-02  0.1172946E+00
          2   -1    0    0  501    0  0.00000000000E+00  0.00000000000E+00  0.14813304913E+03  0.14813304913E+03  0.00000000000E+00 0.  1.
         -2   -1    0    0    0  501 -0.00000000000E+00 -0.00000000000E+00 -0.23903279561E+03  0.23903279561E+03  0.00000000000E+00 0. -1.
         25    2    1    2    0    0  0.72040499719E+02 -0.13549430196E+03 -0.46355726120E+02  0.20333677618E+03  0.12509377179E+03 0.  0.
          5    1    3    3  502    0  0.48495873621E+02 -0.29363530977E+01  0.20574702483E+02  0.52926956365E+02  0.41800000000E+01 0.  1.
         -5    1    3    3    0  502  0.23544626098E+02 -0.13255794886E+03 -0.66930428603E+02  0.15040981982E+03  0.41800000000E+01 0.  1.
        -11    1    1    2    0    0 -0.34921289840E+02  0.11633658695E+02 -0.40124990568E+02  0.54450467094E+02  0.00000000000E+00 0.  1.
         11    1    1    2    0    0 -0.37119209879E+02  0.12386064327E+03 -0.44190297872E+01  0.12937860146E+03  0.00000000000E+00 0. -1.
</event>
<event>
 7    1  0.3056346E-009  0.3028967E+03  0.7561462E-02  0.1083801E+00
         -2   -1    0    0    0  501 -0.00000000000E+00  0.00000000000E+00  0.53286449312E+02  0.53286449312E+02  0.00000000000E+00 0.  1.
          2   -1    0    0  501    0  0.00000000000E+00 -0.00000000000E+00 -0.19623829174E+04  0.19623829174E+04  0.00000000000E+00 0. -1.
         25    2    1    2    0    0  0.29346889724E+03 -0.70551534429E+02 -0.10998252012E+04  0.11473287635E+04  0.12508519295E+03 0.  0.
          5    1    3    3  502    0  0.67136470469E+02 -0.10124477203E+02 -0.10369987573E+03  0.12401994731E+03  0.41800000000E+01 0.  1.
         -5    1    3    3    0  502  0.22633242677E+03 -0.60427057226E+02 -0.99612532551E+03  0.10233088161E+04  0.41800000000E+01 0.  1.
        -11    1    1    2    0    0 -0.15026136890E+03  0.19913197651E+02 -0.28884149352E+03  0.32619690803E+03  0.00000000000E+00 0.  1.
         11    1    1    2    0    0 -0.14320752834E+03  0.50638336778E+02 -0.52042977332E+03  0.54214369523E+03  0.00000000000E+00 0. -1.
</event>
<event>
 7    1  0.3056346E-009  0.1218378E+03  0.7561462E-02  0.1240096E+00
         -1   -1    0    0    0  501 -0.00000000000E+00  0.00000000000E+00  0.14979313501E+03  0.14979313501E+03  0.00000000000E+00 0.  1.
          1   -1    0    0  501    0  0.00000000000E+00 -0.00000000000E+00 -0.11559710910E+03  0.11559710910E+03  0.00000000000E+00 0. -1.
         25    2    1    2    0    0  0.65399480987E+02  0.17766426640E+02 -0.67072968694E+01  0.14242468228E+03  0.12508822591E+03 0.  0.
          5    1    3    3  502    0  0.40885526175E+02 -0.44593095237E+02  0.28060604001E+02  0.66820956969E+02  0.41800000000E+01 0.  1.
         -5    1    3    3    0  502  0.24513954813E+02  0.62359521877E+02 -0.34767900871E+02  0.75603725306E+02  0.41800000000E+01 0.  1.
        -11    1    1    2    0    0 -0.12974479622E+02 -0.51795689996E+02  0.20917228218E+02  0.57346848736E+02  0.00000000000E+00 0.  1.
         11    1    1    2    0    0 -0.52425001366E+02  0.34029263356E+02  0.19986094557E+02  0.65618713096E+02  0.00000000000E+00 0. -1.
</event>
<event>
 7    1  0.4193342E-009  0.1686722E+03  0.7561462E-02  0.1179240E+00
         -1   -1    0    0    0  501 -0.00000000000E+00  0.00000000000E+00  0.12561920242E+03  0.12561920242E+03  0.00000000000E+00 0.  1.
          1   -1    0    0  501    0  0.00000000000E+00 -0.00000000000E+00 -0.29883909242E+03  0.29883909242E+03  0.00000000000E+00 0. -1.
         25    2    1    2    0    0  0.11003770204E+03 -0.83304132059E+02 -0.18077351086E+01  0.18627628690E+03  0.12509081847E+03 0.  0.
          5    1    3    3  502    0  0.48001734037E+02  0.27314128232E+02  0.17131476287E+02  0.57975753133E+02  0.41800000000E+01 0. -1.
         -5    1    3    3    0  502  0.62035968006E+02 -0.11061826029E+03 -0.18939211396E+02  0.12830053377E+03  0.41800000000E+01 0. -1.
        -11    1    1    2    0    0 -0.70907731830E+02  0.90815017598E+02 -0.85488888725E+02  0.14346994093E+03  0.00000000000E+00 0.  1.
         11    1    1    2    0    0 -0.39129970213E+02 -0.75108855389E+01 -0.85923266161E+02  0.94712067015E+02  0.00000000000E+00 0. -1.
</event>
<event>
 7    1  0.3056346E-009  0.1655899E+03  0.7561462E-02  0.1182527E+00
          2   -1    0    0  501    0  0.00000000000E+00  0.00000000000E+00  0.11897880274E+04  0.11897880274E+04  0.00000000000E+00 0.  1.
         -2   -1    0    0    0  501 -0.00000000000E+00 -0.00000000000E+00 -0.29552361496E+02  0.29552361496E+02  0.00000000000E+00 0. -1.
         25    2    1    2    0    0  0.17480678484E+02  0.12675487006E+03  0.87917257307E+03  0.89719747926E+03  0.12508609974E+03 0.  0.
          5    1    3    3  502    0  0.18619304721E+02 -0.22369296973E+02  0.16667255708E+03  0.16924620421E+03  0.41800000000E+01 0.  1.
         -5    1    3    3    0  502 -0.11386262375E+01  0.14912416704E+03  0.71250001599E+03  0.72795127505E+03  0.41800000000E+01 0.  1.
        -11    1    1    2    0    0  0.20270385969E+02 -0.10900541876E+03  0.23593201505E+03  0.26068560680E+03  0.00000000000E+00 0.  1.
         11    1    1    2    0    0 -0.37751064453E+02 -0.17749451300E+02  0.45131077744E+02  0.61457302798E+02  0.00000000000E+00 0. -1.
</event>
<event>
 7    1  0.3056346E-009  0.2111835E+03  0.7561462E-02  0.1140632E+00
          2   -1    0    0  501    0  0.00000000000E+00  0.00000000000E+00  0.10807671313E+03  0.10807671313E+03  0.00000000000E+00 0. -1.
         -2   -1    0    0    0  501 -0.00000000000E+00 -0.00000000000E+00 -0.62087379417E+03  0.62087379417E+03  0.00000000000E+00 0.  1.
         25    2    1    2    0    0  0.18784985806E+03  0.38060231272E+00 -0.46383347841E+03  0.51582640290E+03  0.12509063995E+03 0.  0.
          5    1    3    3  502    0  0.45106996841E+02  0.53032210446E+02 -0.19212519768E+03  0.20439329855E+03  0.41800000000E+01 0.  1.
         -5    1    3    3    0  502  0.14274286122E+03 -0.52651608133E+02 -0.27170828074E+03  0.31143310435E+03  0.41800000000E+01 0.  1.
        -11    1    1    2    0    0 -0.12361479551E+03  0.33118343672E+02 -0.43596148336E+01  0.12804861810E+03  0.00000000000E+00 0. -1.
         11    1    1    2    0    0 -0.64235062550E+02 -0.33498945984E+02 -0.44603987790E+02  0.85075486302E+02  0.00000000000E+00 0.  1.
</event>
<event>
 7    1  0.3056346E-009  0.1277926E+03  0.7561462E-02  0.1230768E+00
          2   -1    0    0  501    0  0.00000000000E+00  0.00000000000E+00  0.49481076887E+03  0.49481076887E+03  0.00000000000E+00 0. -1.
         -2   -1    0    0    0  501 -0.00000000000E+00 -0.00000000000E+00 -0.34626198822E+02  0.34626198822E+02  0.00000000000E+00 0.  1.
         25    2    1    2    0    0 -0.72472110933E+02 -0.10190393116E+02  0.27833389018E+03  0.31380312199E+03  0.12508634608E+03 0.  0.
          5    1    3    3  502    0 -0.34278912880E+02 -0.64515802402E+02  0.18694966814E+03  0.20076101077E+03  0.41800000000E+01 0. -1.
         -5    1    3    3    0  502 -0.38193198053E+02  0.54325409286E+02  0.91384222031E+02  0.11304211121E+03  0.41800000000E+01 0. -1.
        -11    1    1    2    0    0  0.34011587142E+02  0.50028949161E+02  0.93474263639E+02  0.11134236290E+03  0.00000000000E+00 0.  1.
         11    1    1    2    0    0  0.38460523791E+02 -0.39838556045E+02  0.88376416230E+02  0.10429148280E+03  0.00000000000E+00 0. -1.
</event>
<event>
 7    1  0.3056346E-009  0.1418122E+03  0.7561462E-02  0.1210911E+00
         -4   -1    0    0    0  501 -0.00000000000E+00  0.00000000000E+00  0.21946678272E+03  0.21946678272E+03  0.00000000000E+00 0. -1.
          4   -1    0    0  501    0  0.00000000000E+00 -0.00000000000E+00 -0.11075050445E+03  0.11075050445E+03  0.00000000000E+00 0.  1.
         25    2    1    2    0    0  0.80533226579E+02 -0.75016972552E+02  0.33578049395E+02  0.16996500452E+03  0.12508985014E+03 0.  0.
          5    1    3    3  502    0  0.25135154831E+02  0.35005236022E+02  0.10823234155E+02  0.44629108830E+02  0.41800000000E+01 0.  1.
         -5    1    3    3    0  502  0.55398071748E+02 -0.11002220857E+03  0.22754815240E+02  0.12533589569E+03  0.41800000000E+01 0.  1.
        -11    1    1    2    0    0 -0.66501791016E+02  0.36020442042E+02  0.13741690268E+01  0.75642903129E+02  0.00000000000E+00 0.  1.
         11    1    1    2    0    0 -0.14031435563E+02  0.38996530509E+02  0.73764059847E+02  0.84609379509E+02  0.00000000000E+00 0. -1.
</event>
<event>
 7    1  0.3056346E-009  0.1119228E+03  0.7561462E-02  0.1257050E+00
          1   -1    0    0  501    0  0.00000000000E+00  0.00000000000E+00  0.14411858798E+03  0.14411858798E+03  0.00000000000E+00 0. -1.
         -1   -1    0    0    0  501 -0.00000000000E+00 -0.00000000000E+00 -0.12313879206E+03  0.12313879206E+03  0.00000000000E+00 0.  1.
         25    2    1    2    0    0 -0.36839877352E+02  0.50752455418E+02 -0.37142741975E+02  0.14477442988E+03  0.12508822475E+03 0.  0.
          5    1    3    3  502    0 -0.25848303013E+02  0.81071073201E+02  0.11805283492E+02  0.86008666987E+02  0.41800000000E+01 0.  1.
         -5    1    3    3    0  502 -0.10991574339E+02 -0.30318617783E+02 -0.48948025467E+02  0.58765762888E+02  0.41800000000E+01 0.  1.
        -11    1    1    2    0    0  0.59311638538E+02 -0.57561383393E+02  0.35753337436E+02  0.90052676041E+02  0.00000000000E+00 0.  1.
         11    1    1    2    0    0 -0.22471761186E+02  0.68089279750E+01  0.22369200458E+02  0.32430274129E+02  0.00000000000E+00 0. -1.
</event>
<event>
 7    1  0.3056346E-009  0.1080863E+03  0.7561462E-02  0.1264155E+00
         -1   -1    0    0    0  501 -0.00000000000E+00  0.00000000000E+00  0.27456950586E+02  0.27456950586E+02  0.00000000000E+00 0.  1.
          1   -1    0    0  501    0  0.00000000000E+00 -0.00000000000E+00 -0.84587091341E+03  0.84587091341E+03  0.00000000000E+00 0. -1.
         25    2    1    2    0    0  0.92099485766E+02 -0.34563781948E+02 -0.55688713572E+03  0.57917686673E+03  0.12508233579E+03 0.  0.
          5    1    3    3  502    0  0.92228409948E+02 -0.24694375078E+02 -0.55993571752E+03  0.56803289687E+03  0.41800000000E+01 0. -1.
         -5    1    3    3    0  502 -0.12892418220E+00 -0.98694068696E+01  0.30485818030E+01  0.11143969868E+02  0.41800000000E+01 0. -1.
        -11    1    1    2    0    0 -0.20376061441E+02  0.32221235548E+02 -0.18639706736E+03  0.19025577158E+03  0.00000000000E+00 0. -1.
         11    1    1    2    0    0 -0.71723424325E+02  0.23425463995E+01 -0.75129759748E+02  0.10389522569E+03  0.00000000000E+00 0.  1.
</event>
<event>
 7    1  0.3056346E-009  0.8177767E+02  0.7561462E-02  0.1324081E+00
         -2   -1    0    0    0  501 -0.00000000000E+00  0.00000000000E+00  0.78418033251E+02  0.78418033251E+02  0.00000000000E+00 0.  1.
          2   -1    0    0  501    0  0.00000000000E+00 -0.00000000000E+00 -0.15301691908E+03  0.15301691908E+03  0.00000000000E+00 0. -1.
         25    2    1    2    0    0  0.24055386082E+02  0.20045617169E+01 -0.45406354001E+02  0.13524867021E+03  0.12509111056E+03 0.  0.
          5    1    3    3  502    0 -0.22922993289E+02 -0.46884903857E+02 -0.42193880354E+02  0.67241756152E+02  0.41800000000E+01 0.  1.
         -5    1    3    3    0  502  0.46978379371E+02  0.48889465574E+02 -0.32124736474E+01  0.68006914056E+02  0.41800000000E+01 0.  1.
        -11    1    1    2    0    0 -0.16231108988E+02  0.16519959920E+02  0.27546916009E+02  0.35988755972E+02  0.00000000000E+00 0.  1.
         11    1    1    2    0    0 -0.78242770935E+01 -0.18524521637E+02 -0.56739447841E+02  0.60197526155E+02  0.00000000000E+00 0. -1.
</event>
<event>
 7    1  0.3056346E-009  0.1089900E+03  0.7561462E-02  0.1262452E+00
         -1   -1    0    0    0  501 -0.00000000000E+00  0.00000000000E+00  0.47148492575E+02  0.47148492575E+02  0.00000000000E+00 0.  1.
          1   -1    0    0  501    0  0.00000000000E+00 -0.00000000000E+00 -0.58395693752E+03  0.58395693752E+03  0.00000000000E+00 0. -1.
         25    2    1    2    0    0  0.48604627694E+02 -0.72925692014E+02 -0.11622832226E+03  0.19193006947E+03  0.12509021658E+03 0.  0.
          5    1    3    3  502    0 -0.32234925120E+01 -0.30107885071E+01  0.25141995890E+02  0.25865964292E+02  0.41800000000E+01 0.  1.
         -5    1    3    3    0  502  0.51828120206E+02 -0.69914903507E+02 -0.14137031815E+03  0.16606410518E+03  0.41800000000E+01 0.  1.
        -11    1    1    2    0    0 -0.51635269291E+00  0.76546525972E+02 -0.22212388519E+03  0.23494394572E+03  0.00000000000E+00 0.  1.
         11    1    1    2    0    0 -0.48088275002E+02 -0.36208339583E+01 -0.19845623751E+03  0.20423141491E+03  0.00000000000E+00 0. -1.
</event>
<event>
 7    1  0.3056346E-009  0.9625084E+02  0.7561462E-02  0.1288383E+00
          2   -1    0    0  501    0  0.00000000000E+00  0.00000000000E+00  0.22367370483E+03  0.22367370483E+03  0.00000000000E+00 0. -1.
         -2   -1    0    0    0  501 -0.00000000000E+00 -0.00000000000E+00 -0.62436885096E+02  0.62436885096E+02  0.00000000000E+00 0.  1.
         25    2    1    2    0    0  0.32481638492E+02 -0.39256539786E+02  0.10256150611E+03  0.16959422001E+03  0.12508878514E+03 0.  0.
          5    1    3    3  502    0 -0.30181188048E+01 -0.54404526100E+02  0.11622991797E+03  0.12843608424E+03  0.41800000000E+01 0. -1.
         -5    1    3    3    0  502  0.35499757297E+02  0.15147986314E+02 -0.13668411860E+02  0.41158135773E+02  0.41800000000E+01 0. -1.
        -11    1    1    2    0    0  0.23406566088E+02  0.36137978243E+02  0.35998148110E+02  0.56122076538E+02  0.00000000000E+00 0.  1.
         11    1    1    2    0    0 -0.55888204580E+02  0.31185615429E+01  0.22677165508E+02  0.60394293379E+02  0.00000000000E+00 0. -1.
</event>
<event>
 7    1  0.3056346E-009  0.9277167E+02  0.7561462E-02  0.1296275E+00
         -2   -1    0    0    0  501 -0.00000000000E+00  0.00000000000E+00  0.42104164759E+03  0.42104164759E+03  0.00000000000E+00 0.  1.
          2   -1    0    0  501    0  0.00000000000E+00 -0.00000000000E+00 -0.37019363678E+02  0.37019363678E+02  0.00000000000E+00 0. -1.
         25    2    1    2    0    0  0.41255132710E+02 -0.20847864136E+02  0.29489606049E+03  0.32364863623E+03  0.12509250108E+03 0.  0.
          5    1    3    3  502    0  0.16219443486E+02  0.28712191924E+02  0.24978338543E+03  0.25198546059E+03  0.41800000000E+01 0.  1.
         -5    1    3    3    0  502  0.25035689223E+02 -0.49560056060E+02  0.45112675058E+02  0.71663175638E+02  0.41800000000E+01 0.  1.
        -11    1    1    2    0    0 -0.56367847690E+01  0.50170134811E+02  0.65141461733E+02  0.82414961058E+02  0.00000000000E+00 0.  1.
         11    1    1    2    0    0 -0.35618347941E+02 -0.29322270675E+02  0.23984761694E+02  0.51997413985E+02  0.00000000000E+00 0. -1.
</event>
<event>
 7    1  0.3056346E-009  0.1290635E+03  0.7561462E-02  0.1228852E+00
         -2   -1    0    0    0  501 -0.00000000000E+00  0.00000000000E+00  0.15568438202E+03  0.15568438202E+03  0.00000000000E+00 0.  1.
          2   -1    0    0  501    0  0.00000000000E+00 -0.00000000000E+00 -0.20298263188E+03  0.20298263188E+03  0.00000000000E+00 0. -1.
         25    2    1    2    0    0  0.10796971942E+03  0.49458665891E+02  0.52045835403E+02  0.18016689682E+03  0.12509085411E+03 0.  0.
          5    1    3    3  502    0  0.86425966202E+02  0.59090332172E+01  0.84899357546E+02  0.12136613045E+03  0.41800000000E+01 0.  1.
         -5    1    3    3    0  502  0.21543753214E+02  0.43549632674E+02 -0.32853522143E+02  0.58800766371E+02  0.41800000000E+01 0.  1.
        -11    1    1    2    0    0 -0.66041967234E+02 -0.13524900045E+02 -0.30314487256E+01  0.67480767917E+02  0.00000000000E+00 0.  1.
         11    1    1    2    0    0 -0.41927752182E+02 -0.35933765846E+02 -0.96312636544E+02  0.11101934916E+03  0.00000000000E+00 0. -1.
</event>
<event>
 7    1  0.3056346E-009  0.7166723E+02  0.7561462E-02  0.1354514E+00
         -1   -1    0    0    0  501 -0.00000000000E+00  0.00000000000E+00  0.24631143672E+03  0.24631143672E+03  0.00000000000E+00 0.  1.
          1   -1    0    0  501    0  0.00000000000E+00 -0.00000000000E+00 -0.49376139060E+02  0.49376139060E+02  0.00000000000E+00 0. -1.
         25    2    1    2    0    0  0.26724818393E+02 -0.68603349142E+01  0.11948770306E+03  0.17514808177E+03  0.12505302576E+03 0.  0.
          5    1    3    3  502    0  0.29065451747E+02  0.16740317428E+02 -0.16099148630E+02  0.37439200038E+02  0.41800000000E+01 0.  1.
         -5    1    3    3    0  502 -0.23406333544E+01 -0.23600652342E+02  0.13558685169E+03  0.13770888173E+03  0.41800000000E+01 0.  1.
        -11    1    1    2    0    0  0.14004291465E+02 -0.28344988471E+02  0.52315227724E+02  0.61126439474E+02  0.00000000000E+00 0. -1.
         11    1    1    2    0    0 -0.40729109858E+02  0.35205323386E+02  0.25132366868E+02  0.59413054532E+02  0.00000000000E+00 0.  1.
</event>
<event>
 7    1  0.3056346E-009  0.1268240E+03  0.7561462E-02  0.1232246E+00
          2   -1    0    0  501    0  0.00000000000E+00  0.00000000000E+00  0.10038498020E+04  0.10038498020E+04  0.00000000000E+00 0. -1.
         -2   -1    0    0    0  501 -0.00000000000E+00 -0.00000000000E+00 -0.19821598724E+02  0.19821598724E+02  0.00000000000E+00 0.  1.
         25    2    1    2    0    0 -0.49690232309E+02  0.73858994206E+02  0.58367206512E+03  0.60352713933E+03  0.12509059951E+03 0.  0.
          5    1    3    3  502    0 -0.20486910137E+02  0.92620814693E+02  0.53635596376E+03  0.54469580599E+03  0.41800000000E+01 0.  1.
         -5    1    3    3    0  502 -0.29203322172E+02 -0.18761820488E+02  0.47316101360E+02  0.58831333334E+02  0.41800000000E+01 0.  1.
        -11    1    1    2    0    0 -0.23615348552E+02 -0.72926343936E+01  0.46072346608E+02  0.52283155276E+02  0.00000000000E+00 0.  1.
         11    1    1    2    0    0  0.73305580861E+02 -0.66566359812E+02  0.35428379150E+03  0.36786110607E+03  0.00000000000E+00 0. -1.
</event>
<event>
 7    1  0.3056346E-009  0.9631947E+02  0.7561462E-02  0.1288232E+00
         -2   -1    0    0    0  501 -0.00000000000E+00  0.00000000000E+00  0.38199203088E+02  0.38199203088E+02  0.00000000000E+00 0. -1.
          2   -1    0    0  501    0  0.00000000000E+00 -0.00000000000E+00 -0.47444646169E+03  0.47444646169E+03  0.00000000000E+00 0.  1.
         25    2    1    2    0    0  0.43506921736E+02 -0.58096985674E+02 -0.17002198082E+03  0.22321625204E+03  0.12509959724E+03 0.  0.
          5    1    3    3  502    0 -0.42723291553E+01 -0.56466973082E+02 -0.11958076219E+02  0.58027922867E+02  0.41800000000E+01 0. -1.
         -5    1    3    3    0  502  0.47779250891E+02 -0.16300125925E+01 -0.15806390460E+03  0.16518832917E+03  0.41800000000E+01 0. -1.
        -11    1    1    2    0    0  0.80076238648E+01  0.25920750595E+02 -0.15069476925E+02  0.31033795871E+02  0.00000000000E+00 0.  1.
         11    1    1    2    0    0 -0.51514545601E+02  0.32176235079E+02 -0.25115580086E+03  0.25839561687E+03  0.00000000000E+00 0. -1.
</event>
<event>
 7    1  0.3056346E-009  0.9796451E+02  0.7561462E-02  0.1284635E+00
         -1   -1    0    0    0  501 -0.00000000000E+00  0.00000000000E+00  0.35369132011E+03  0.35369132011E+03  0.00000000000E+00 0.  1.
          1   -1    0    0  501    0  0.00000000000E+00 -0.00000000000E+00 -0.43235402563E+02  0.43235402563E+02  0.00000000000E+00 0. -1.
         25    2    1    2    0    0 -0.18672803151E+02 -0.55161404450E+02  0.14074302646E+03  0.19709739402E+03  0.12508928456E+03 0.  0.
          5    1    3    3  502    0 -0.42796193631E+02 -0.49383096099E+02  0.15494267360E+03  0.16821090592E+03  0.41800000000E+01 0. -1.
         -5    1    3    3    0  502  0.24123390480E+02 -0.57783083506E+01 -0.14199647134E+02  0.28886488093E+02  0.41800000000E+01 0. -1.
        -11    1    1    2    0    0  0.35513642987E+02  0.72741802925E+02  0.13551748026E+03  0.15785302084E+03  0.00000000000E+00 0.  1.
         11    1    1    2    0    0 -0.16840839836E+02 -0.17580398475E+02  0.34195410822E+02  0.41976307821E+02  0.00000000000E+00 0. -1.
</event>
<event>
 7    1  0.3056346E-009  0.2841106E+03  0.7561462E-02  0.1093465E+00
         -2   -1    0    0    0  501 -0.00000000000E+00  0.00000000000E+00  0.62305001024E+02  0.62305001024E+02  0.00000000000E+00 0.  1.
          2   -1    0    0  501    0  0.00000000000E+00 -0.00000000000E+00 -0.13857468228E+04  0.13857468228E+04  0.00000000000E+00 0. -1.
         25    2    1    2    0    0  0.18830883713E+03  0.19379995685E+03 -0.58294958238E+03  0.65459611618E+03  0.12508884162E+03 0.  0.
          5    1    3    3  502    0  0.16784653249E+03  0.10697933316E+03 -0.47134124059E+03  0.51166109260E+03  0.41800000000E+01 0. -1.
         -5    1    3    3    0  502  0.20462304640E+02  0.86820623689E+02 -0.11160834179E+03  0.14293502358E+03  0.41800000000E+01 0. -1.
        -11    1    1    2    0    0  0.22331590086E+01 -0.25546772683E+02 -0.33732971066E+02  0.42373788250E+02  0.00000000000E+00 0.  1.
         11    1    1    2    0    0 -0.19054199614E+03 -0.16825318417E+03 -0.70675926834E+03  0.75108191941E+03  0.00000000000E+00 0. -1.
</event>
<event>
 7    1  0.3056346E-009  0.1128624E+03  0.7561462E-02  0.1255359E+00
         -2   -1    0    0    0  501 -0.00000000000E+00  0.00000000000E+00  0.21319502631E+03  0.21319502631E+03  0.00000000000E+00 0.  1.
          2   -1    0    0  501    0  0.00000000000E+00 -0.00000000000E+00 -0.10616292547E+03  0.10616292547E+03  0.00000000000E+00 0. -1.
         25    2    1    2    0    0 -0.60899044202E+02 -0.31182138431E+02  0.14066498697E+03  0.20028860752E+03  0.12509144015E+03 0.  0.
          5    1    3    3  502    0  0.84257185097E+01  0.31397001755E+02  0.17189915842E+01  0.32820599989E+02  0.41800000000E+01 0. -1.
         -5    1    3    3    0  502 -0.69324762711E+02 -0.62579140185E+02  0.13894599539E+03  0.16746800753E+03  0.41800000000E+01 0. -1.
        -11    1    1    2    0    0  0.67668914861E+02  0.11643280071E+00  0.63721166346E+01  0.67968371067E+02  0.00000000000E+00 0.  1.
         11    1    1    2    0    0 -0.67698706593E+01  0.31065705630E+02 -0.40005002764E+02  0.51100973192E+02  0.00000000000E+00 0. -1.
</event>
<event>
 7    1  0.3056346E-009  0.1124809E+03  0.7561462E-02  0.1256043E+00
          1   -1    0    0  501    0  0.00000000000E+00  0.00000000000E+00  0.75023665232E+02  0.75023665232E+02  0.00000000000E+00 0. -1.
         -1   -1    0    0    0  501 -0.00000000000E+00 -0.00000000000E+00 -0.30561177178E+03  0.30561177178E+03  0.00000000000E+00 0.  1.
         25    2    1    2    0    0  0.94100166760E+02 -0.41117395699E+02 -0.12987592874E+03  0.20749457031E+03  0.12506301703E+03 0.  0.
          5    1    3    3  502    0  0.56781419173E+02 -0.98638506933E+01 -0.14521312524E+03  0.15628739314E+03  0.41800000000E+01 0. -1.
         -5    1    3    3    0  502  0.37318747587E+02 -0.31253545005E+02  0.15337196500E+02  0.51207177166E+02  0.41800000000E+01 0. -1.
        -11    1    1    2    0    0 -0.41479801851E+02  0.49990822828E+02 -0.10063298634E+03  0.11977751988E+03  0.00000000000E+00 0.  1.
         11    1    1    2    0    0 -0.52620364910E+02 -0.88734271290E+01 -0.79191461834E-01  0.53363346817E+02  0.00000000000E+00 0. -1.
</event>
<event>
 7    1  0.3056346E-009  0.1314767E+03  0.7561462E-02  0.1225281E+00
          2   -1    0    0  501    0  0.00000000000E+00  0.00000000000E+00  0.32296332402E+03  0.32296332402E+03  0.00000000000E+00 0. -1.
         -2   -1    0    0    0  501 -0.00000000000E+00 -0.00000000000E+00 -0.63344994885E+02  0.63344994885E+02  0.00000000000E+00 0.  1.
         25    2    1    2    0    0  0.67032999260E+02 -0.62685053048E+02  0.12005803561E+03  0.19617462161E+03  0.12509081254E+03 0.  0.
          5    1    3    3  502    0  0.78913156956E+02  0.10831509355E+02  0.71943282393E+02  0.10741469274E+03  0.41800000000E+01 0.  1.
         -5    1    3    3    0  502 -0.11880157696E+02 -0.73516562403E+02  0.48114753218E+02  0.88759928862E+02  0.41800000000E+01 0.  1.
        -11    1    1    2    0    0 -0.44755829267E+02  0.29540426991E+01  0.10319182642E+02  0.46024951408E+02  0.00000000000E+00 0.  1.
         11    1    1    2    0    0 -0.22277169993E+02  0.59731010349E+02  0.12924111088E+03  0.14410874589E+03  0.00000000000E+00 0. -1.
</event>
<event>
 6    1  0.3056346E-009  0.6918244E+02  0.7561462E-02  0.1362895E+00
          3   -1    0    0  501    0  0.00000000000E+00  0.00000000000E+00  0.14165994623E+03  0.14165994623E+03  0.00000000000E+00 0. -1.
         -3   -1    0    0    0  501 -0.00000000000E+00 -0.00000000000E+00 -0.11148617079E+03  0.11148617079E+03  0.00000000000E+00 0.  1.
          5    1    1    2  502    0  0.13866936776E+02 -0.30862132488E+02  0.97350372932E+02  0.10314713116E+03  0.41800000000E+01 0. -1.
         -5    1    1    2    0  502  0.77262504718E+01 -0.14739615443E+02 -0.39745627927E+02  0.43291321868E+02  0.41800000000E+01 0. -1.
        -11    1    1    2    0    0 -0.42916585143E+02  0.76649317804E+01 -0.42274928473E+02  0.60726880678E+02  0.00000000000E+00 0.  1.
         11    1    1    2    0    0  0.21323397896E+02  0.37936816151E+02  0.14843958910E+02  0.45980783308E+02  0.00000000000E+00 0. -1.
</event>
<event>
 7    1  0.3056346E-009  0.8426349E+02  0.7561462E-02  0.1317370E+00
         -3   -1    0    0    0  501 -0.00000000000E+00  0.00000000000E+00  0.29154129179E+03  0.29154129179E+03  0.00000000000E+00 0.  1.
          3   -1    0    0  501    0  0.00000000000E+00 -0.00000000000E+00 -0.49088943524E+02  0.49088943524E+02  0.00000000000E+00 0. -1.
         25    2    1    2    0    0 -0.57637750674E+01  0.60493816351E+02  0.12527732375E+03  0.18717623892E+03  0.12509122132E+03 0.  0.
          5    1    3    3  502    0  0.17532290803E+02  0.55985190595E+02 -0.79699709054E+00  0.58820322943E+02  0.41800000000E+01 0. -1.
         -5    1    3    3    0  502 -0.23296065871E+02  0.45086257563E+01  0.12607432084E+03  0.12835591598E+03  0.41800000000E+01 0. -1.
        -11    1    1    2    0    0  0.31732354380E+02 -0.45986768644E+02  0.10919033505E+03  0.12265502221E+03  0.00000000000E+00 0.  1.
         11    1    1    2    0    0 -0.25968579312E+02 -0.14507047707E+02  0.79846894614E+01  0.30798974179E+02  0.00000000000E+00 0. -1.
</event>
<event>
 7    1  0.3056346E-009  0.1023072E+03  0.7561462E-02  0.1275518E+00
          1   -1    0    0  501    0  0.00000000000E+00  0.00000000000E+00  0.53886372240E+02  0.53886372240E+02  0.00000000000E+00 0. -1.
         -1   -1    0    0    0  501 -0.00000000000E+00 -0.00000000000E+00 -0.25330309952E+03  0.25330309952E+03  0.00000000000E+00 0.  1.
         25    2    1    2    0    0  0.19686402624E+02 -0.29311156770E+02 -0.16287413762E+03  0.20838278654E+03  0.12509477472E+03 0.  0.
          5    1    3    3  502    0 -0.26196597355E+01 -0.73597785854E+02 -0.63854607812E+02  0.97562185495E+02  0.41800000000E+01 0.  1.
         -5    1    3    3    0  502  0.22306062360E+02  0.44286629085E+02 -0.99019529806E+02  0.11082060105E+03  0.41800000000E+01 0.  1.
        -11    1    1    2    0    0  0.25337230364E+02  0.25430239664E+02 -0.39678371296E+02  0.53507433882E+02  0.00000000000E+00 0.  1.
         11    1    1    2    0    0 -0.45023632988E+02  0.38809171053E+01  0.31357816348E+01  0.45299251335E+02  0.00000000000E+00 0. -1.
</event>
<event>
 7    1  0.3056346E-009  0.1516790E+03  0.7561462E-02  0.1198425E+00
          1   -1    0    0  501    0  0.00000000000E+00  0.00000000000E+00  0.27666780731E+03  0.27666780731E+03  0.00000000000E+00 0. -1.
         -1   -1    0    0    0  501 -0.00000000000E+00 -0.00000000000E+00 -0.95764154094E+02  0.95764154094E+02  0.00000000000E+00 0.  1.
         25    2    1    2    0    0  0.45134543101E+02 -0.97126464274E+02  0.31480598387E+02  0.16765801702E+03  0.12508998982E+03 0.  0.
          5    1    3    3  502    0  0.79548628935E+02 -0.25006425340E+02  0.61164347161E+01  0.83714926073E+02  0.41800000000E+01 0.  1.
         -5    1    3    3    0  502 -0.34414085834E+02 -0.72120038933E+02  0.25364163671E+02  0.83943090950E+02  0.41800000000E+01 0.  1.
        -11    1    1    2    0    0  0.54299300765E+01  0.88362296309E+02  0.99417861130E+02  0.13312133811E+03  0.00000000000E+00 0. -1.
         11    1    1    2    0    0 -0.50564473178E+02  0.87641679641E+01  0.50005193696E+02  0.71652606264E+02  0.00000000000E+00 0.  1.
</event>
<event>
 7    1  0.3056346E-009  0.1560670E+03  0.7561462E-02  0.1193210E+00
          1   -1    0    0  501    0  0.00000000000E+00  0.00000000000E+00  0.26902993909E+04  0.26902993909E+04  0.00000000000E+00 0. -1.
         -1   -1    0    0    0  501 -0.00000000000E+00 -0.00000000000E+00 -0.16001960219E+02  0.16001960219E+02  0.00000000000E+00 0.  1.
         25    2    1    2    0    0  0.13266891420E+03  0.25727182328E+02  0.21442859465E+04  0.21521785902E+04  0.12509010792E+03 0.  0.
          5    1    3    3  502    0  0.11209213886E+03  0.63919406653E+02  0.18700225165E+04  0.18744737989E+04  0.41800000000E+01 0.  1.
         -5    1    3    3    0  502  0.20576775340E+02 -0.38192224325E+02  0.27426343000E+03  0.27770479131E+03  0.41800000000E+01 0.  1.
        -11    1    1    2    0    0 -0.18256689109E+02 -0.16592646396E+02  0.21204435470E+02  0.32530765365E+02  0.00000000000E+00 0.  1.
         11    1    1    2    0    0 -0.11441222509E+03 -0.91345359324E+01  0.50880704872E+03  0.52159199555E+03  0.00000000000E+00 0. -1.
</event>
<event>
 7    1  0.3056346E-009  0.1447220E+03  0.7561462E-02  0.1207113E+00
         -2   -1    0    0    0  501 -0.00000000000E+00  0.00000000000E+00  0.21872171546E+03  0.21872171546E+03  0.00000000000E+00 0.  1.
          2   -1    0    0  501    0  0.00000000000E+00 -0.00000000000E+00 -0.12944540452E+03  0.12944540452E+03  0.00000000000E+00 0. -1.
         25    2    1    2    0    0 -0.36884770421E+02  0.10084967609E+03  0.12271116414E+03  0.20551675865E+03  0.12509182557E+03 0.  0.
          5    1    3    3  502    0 -0.43495422533E+02  0.12127482251E+03  0.12939470921E+03  0.18264692039E+03  0.41800000000E+01 0. -1.
         -5    1    3    3    0  502  0.66106521118E+01 -0.20425146417E+02 -0.66835450648E+01  0.22869838262E+02  0.41800000000E+01 0. -1.
        -11    1    1    2    0    0  0.61353216362E+02 -0.40421637756E+02 -0.16825431905E+02  0.75373875551E+02  0.00000000000E+00 0.  1.
         11    1    1    2    0    0 -0.24468445940E+02 -0.60428038334E+02 -0.16609421291E+02  0.67276485783E+02  0.00000000000E+00 0. -1.
</event>
<event>
 7    1  0.3056346E-009  0.1609967E+03  0.7561462E-02  0.1187576E+00
          1   -1    0    0  501    0  0.00000000000E+00  0.00000000000E+00  0.30175400264E+03  0.30175400264E+03  0.00000000000E+00 0. -1.
         -1   -1    0    0    0  501 -0.00000000000E+00 -0.00000000000E+00 -0.14886959809E+03  0.14886959809E+03  0.00000000000E+00 0.  1.
         25    2    1    2    0    0  0.97408543817E+01  0.15737300261E+03 -0.30296688101E+02  0.20353624391E+03  0.12509183459E+03 0.  0.
          5    1    3    3  502    0  0.16265603365E+02  0.13457591588E+03  0.29747775970E+02  0.13884397561E+03  0.41800000000E+01 0. -1.
         -5    1    3    3    0  502 -0.65247489828E+01  0.22797086734E+02 -0.60044464070E+02  0.64692268304E+02  0.41800000000E+01 0. -1.
        -11    1    1    2    0    0 -0.23466858261E+02 -0.12415630891E+03  0.11922407338E+03  0.17372352216E+03  0.00000000000E+00 0.  1.
         11    1    1    2    0    0  0.13726003879E+02 -0.33216693705E+02  0.63957019265E+02  0.73363834663E+02  0.00000000000E+00 0. -1.
</event>
<event>
 7    1  0.3056346E-009  0.8087857E+02  0.7561462E-02  0.1326577E+00
          2   -1    0    0  501    0  0.00000000000E+00  0.00000000000E+00  0.79742167639E+03  0.79742167639E+03  0.00000000000E+00 0. -1.
         -2   -1    0    0    0  501 -0.00000000000E+00 -0.00000000000E+00 -0.16168613684E+02  0.16168613684E+02  0.00000000000E+00 0.  1.
         25    2    1    2    0    0 -0.93797756099E+00 -0.18295507389E+02  0.55243977306E+03  0.56672119205E+03  0.12509037241E+03 0.  0.
          5    1    3    3  502    0  0.17359431266E+02 -0.51042523845E+02  0.49528407958E+03  0.49822733865E+03  0.41800000000E+01 0. -1.
         -5    1    3    3    0  502 -0.18297408827E+02  0.32747016456E+02  0.57155693484E+02  0.68493853405E+02  0.41800000000E+01 0. -1.
        -11    1    1    2    0    0 -0.29790325734E+02  0.24521542517E+02  0.20188659454E+03  0.20554066899E+03  0.00000000000E+00 0. -1.
         11    1    1    2    0    0  0.30728303295E+02 -0.62260351279E+01  0.26926695108E+02  0.41328429032E+02  0.00000000000E+00 0.  1.
</event>
<event>
 7    1  0.3056346E-009  0.1787540E+03  0.7561462E-02  0.1169014E+00
          2   -1    0    0  501    0  0.00000000000E+00  0.00000000000E+00  0.26559983355E+03  0.26559983355E+03  0.00000000000E+00 0. -1.
         -2   -1    0    0    0  501 -0.00000000000E+00 -0.00000000000E+00 -0.15281577007E+03  0.15281577007E+03  0.00000000000E+00 0.  1.
         25    2    1    2    0    0  0.14439878227E+03 -0.88716112888E+02  0.69622810308E+02  0.22184670203E+03  0.12508823478E+03 0.  0.
          5    1    3    3  502    0  0.13209809522E+03 -0.10077598258E+03  0.94584473473E+02  0.19123127476E+03  0.41800000000E+01 0.  1.
         -5    1    3    3    0  502  0.12300687046E+02  0.12059869690E+02 -0.24961663165E+02  0.30615427267E+02  0.41800000000E+01 0.  1.
        -11    1    1    2    0    0 -0.10629662790E+03  0.83397655150E+02 -0.46665516557E+01  0.13518845621E+03  0.00000000000E+00 0.  1.
         11    1    1    2    0    0 -0.38102154367E+02  0.53184577373E+01  0.47827804834E+02  0.61380445383E+02  0.00000000000E+00 0. -1.
</event>
<event>
 7    1  0.3056346E-009  0.1302772E+03  0.7561462E-02  0.1227045E+00
          2   -1    0    0  501    0  0.00000000000E+00  0.00000000000E+00  0.87288802423E+03  0.87288802423E+03  0.00000000000E+00 0. -1.
         -2   -1    0    0    0  501 -0.00000000000E+00 -0.00000000000E+00 -0.25013956228E+02  0.25013956228E+02  0.00000000000E+00 0.  1.
         25    2    1    2    0    0  0.34020362505E+02  0.72376958252E+02  0.28055393264E+03  0.31741633179E+03  0.12508720725E+03 0.  0.
          5    1    3    3  502    0  0.27392752330E+01  0.10101691485E+03  0.15737037296E+03  0.18706904448E+03  0.41800000000E+01 0. -1.
         -5    1    3    3    0  502  0.31281087272E+02 -0.28639956601E+02  0.12318355968E+03  0.13034728732E+03  0.41800000000E+01 0. -1.
        -11    1    1    2    0    0 -0.41633816829E+02  0.23336482666E+01  0.12331791342E+03  0.13017729598E+03  0.00000000000E+00 0.  1.
         11    1    1    2    0    0  0.76134543235E+01 -0.74710606518E+02  0.44400222194E+03  0.45030835269E+03  0.00000000000E+00 0. -1.
</event>
<event>
 7    1  0.3056346E-009  0.2486177E+03  0.7561462E-02  0.1114182E+00
          1   -1    0    0  501    0  0.00000000000E+00  0.00000000000E+00  0.10747624533E+04  0.10747624533E+04  0.00000000000E+00 0. -1.
         -1   -1    0    0    0  501 -0.00000000000E+00 -0.00000000000E+00 -0.77432071665E+02  0.77432071665E+02  0.00000000000E+00 0.  1.
         25    2    1    2    0    0  0.18849266720E+03  0.15974545491E+03  0.71195721289E+03  0.76392442658E+03  0.12509740441E+03 0.  0.
          5    1    3    3  502    0  0.67571387764E+02  0.51741261073E+02  0.43249778348E+03  0.44081158748E+03  0.41800000000E+01 0. -1.
         -5    1    3    3    0  502  0.12092127943E+03  0.10800419384E+03  0.27945942941E+03  0.32311283910E+03  0.41800000000E+01 0. -1.
        -11    1    1    2    0    0 -0.14425364684E+03 -0.14124417441E+03  0.17218177963E+03  0.26534052964E+03  0.00000000000E+00 0.  1.
         11    1    1    2    0    0 -0.44239020361E+02 -0.18501280504E+02  0.11319138906E+03  0.12292956870E+03  0.00000000000E+00 0. -1.
</event>
<event>
 7    1  0.3056346E-009  0.1372099E+03  0.7561462E-02  0.1217133E+00
         -2   -1    0    0    0  501 -0.00000000000E+00  0.00000000000E+00  0.24154956738E+03  0.24154956738E+03  0.00000000000E+00 0.  1.
          2   -1    0    0  501    0  0.00000000000E+00 -0.00000000000E+00 -0.81199652251E+02  0.81199652251E+02  0.00000000000E+00 0. -1.
         25    2    1    2    0    0 -0.88138845269E+02 -0.71180736303E+01  0.67141020758E+02  0.16725534948E+03  0.12508921713E+03 0.  0.
          5    1    3    3  502    0  0.24861249216E+02  0.24957467637E+02  0.18977315374E+02  0.40231428041E+02  0.41800000000E+01 0. -1.
         -5    1    3    3    0  502 -0.11300009449E+03 -0.32075541267E+02  0.48163705385E+02  0.12702392144E+03  0.41800000000E+01 0. -1.
        -11    1    1    2    0    0  0.57391254524E+02 -0.36519155636E+02  0.34955345464E+02  0.76480592314E+02  0.00000000000E+00 0. -1.
         11    1    1    2    0    0  0.30747590745E+02  0.43637229266E+02  0.58253548911E+02  0.79013277842E+02  0.00000000000E+00 0.  1.
</event>
<event>
 7    1  0.3056346E-009  0.8737600E+02  0.7561462E-02  0.1309333E+00
         -1   -1    0    0    0  501 -0.00000000000E+00  0.00000000000E+00  0.41684608827E+02  0.41684608827E+02  0.00000000000E+00 0.  1.
          1   -1    0    0  501    0  0.00000000000E+00 -0.00000000000E+00 -0.36890834802E+03  0.36890834802E+03  0.00000000000E+00 0. -1.
         25    2    1    2    0    0 -0.11844100142E+02  0.38215000104E+02 -0.27170810636E+03  0.30178259692E+03  0.12508705690E+03 0.  0.
          5    1    3    3  502    0  0.33065361588E+02  0.41441175999E+02 -0.24177364009E+03  0.24755333697E+03  0.41800000000E+01 0. -1.
         -5    1    3    3    0  502 -0.44909461730E+02 -0.32261758946E+01 -0.29934466272E+02  0.54229259951E+02  0.41800000000E+01 0. -1.
        -11    1    1    2    0    0  0.38791327551E+02 -0.26440707063E+02 -0.62902520833E+02  0.78489522933E+02  0.00000000000E+00 0. -1.
         11    1    1    2    0    0 -0.26947227408E+02 -0.11774293041E+02  0.73868879985E+01  0.30320836992E+02  0.00000000000E+00 0.  1.
</event>
<event>
 7    1  0.3056346E-009  0.1374380E+03  0.7561462E-02  0.1216819E+00
         -2   -1    0    0    0  501 -0.00000000000E+00  0.00000000000E+00  0.11637001831E+04  0.11637001831E+04  0.00000000000E+00 0.  1.
          2   -1    0    0  501    0  0.00000000000E+00 -0.00000000000E+00 -0.27855742478E+02  0.27855742478E+02  0.00000000000E+00 0. -1.
         25    2    1    2    0    0  0.15080102528E+02 -0.91378374823E+02  0.96205973228E+03  0.97456841817E+03  0.12508899372E+03 0.  0.
          5    1    3    3  502    0  0.63045758278E+02 -0.41349187328E+02  0.67591685870E+03  0.68012175028E+03  0.41800000000E+01 0. -1.
         -5    1    3    3    0  502 -0.47965655750E+02 -0.50029187494E+02  0.28614287358E+03  0.29444666789E+03  0.41800000000E+01 0. -1.
        -11    1    1    2    0    0  0.24184106316E+02 -0.60142498138E+01  0.32831394420E+02  0.41218232115E+02  0.00000000000E+00 0.  1.
         11    1    1    2    0    0 -0.39264208844E+02  0.97392624636E+02  0.14095331392E+03  0.17576927529E+03  0.00000000000E+00 0. -1.
</event>
<event>
 7    1  0.3056346E-009  0.2169801E+03  0.7561462E-02  0.1136155E+00
          1   -1    0    0  501    0  0.00000000000E+00  0.00000000000E+00  0.92017075766E+02  0.92017075766E+02  0.00000000000E+00 0. -1.
         -1   -1    0    0    0  501 -0.00000000000E+00 -0.00000000000E+00 -0.59504451910E+03  0.59504451910E+03  0.00000000000E+00 0.  1.
         25    2    1    2    0    0  0.18922076850E+03  0.46988552877E+02 -0.15779697713E+03  0.28028421886E+03  0.12508770529E+03 0.  0.
          5    1    3    3  502    0 -0.77187794291E+01  0.26311215507E+02 -0.11511642321E+01  0.27760713182E+02  0.41800000000E+01 0.  1.
         -5    1    3    3    0  502  0.19693954793E+03  0.20677337370E+02 -0.15664581290E+03  0.25252350567E+03  0.41800000000E+01 0.  1.
        -11    1    1    2    0    0 -0.51459877689E+02 -0.48030902427E+02 -0.16911350719E+03  0.18317877856E+03  0.00000000000E+00 0.  1.
         11    1    1    2    0    0 -0.13776089081E+03  0.10423495502E+01 -0.17611695901E+03  0.22359859745E+03  0.00000000000E+00 0. -1.
</event>
<event>
 7    1  0.3056346E-009  0.2080633E+03  0.7561462E-02  0.1143109E+00
         -2   -1    0    0    0  501 -0.00000000000E+00  0.00000000000E+00  0.14005159056E+03  0.14005159056E+03  0.00000000000E+00 0.  1.
          2   -1    0    0  501    0  0.00000000000E+00 -0.00000000000E+00 -0.42907133797E+03  0.42907133797E+03  0.00000000000E+00 0. -1.
         25    2    1    2    0    0  0.10074795195E+03 -0.17272409331E+03 -0.25995879109E+03  0.35101323936E+03  0.12509180194E+03 0.  0.
          5    1    3    3  502    0  0.88782886616E+02 -0.17920751914E+03 -0.17781247155E+03  0.26764245424E+03  0.41800000000E+01 0. -1.
         -5    1    3    3    0  502  0.11965065335E+02  0.64834258263E+01 -0.82146319537E+02  0.83370785125E+02  0.41800000000E+01 0. -1.
        -11    1    1    2    0    0 -0.64967920503E+02  0.13522382230E+03 -0.55458302461E+02  0.15994354042E+03  0.00000000000E+00 0. -1.
         11    1    1    2    0    0 -0.35780031448E+02  0.37500271013E+02  0.26397346134E+02  0.58166148741E+02  0.00000000000E+00 0.  1.
</event>
<event>
 7    1  0.3056346E-009  0.8587886E+02  0.7561462E-02  0.1313150E+00
          1   -1    0    0  501    0  0.00000000000E+00  0.00000000000E+00  0.52087086369E+02  0.52087086369E+02  0.00000000000E+00 0. -1.
         -1   -1    0    0    0  501 -0.00000000000E+00 -0.00000000000E+00 -0.40051290464E+03  0.40051290464E+03  0.00000000000E+00 0.  1.
         25    2    1    2    0    0  0.55411411738E+02 -0.37646335879E+02 -0.29985986075E+03  0.33173665694E+03  0.12508238208E+03 0.  0.
          5    1    3    3  502    0  0.70050589849E+02 -0.21977982688E+02 -0.30100758827E+03  0.30985989973E+03  0.41800000000E+01 0.  1.
         -5    1    3    3    0  502 -0.14639178111E+02 -0.15668353191E+02  0.11477275177E+01  0.21876757208E+02  0.41800000000E+01 0.  1.
        -11    1    1    2    0    0 -0.33707739787E+02  0.92657232027E+00 -0.66524477168E+02  0.74582681102E+02  0.00000000000E+00 0.  1.
         11    1    1    2    0    0 -0.21703671951E+02  0.36719763559E+02  0.17958519648E+02  0.46280652976E+02  0.00000000000E+00 0. -1.
</event>
<event>
 7    1  0.3056346E-009  0.3234213E+03  0.7561462E-02  0.1074085E+00
         -1   -1    0    0    0  501 -0.00000000000E+00  0.00000000000E+00  0.32494791466E+03  0.32494791466E+03  0.00000000000E+00 0.  1.
          1   -1    0    0  501    0  0.00000000000E+00 -0.00000000000E+00 -0.38670428625E+03  0.38670428625E+03  0.00000000000E+00 0. -1.
         25    2    1    2    0    0 -0.14550575494E+03  0.27074005143E+03 -0.16990668698E+03  0.37281077502E+03  0.12508993374E+03 0.  0.
          5    1    3    3  502    0  0.11978351668E+02  0.93324898991E+02 -0.56561322649E+02  0.10986206488E+03  0.41800000000E+01 0.  1.
         -5    1    3    3    0  502 -0.15748410661E+03  0.17741515244E+03 -0.11334536433E+03  0.26294871014E+03  0.41800000000E+01 0.  1.
        -11    1    1    2    0    0  0.27615629984E+02 -0.10228097580E+02  0.30813105363E+02  0.42622581593E+02  0.00000000000E+00 0.  1.
         11    1    1    2    0    0  0.11789012496E+03 -0.26051195385E+03  0.77337210033E+02  0.29621884430E+03  0.00000000000E+00 0. -1.
</event>
<event>
 7    1  0.3056346E-009  0.1063613E+03  0.7561462E-02  0.1267461E+00
         -1   -1    0    0    0  501 -0.00000000000E+00  0.00000000000E+00  0.55844228489E+02  0.55844228489E+02  0.00000000000E+00 0. -1.
          1   -1    0    0  501    0  0.00000000000E+00 -0.00000000000E+00 -0.25862962003E+03  0.25862962003E+03  0.00000000000E+00 0.  1.
         25    2    1    2    0    0 -0.43335037105E+02  0.23929851068E+02 -0.10037332717E+03  0.16784679023E+03  0.12508867643E+03 0.  0.
          5    1    3    3  502    0 -0.57411601955E+02  0.66279691284E+02 -0.52606521037E+02  0.10234260096E+03  0.41800000000E+01 0.  1.
         -5    1    3    3    0  502  0.14076564851E+02 -0.42349840216E+02 -0.47766806129E+02  0.65504189271E+02  0.41800000000E+01 0.  1.
        -11    1    1    2    0    0 -0.72476578897E+01  0.14750592892E+02 -0.75886786090E+02  0.77646074200E+02  0.00000000000E+00 0.  1.
         11    1    1    2    0    0  0.50582694995E+02 -0.38680443960E+02 -0.26525278287E+02  0.68980984090E+02  0.00000000000E+00 0. -1.
</event>
<event>
 7    1  0.3056346E-009  0.1526355E+03  0.7561462E-02  0.1197271E+00
         -2   -1    0    0    0  501 -0.00000000000E+00  0.00000000000E+00  0.62623534362E+02  0.62623534362E+02  0.00000000000E+00 0.  1.
          2   -1    0    0  501    0  0.00000000000E+00 -0.00000000000E+00 -0.44467289092E+03  0.44467289092E+03  0.00000000000E+00 0. -1.
         25    2    1    2    0    0  0.12329046955E+03  0.85696571474E+01 -0.22309740131E+03  0.28406166775E+03  0.12507838227E+03 0.  0.
          5    1    3    3  502    0  0.10499422309E+03 -0.27084647165E+02 -0.21791526580E+03  0.24343767264E+03  0.41800000000E+01 0.  1.
         -5    1    3    3    0  502  0.18296246459E+02  0.35654304312E+02 -0.51821355125E+01  0.40623995113E+02  0.41800000000E+01 0.  1.
        -11    1    1    2    0    0 -0.51878548131E+02 -0.51536164945E+02 -0.67711292261E+02  0.99660318849E+02  0.00000000000E+00 0.  1.
         11    1    1    2    0    0 -0.71411921415E+02  0.42966507798E+02 -0.91240662989E+02  0.12357443868E+03  0.00000000000E+00 0. -1.
</event>
<event>
 7    1  0.3056346E-009  0.2184168E+03  0.7561462E-02  0.1135069E+00
         -2   -1    0    0    0  501 -0.00000000000E+00  0.00000000000E+00  0.56740330493E+02  0.56740330493E+02  0.00000000000E+00 0.  1.
          2   -1    0    0  501    0  0.00000000000E+00 -0.00000000000E+00 -0.10874780720E+04  0.10874780720E+04  0.00000000000E+00 0. -1.
         25    2    1    2    0    0  0.56904039149E+02  0.19258157404E+03 -0.73706288680E+03  0.77410359531E+03  0.12509574266E+03 0.  0.
          5    1    3    3  502    0 -0.30320457191E+02  0.72217668859E+02 -0.36685369274E+03  0.37514507341E+03  0.41800000000E+01 0.  1.
         -5    1    3    3    0  502  0.87224496340E+02  0.12036390518E+03 -0.37020919406E+03  0.39895852190E+03  0.41800000000E+01 0.  1.
        -11    1    1    2    0    0 -0.48186009113E+02 -0.60593612318E+02 -0.47991843410E+02  0.91086191938E+02  0.00000000000E+00 0. -1.
         11    1    1    2    0    0 -0.87180300358E+01 -0.13198796172E+03 -0.24568301124E+03  0.27902861520E+03  0.00000000000E+00 0.  1.
</event>
<event>
 7    1  0.3056346E-009  0.1711574E+03  0.7561462E-02  0.1176646E+00
          2   -1    0    0  501    0  0.00000000000E+00  0.00000000000E+00  0.25688739816E+04  0.25688739816E+04  0.00000000000E+00 0. -1.
         -2   -1    0    0    0  501 -0.00000000000E+00 -0.00000000000E+00 -0.18186902178E+02  0.18186902178E+02  0.00000000000E+00 0.  1.
         25    2    1    2    0    0  0.15666376744E+03 -0.53126426525E+02  0.18404630405E+04  0.18521120059E+04  0.12509486643E+03 0.  0.
          5    1    3    3  502    0  0.25136061846E+02  0.50119083742E+01  0.54575456065E+02  0.60439173021E+02  0.41800000000E+01 0.  1.
         -5    1    3    3    0  502  0.13152770559E+03 -0.58138334899E+02  0.17858875844E+04  0.17916728328E+04  0.41800000000E+01 0.  1.
        -11    1    1    2    0    0 -0.59085953209E+02 -0.43281406294E+01  0.11846617194E+03  0.13245420553E+03  0.00000000000E+00 0.  1.
         11    1    1    2    0    0 -0.97577814226E+02  0.57454567154E+02  0.59175786699E+03  0.60249467239E+03  0.00000000000E+00 0. -1.
</event>
<event>
 7    1  0.3056346E-009  0.1353729E+03  0.7561462E-02  0.1219694E+00
          4   -1    0    0  501    0  0.00000000000E+00  0.00000000000E+00  0.17819454115E+03  0.17819454115E+03  0.00000000000E+00 0.  1.
         -4   -1    0    0    0  501 -0.00000000000E+00 -0.00000000000E+00 -0.11579044682E+03  0.11579044682E+03  0.00000000000E+00 0. -1.
         25    2    1    2    0    0  0.94844681953E+02 -0.63719249883E+01  0.38903992972E+02  0.16185200615E+03  0.12508571503E+03 0.  0.
          5    1    3    3  502    0 -0.32768646546E+01  0.35130082147E+02 -0.19244678804E+02  0.40406566000E+02  0.41800000000E+01 0.  1.
         -5    1    3    3    0  502  0.98121546607E+02 -0.41502007136E+02  0.58148671777E+02  0.12144544015E+03  0.41800000000E+01 0.  1.
        -11    1    1    2    0    0 -0.35927508494E+02  0.45422286416E+02  0.20330760223E+02  0.61378414618E+02  0.00000000000E+00 0.  1.
         11    1    1    2    0    0 -0.58917173459E+02 -0.39050361427E+02  0.31693411315E+01  0.70754567197E+02  0.00000000000E+00 0. -1.
</event>
<event>
 7    1  0.3056346E-009  0.3513409E+02  0.7561462E-02  0.1547413E+00
          2   -1    0    0  501    0  0.00000000000E+00  0.00000000000E+00  0.25175284411E+03  0.25175284411E+03  0.00000000000E+00 0. -1.
         -2   -1    0    0    0  501 -0.00000000000E+00 -0.00000000000E+00 -0.67132018566E+02  0.67132018566E+02  0.00000000000E+00 0.  1.
         25    2    1    2    0    0 -0.17885126958E+02  0.28255003778E+02  0.17855652506E+03  0.22056353089E+03  0.12509042934E+03 0.  0.
          5    1    3    3  502    0 -0.64222984831E+01  0.14398776448E+02 -0.17335977417E+02  0.23802924064E+02  0.41800000000E+01 0. -1.
         -5    1    3    3    0  502 -0.11462828475E+02  0.13856227330E+02  0.19589250248E+03  0.19676060683E+03  0.41800000000E+01 0. -1.
        -11    1    1    2    0    0  0.12760495384E+02 -0.91174680416E+01 -0.42805681177E+02  0.45588209078E+02  0.00000000000E+00 0.  1.
         11    1    1    2    0    0  0.51246315744E+01 -0.19137535736E+02  0.48869981662E+02  0.52733122707E+02  0.00000000000E+00 0. -1.
</event>
<event>
 7    1  0.3164559E-009  0.8111010E+02  0.7561462E-02  0.1325930E+00
          2   -1    0    0  501    0  0.00000000000E+00  0.00000000000E+00  0.18966287228E+04  0.18966287228E+04  0.00000000000E+00 0. -1.
         -2   -1    0    0    0  501 -0.00000000000E+00 -0.00000000000E+00 -0.81238719052E+01  0.81238719052E+01  0.00000000000E+00 0.  1.
         25    2    1    2    0    0  0.61253285722E+01  0.44678502344E+02  0.13633147472E+04  0.13697838593E+04  0.12508810062E+03 0.  0.
          5    1    3    3  502    0  0.18354632673E+02  0.43013471684E+01  0.12242070093E+04  0.12243592888E+04  0.41800000000E+01 0. -1.
         -5    1    3    3    0  502 -0.12229304101E+02  0.40377155175E+02  0.13910773791E+03  0.14542457043E+03  0.41800000000E+01 0. -1.
        -11    1    1    2    0    0 -0.44955121861E+02 -0.42115675912E+02  0.36193492117E+03  0.36713972858E+03  0.00000000000E+00 0.  1.
         11    1    1    2    0    0  0.38829793289E+02 -0.25628264316E+01  0.16325518247E+03  0.16782900681E+03  0.00000000000E+00 0. -1.
</event>
<event>
 7    1  0.3056346E-009  0.7130143E+02  0.7561462E-02  0.1355723E+00
         -2   -1    0    0    0  501 -0.00000000000E+00  0.00000000000E+00  0.18149534774E+02  0.18149534774E+02  0.00000000000E+00 0.  1.
          2   -1    0    0  501    0  0.00000000000E+00 -0.00000000000E+00 -0.80813735937E+03  0.80813735937E+03  0.00000000000E+00 0. -1.
         25    2    1    2    0    0 -0.51948716350E+01 -0.28590567349E+02 -0.58993242351E+03  0.60374783250E+03  0.12508706451E+03 0.  0.
          5    1    3    3  502    0  0.22047556213E+02 -0.76134450513E+01 -0.55150784941E+03  0.55201670232E+03  0.41800000000E+01 0. -1.
         -5    1    3    3    0  502 -0.27242427848E+02 -0.20977122297E+02 -0.38424574105E+02  0.51731130183E+02  0.41800000000E+01 0. -1.
        -11    1    1    2    0    0  0.35802923987E+02 -0.78776175854E+01 -0.34743287584E+02  0.50507447540E+02  0.00000000000E+00 0.  1.
         11    1    1    2    0    0 -0.30608052352E+02  0.36468184934E+02 -0.16531211350E+03  0.17203161410E+03  0.00000000000E+00 0. -1.
</event>
<event>
 7    1  0.3056346E-009  0.1554186E+03  0.7561462E-02  0.1193968E+00
         -1   -1    0    0    0  501 -0.00000000000E+00  0.00000000000E+00  0.13651629105E+03  0.13651629105E+03  0.00000000000E+00 0.  1.
          1   -1    0    0  501    0  0.00000000000E+00 -0.00000000000E+00 -0.22377825636E+03  0.22377825636E+03  0.00000000000E+00 0. -1.
         25    2    1    2    0    0  0.13219806542E+03  0.30440298455E+02 -0.66954717053E+02  0.19629879873E+03  0.12508934397E+03 0.  0.
          5    1    3    3  502    0  0.26572503831E+02  0.57055244298E+02 -0.60021055625E+02  0.87071225902E+02  0.41800000000E+01 0.  1.
         -5    1    3    3    0  502  0.10562556159E+03 -0.26614945843E+02 -0.69336614279E+01  0.10922757282E+03  0.41800000000E+01 0.  1.
        -11    1    1    2    0    0 -0.16010704885E+02 -0.14265151376E+02 -0.39675516965E+02  0.45099710212E+02  0.00000000000E+00 0. -1.
         11    1    1    2    0    0 -0.11618736054E+03 -0.16175147079E+02  0.19368268708E+02  0.11889603847E+03  0.00000000000E+00 0.  1.
</event>
<event>
 7    1  0.3056346E-009  0.8479897E+02  0.7561462E-02  0.1315959E+00
         -2   -1    0    0    0  501 -0.00000000000E+00  0.00000000000E+00  0.63503465459E+02  0.63503465459E+02  0.00000000000E+00 0.  1.
          2   -1    0    0  501    0  0.00000000000E+00 -0.00000000000E+00 -0.22279880483E+03  0.22279880483E+03  0.00000000000E+00 0. -1.
         25    2    1    2    0    0 -0.40944140142E+02  0.84765491082E+01 -0.11563507700E+03  0.17540911687E+03  0.12509441535E+03 0.  0.
          5    1    3    3  502    0 -0.27672682835E+02  0.34886245418E+02 -0.13338233551E+03  0.14068101265E+03  0.41800000000E+01 0.  1.
         -5    1    3    3    0  502 -0.13271457306E+02 -0.26409696310E+02  0.17747258509E+02  0.34728104221E+02  0.41800000000E+01 0.  1.
        -11    1    1    2    0    0 -0.18842486055E+02  0.21126246142E+02  0.44303095604E+01  0.28652839294E+02  0.00000000000E+00 0.  1.
         11    1    1    2    0    0  0.59786626197E+02 -0.29602795250E+02 -0.48090571937E+02  0.82240314128E+02  0.00000000000E+00 0. -1.
</event>
<event>
 7    1  0.3056346E-009  0.1081461E+03  0.7561462E-02  0.1264042E+00
          2   -1    0    0  501    0  0.00000000000E+00  0.00000000000E+00  0.13130932733E+03  0.13130932733E+03  0.00000000000E+00 0. -1.
         -2   -1    0    0    0  501 -0.00000000000E+00 -0.00000000000E+00 -0.96951515776E+02  0.96951515776E+02  0.00000000000E+00 0.  1.
         25    2    1    2    0    0  0.99696539159E+01 -0.14481783307E+01  0.45474815166E+02  0.13348011127E+03  0.12508992793E+03 0.  0.
          5    1    3    3  502    0  0.65987350640E+02  0.87048101534E+01  0.13470787617E+02  0.68037039055E+02  0.41800000000E+01 0. -1.
         -5    1    3    3    0  502 -0.56017696725E+02 -0.10152988484E+02  0.32004027549E+02  0.65443072214E+02  0.41800000000E+01 0. -1.
        -11    1    1    2    0    0 -0.35058570311E+02  0.35716459026E+02  0.26957774724E+01  0.50120215620E+02  0.00000000000E+00 0.  1.
         11    1    1    2    0    0  0.25088916395E+02 -0.34268280695E+02 -0.13812781083E+02  0.44660516219E+02  0.00000000000E+00 0. -1.
</event>
<event>
 7    1  0.3056346E-009  0.1113502E+03  0.7561462E-02  0.1258090E+00
          2   -1    0    0  501    0  0.00000000000E+00  0.00000000000E+00  0.36109515736E+03  0.36109515736E+03  0.00000000000E+00 0. -1.
         -2   -1    0    0    0  501 -0.00000000000E+00 -0.00000000000E+00 -0.46198219616E+02  0.46198219616E+02  0.00000000000E+00 0.  1.
         25    2    1    2    0    0  0.70876349853E+02 -0.25539061155E+00  0.15841377867E+03  0.21393079657E+03  0.12509171937E+03 0.  0.
          5    1    3    3  502    0  0.79587205631E+02  0.41026274833E+02  0.14309333398E+03  0.16885038690E+03  0.41800000000E+01 0. -1.
         -5    1    3    3    0  502 -0.87108557777E+01 -0.41281665445E+02  0.15320444695E+02  0.45080409669E+02  0.41800000000E+01 0. -1.
        -11    1    1    2    0    0 -0.25207336898E+02  0.27646326014E+02  0.11862094105E+02  0.39248419740E+02  0.00000000000E+00 0.  1.
         11    1    1    2    0    0 -0.45669012955E+02 -0.27390935402E+02  0.14462106497E+03  0.15411416067E+03  0.00000000000E+00 0. -1.
</event>
<event>
 7    1  0.3056346E-009  0.1027893E+03  0.7561462E-02  0.1274537E+00
         -1   -1    0    0    0  501 -0.00000000000E+00  0.00000000000E+00  0.19552707302E+02  0.19552707302E+02  0.00000000000E+00 0.  1.
          1   -1    0    0  501    0  0.00000000000E+00 -0.00000000000E+00 -0.10745859869E+04  0.10745859869E+04  0.00000000000E+00 0. -1.
         25    2    1    2    0    0 -0.93882546325E+02  0.20947983283E+01 -0.63088604749E+03  0.64998714976E+03  0.12509104388E+03 0.  0.
          5    1    3    3  502    0 -0.37849509994E+02 -0.16961277678E+02 -0.53900275087E+03  0.54061234558E+03  0.41800000000E+01 0.  1.
         -5    1    3    3    0  502 -0.56033036330E+02  0.19056076006E+02 -0.91883296615E+02  0.10937480418E+03  0.41800000000E+01 0.  1.
        -11    1    1    2    0    0  0.17569775453E+02 -0.19541378427E+02 -0.21465202907E+02  0.33931068597E+02  0.00000000000E+00 0.  1.
         11    1    1    2    0    0  0.76312770872E+02  0.17446580099E+02 -0.40268202922E+03  0.41022047586E+03  0.00000000000E+00 0. -1.
</event>
<event>
 7    1  0.3056346E-009  0.9620861E+02  0.7561462E-02  0.1288477E+00
         -2   -1    0    0    0  501 -0.00000000000E+00  0.00000000000E+00  0.28623380154E+02  0.28623380154E+02  0.00000000000E+00 0.  1.
          2   -1    0    0  501    0  0.00000000000E+00 -0.00000000000E+00 -0.63895745134E+03  0.63895745134E+03  0.00000000000E+00 0. -1.
         25    2    1    2    0    0  0.66009329437E+01  0.79116629689E+02 -0.35601534192E+03  0.38561146849E+03  0.12508504123E+03 0.  0.
          5    1    3    3  502    0 -0.31121338153E+01 -0.13839113974E+02 -0.22017776596E+03  0.22067380333E+03  0.41800000000E+01 0. -1.
         -5    1    3    3    0  502  0.97130667590E+01  0.92955743663E+02 -0.13583757596E+03  0.16493766516E+03  0.41800000000E+01 0. -1.
        -11    1    1    2    0    0  0.10730661894E+02 -0.37171833354E+02 -0.20496913320E+02  0.43783738479E+02  0.00000000000E+00 0.  1.
         11    1    1    2    0    0 -0.17331594838E+02 -0.41944796335E+02 -0.23382181595E+03  0.23818562453E+03  0.00000000000E+00 0. -1.
</event>
<event>
 7    1  0.3056346E-009  0.9977161E+02  0.7561462E-02  0.1280777E+00
         -1   -1    0    0    0  501 -0.00000000000E+00  0.00000000000E+00  0.17417156475E+03  0.17417156475E+03  0.00000000000E+00 0.  1.
          1   -1    0    0  501    0  0.00000000000E+00 -0.00000000000E+00 -0.75157483991E+02  0.75157483991E+02  0.00000000000E+00 0. -1.
         25    2    1    2    0    0 -0.25134277673E+02 -0.31414384596E+02  0.49942062906E+02  0.14057115197E+03  0.12508974237E+03 0.  0.
          5    1    3    3  502    0 -0.59115272669E+02 -0.44391682226E+02 -0.53686257172E+01  0.74239689221E+02  0.41800000000E+01 0. -1.
         -5    1    3    3    0  502  0.33980994996E+02  0.12977297630E+02  0.55310688623E+02  0.66331462751E+02  0.41800000000E+01 0. -1.
        -11    1    1    2    0    0  0.54035467509E+02  0.17429922804E+02  0.51372655421E+02  0.76568816648E+02  0.00000000000E+00 0.  1.
         11    1    1    2    0    0 -0.28901189837E+02  0.13984461791E+02 -0.23006375700E+01  0.32189080117E+02  0.00000000000E+00 0. -1.
</event>
<event>
 7    1  0.3056346E-009  0.2595199E+03  0.7561462E-02  0.1107432E+00
          2   -1    0    0  501    0  0.00000000000E+00  0.00000000000E+00  0.21672216865E+04  0.21672216865E+04  0.00000000000E+00 0. -1.
         -2   -1    0    0    0  501 -0.00000000000E+00 -0.00000000000E+00 -0.35027681812E+02  0.35027681812E+02  0.00000000000E+00 0.  1.
         25    2    1    2    0    0 -0.18098657778E+02 -0.25154316342E+03  0.98877140530E+03  0.10280649716E+04  0.12508864596E+03 0.  0.
          5    1    3    3  502    0  0.17055621877E+01 -0.13807505978E+03  0.30743098775E+03  0.33704438239E+03  0.41800000000E+01 0.  1.
         -5    1    3    3    0  502 -0.19804219965E+02 -0.11346810364E+03  0.68134041756E+03  0.69102058918E+03  0.41800000000E+01 0.  1.
        -11    1    1    2    0    0 -0.28864437314E+02  0.16168459123E+03  0.64771038615E+03  0.66820940363E+03  0.00000000000E+00 0.  1.
         11    1    1    2    0    0  0.46963095091E+02  0.89858572195E+02  0.49571221320E+03  0.50597499307E+03  0.00000000000E+00 0. -1.
</event>
<event>
 7    1  0.3056346E-009  0.1056667E+03  0.7561462E-02  0.1268812E+00
          1   -1    0    0  501    0  0.00000000000E+00  0.00000000000E+00  0.40165098976E+02  0.40165098976E+02  0.00000000000E+00 0. -1.
         -1   -1    0    0    0  501 -0.00000000000E+00 -0.00000000000E+00 -0.29715749000E+03  0.29715749000E+03  0.00000000000E+00 0.  1.
         25    2    1    2    0    0  0.57208152373E+01  0.11564836728E+02 -0.15738344022E+03  0.20145681753E+03  0.12509527928E+03 0.  0.
          5    1    3    3  502    0  0.36052704952E+02 -0.45338860748E+02 -0.52628305036E+02  0.78374873009E+02  0.41800000000E+01 0. -1.
         -5    1    3    3    0  502 -0.30331889714E+02  0.56903697476E+02 -0.10475513518E+03  0.12308194452E+03  0.41800000000E+01 0. -1.
        -11    1    1    2    0    0  0.12419660505E+02 -0.47116659844E+02 -0.73457156494E+02  0.88148632673E+02  0.00000000000E+00 0.  1.
         11    1    1    2    0    0 -0.18140475742E+02  0.35551823116E+02 -0.26151794312E+02  0.47717138774E+02  0.00000000000E+00 0. -1.
</event>
<event>
 7    1  0.3056346E-009  0.1168447E+03  0.7561462E-02  0.1248395E+00
         -2   -1    0    0    0  501 -0.00000000000E+00  0.00000000000E+00  0.25734835070E+03  0.25734835070E+03  0.00000000000E+00 0.  1.
          2   -1    0    0  501    0  0.00000000000E+00 -0.00000000000E+00 -0.80763794888E+02  0.80763794888E+02  0.00000000000E+00 0. -1.
         25    2    1    2    0    0  0.17234127207E+02  0.93307602154E+02  0.91694109380E+02  0.18182314398E+03  0.12509405354E+03 0.  0.
          5    1    3    3  502    0 -0.52481856584E+01  0.70094767909E+02  0.11968780866E+03  0.13886491235E+03  0.41800000000E+01 0. -1.
         -5    1    3    3    0  502  0.22482312865E+02  0.23212834245E+02 -0.27993699276E+02  0.42958231628E+02  0.41800000000E+01 0. -1.
        -11    1    1    2    0    0 -0.35829384073E+02 -0.10347042947E+03  0.76106384994E+02  0.13334937711E+03  0.00000000000E+00 0.  1.
         11    1    1    2    0    0  0.18595256867E+02  0.10162827319E+02  0.87840614410E+01  0.22939624506E+02  0.00000000000E+00 0. -1.
</event>
<event>
 7    1  0.3056346E-009  0.7510710E+02  0.7561462E-02  0.1343540E+00
          2   -1    0    0  501    0  0.00000000000E+00  0.00000000000E+00  0.28746252641E+03  0.28746252641E+03  0.00000000000E+00 0. -1.
         -2   -1    0    0    0  501 -0.00000000000E+00 -0.00000000000E+00 -0.52174717265E+02  0.52174717265E+02  0.00000000000E+00 0.  1.
         25    2    1    2    0    0 -0.24419158579E+02 -0.46434240233E+02  0.16407260729E+03  0.21288247758E+03  0.12508674921E+03 0.  0.
          5    1    3    3  502    0 -0.24881203102E+02 -0.36189549736E+01 -0.14415880709E+02  0.29282437049E+02  0.41800000000E+01 0. -1.
         -5    1    3    3    0  502  0.46204452334E+00 -0.42815285260E+02  0.17848848800E+03  0.18360004053E+03  0.41800000000E+01 0. -1.
        -11    1    1    2    0    0  0.44385051412E+02  0.20274803383E+02  0.54655407605E+00  0.48799581581E+02  0.00000000000E+00 0.  1.
         11    1    1    2    0    0 -0.19965892833E+02  0.26159436850E+02  0.70668647780E+02  0.77955184510E+02  0.00000000000E+00 0. -1.
</event>
<event>
 7    1  0.3056346E-009  0.1530314E+03  0.7561462E-02  0.1196797E+00
          4   -1    0    0  501    0  0.00000000000E+00  0.00000000000E+00  0.83873468629E+03  0.83873468629E+03  0.00000000000E+00 0. -1.
         -4   -1    0    0    0  501 -0.00000000000E+00 -0.00000000000E+00 -0.39189368795E+02  0.39189368795E+02  0.00000000000E+00 0.  1.
         25    2    1    2    0    0 -0.11878531202E+03 -0.29431269251E+02  0.60818283748E+03  0.63285912799E+03  0.12509261412E+03 0.  0.
          5    1    3    3  502    0 -0.68200717952E+02 -0.64656265993E+02  0.21262075292E+03  0.23250124222E+03  0.41800000000E+01 0. -1.
         -5    1    3    3    0  502 -0.50584594073E+02  0.35224996742E+02  0.39556208457E+03  0.40035788577E+03  0.41800000000E+01 0. -1.
        -11    1    1    2    0    0  0.54166600732E+02  0.58173708520E+02  0.12468206874E+03  0.14786419196E+03  0.00000000000E+00 0. -1.
         11    1    1    2    0    0  0.64618711293E+02 -0.28742439269E+02  0.66680411272E+02  0.97200735140E+02  0.00000000000E+00 0.  1.
</event>
<event>
 7    1  0.3056346E-009  0.1930670E+03  0.7561462E-02  0.1155724E+00
          2   -1    0    0  501    0  0.00000000000E+00  0.00000000000E+00  0.11751725377E+04  0.11751725377E+04  0.00000000000E+00 0. -1.
         -2   -1    0    0    0  501 -0.00000000000E+00 -0.00000000000E+00 -0.38972197484E+02  0.38972197484E+02  0.00000000000E+00 0.  1.
         25    2    1    2    0    0 -0.79466275898E+02  0.15444639035E+03  0.47913733247E+03  0.52477426283E+03  0.12508743766E+03 0.  0.
          5    1    3    3  502    0 -0.86365514394E+02  0.14643121320E+03  0.48354659290E+03  0.51257768405E+03  0.41800000000E+01 0. -1.
         -5    1    3    3    0  502  0.68992384962E+01  0.80151771496E+01 -0.44092604252E+01  0.12196578785E+02  0.41800000000E+01 0. -1.
        -11    1    1    2    0    0  0.67903480262E+02 -0.21451775437E+02  0.29521869229E+03  0.30368591930E+03  0.00000000000E+00 0. -1.
         11    1    1    2    0    0  0.11562795636E+02 -0.13299461492E+03  0.36184431541E+03  0.38568455302E+03  0.00000000000E+00 0.  1.
</event>
<event>
 7    1  0.3056346E-009  0.1388496E+03  0.7561462E-02  0.1214885E+00
          1   -1    0    0  501    0  0.00000000000E+00  0.00000000000E+00  0.24081220918E+02  0.24081220918E+02  0.00000000000E+00 0. -1.
         -1   -1    0    0    0  501 -0.00000000000E+00 -0.00000000000E+00 -0.10773817593E+04  0.10773817593E+04  0.00000000000E+00 0.  1.
         25    2    1    2    0    0  0.33237061165E+02 -0.10646090493E+03 -0.70864889525E+03  0.72819602991E+03  0.12509026630E+03 0.  0.
          5    1    3    3  502    0  0.46875005651E+02  0.35435581313E+01 -0.11560213233E+03  0.12486452001E+03  0.41800000000E+01 0. -1.
         -5    1    3    3    0  502 -0.13637944485E+02 -0.11000446307E+03 -0.59304676292E+03  0.60333150990E+03  0.41800000000E+01 0. -1.
        -11    1    1    2    0    0 -0.10354768942E+02  0.91846858769E+02 -0.32940776906E+03  0.34212942730E+03  0.00000000000E+00 0.  1.
         11    1    1    2    0    0 -0.22882292224E+02  0.14614046166E+02 -0.15243874077E+02  0.31137523017E+02  0.00000000000E+00 0. -1.
</event>
<event>
 7    1  0.3056346E-009  0.1625744E+03  0.7561462E-02  0.1185821E+00
         -2   -1    0    0    0  501 -0.00000000000E+00  0.00000000000E+00  0.21036307443E+03  0.21036307443E+03  0.00000000000E+00 0.  1.
          2   -1    0    0  501    0  0.00000000000E+00 -0.00000000000E+00 -0.14225547472E+03  0.14225547472E+03  0.00000000000E+00 0. -1.
         25    2    1    2    0    0 -0.25487241383E+01  0.13229188058E+03  0.56808982156E+02  0.19073939446E+03  0.12508644405E+03 0.  0.
          5    1    3    3  502    0  0.38794416668E+01 -0.17332865799E+02  0.34822566160E+02  0.39313634002E+02  0.41800000000E+01 0.  1.
         -5    1    3    3    0  502 -0.64281658051E+01  0.14962474637E+03  0.21986415996E+02  0.15142576046E+03  0.41800000000E+01 0.  1.
        -11    1    1    2    0    0 -0.39691112011E+02 -0.84111804817E+02  0.25103227609E+02  0.96334584229E+02  0.00000000000E+00 0.  1.
         11    1    1    2    0    0  0.42239836150E+02 -0.48180075759E+02 -0.13804610054E+02  0.65544570460E+02  0.00000000000E+00 0. -1.
</event>
<event>
 7    1  0.3056346E-009  0.6645806E+02  0.7561462E-02  0.1372569E+00
          2   -1    0    0  501    0  0.00000000000E+00  0.00000000000E+00  0.17043330908E+02  0.17043330908E+02  0.00000000000E+00 0. -1.
         -2   -1    0    0    0  501 -0.00000000000E+00 -0.00000000000E+00 -0.72003929024E+03  0.72003929024E+03  0.00000000000E+00 0.  1.
         25    2    1    2    0    0 -0.14686554374E+02 -0.15536564564E+02 -0.43181981416E+03  0.45008662264E+03  0.12511009657E+03 0.  0.
          5    1    3    3  502    0 -0.24801003041E+02 -0.25862197959E+02 -0.27182662659E+02  0.45169819397E+02  0.41800000000E+01 0. -1.
         -5    1    3    3    0  502  0.10114448667E+02  0.10325633395E+02 -0.40463715150E+03  0.40491680324E+03  0.41800000000E+01 0. -1.
        -11    1    1    2    0    0 -0.31224537575E+02  0.17588850159E+02 -0.19310801907E+03  0.19640531160E+03  0.00000000000E+00 0.  1.
         11    1    1    2    0    0  0.45911091949E+02 -0.20522855944E+01 -0.78068126107E+02  0.90590686905E+02  0.00000000000E+00 0. -1.
</event>
<event>
 7    1  0.3056346E-009  0.9896938E+02  0.7561462E-02  0.1282478E+00
          2   -1    0    0  501    0  0.00000000000E+00  0.00000000000E+00  0.24129229227E+03  0.24129229227E+03  0.00000000000E+00 0. -1.
         -2   -1    0    0    0  501 -0.00000000000E+00 -0.00000000000E+00 -0.10703113019E+03  0.10703113019E+03  0.00000000000E+00 0.  1.
         25    2    1    2    0    0  0.27621782220E+02 -0.54578812436E+02 -0.39990125203E+02  0.14487513306E+03  0.12509110458E+03 0.  0.
          5    1    3    3  502    0 -0.84139023748E+01 -0.75939227099E+02  0.12559242424E+02  0.77542033349E+02  0.41800000000E+01 0. -1.
         -5    1    3    3    0  502  0.36035684595E+02  0.21360414663E+02 -0.52549367627E+02  0.67333099711E+02  0.41800000000E+01 0. -1.
        -11    1    1    2    0    0  0.79259821779E+01  0.40203531752E+02  0.22134997397E+02  0.46573632762E+02  0.00000000000E+00 0.  1.
         11    1    1    2    0    0 -0.35547764398E+02  0.14375280684E+02  0.15211628988E+03  0.15687465664E+03  0.00000000000E+00 0. -1.
</event>
<event>
 7    1  0.3056346E-009  0.9142808E+02  0.7561462E-02  0.1299430E+00
         -2   -1    0    0    0  501 -0.00000000000E+00  0.00000000000E+00  0.80804777111E+02  0.80804777111E+02  0.00000000000E+00 0.  1.
          2   -1    0    0  501    0  0.00000000000E+00 -0.00000000000E+00 -0.15913571145E+03  0.15913571145E+03  0.00000000000E+00 0. -1.
         25    2    1    2    0    0 -0.17054124737E+02 -0.51553520919E+01 -0.14172821242E+02  0.12714278056E+03  0.12508795689E+03 0.  0.
          5    1    3    3  502    0 -0.29972215739E+02  0.40603591670E+02 -0.47098430794E+02  0.69157211888E+02  0.41800000000E+01 0.  1.
         -5    1    3    3    0  502  0.12918091002E+02 -0.45758943762E+02  0.32925609552E+02  0.57985568668E+02  0.41800000000E+01 0.  1.
        -11    1    1    2    0    0  0.50231394362E+02  0.91834399546E+01 -0.14756977844E+02  0.53153522405E+02  0.00000000000E+00 0.  1.
         11    1    1    2    0    0 -0.33177269625E+02 -0.40280878627E+01 -0.49401135250E+02  0.59644185598E+02  0.00000000000E+00 0. -1.
</event>
<event>
 7    1  0.3056346E-009  0.1324980E+03  0.7561462E-02  0.1223795E+00
          1   -1    0    0  501    0  0.00000000000E+00  0.00000000000E+00  0.50950700173E+03  0.50950700173E+03  0.00000000000E+00 0. -1.
         -1   -1    0    0    0  501 -0.00000000000E+00 -0.00000000000E+00 -0.66458429099E+02  0.66458429099E+02  0.00000000000E+00 0.  1.
         25    2    1    2    0    0  0.61328723999E+00  0.12319877991E+03  0.10225092059E+03  0.20317697728E+03  0.12508923952E+03 0.  0.
          5    1    3    3  502    0 -0.26852211188E+02  0.86038545296E+02  0.12283999847E+03  0.15241656783E+03  0.41800000000E+01 0.  1.
         -5    1    3    3    0  502  0.27465498428E+02  0.37160234609E+02 -0.20589077881E+02  0.50760409455E+02  0.41800000000E+01 0.  1.
        -11    1    1    2    0    0  0.17584542791E+02 -0.68648604628E+02  0.85284363419E+02  0.11088403720E+03  0.00000000000E+00 0.  1.
         11    1    1    2    0    0 -0.18197830031E+02 -0.54550175277E+02  0.25551328862E+03  0.26190441635E+03  0.00000000000E+00 0. -1.
</event>
<event>
 7    1  0.3056346E-009  0.1839108E+03  0.7561462E-02  0.1164071E+00
         -2   -1    0    0    0  501 -0.00000000000E+00  0.00000000000E+00  0.33704810147E+03  0.33704810147E+03  0.00000000000E+00 0.  1.
          2   -1    0    0  501    0  0.00000000000E+00 -0.00000000000E+00 -0.33613878920E+03  0.33613878920E+03  0.00000000000E+00 0. -1.
         25    2    1    2    0    0  0.11859608020E+03 -0.95714934249E+02  0.27914586696E+03  0.34175446074E+03  0.12508923823E+03 0.  0.
          5    1    3    3  502    0 -0.16547286391E+02 -0.51592481355E+02  0.89441580108E+02  0.10465593854E+03  0.41800000000E+01 0.  1.
         -5    1    3    3    0  502  0.13514336659E+03 -0.44122452894E+02  0.18970428685E+03  0.23709852221E+03  0.41800000000E+01 0.  1.
        -11    1    1    2    0    0 -0.57927694580E+02  0.94177062347E+02 -0.12649897163E+03  0.16800871018E+03  0.00000000000E+00 0.  1.
         11    1    1    2    0    0 -0.60668385618E+02  0.15378719023E+01 -0.15173758305E+03  0.16342371974E+03  0.00000000000E+00 0. -1.
</event>
<event>
 7    1  0.3056346E-009  0.9774418E+02  0.7561462E-02  0.1285112E+00
          1   -1    0    0  501    0  0.00000000000E+00  0.00000000000E+00  0.10691288651E+03  0.10691288651E+03  0.00000000000E+00 0. -1.
         -1   -1    0    0    0  501 -0.00000000000E+00 -0.00000000000E+00 -0.10856449780E+03  0.10856449780E+03  0.00000000000E+00 0.  1.
         25    2    1    2    0    0  0.15161603965E+02 -0.67100481098E+01 -0.13706660442E+02  0.12689835267E+03  0.12506166634E+03 0.  0.
          5    1    3    3  502    0  0.41304097433E+02 -0.45009418626E+02 -0.40277093104E+02  0.73291151299E+02  0.41800000000E+01 0.  1.
         -5    1    3    3    0  502 -0.26142493468E+02  0.38299370517E+02  0.26570432663E+02  0.53607201368E+02  0.41800000000E+01 0.  1.
        -11    1    1    2    0    0 -0.17134882893E+02  0.45622911763E+02  0.82912793629E+01  0.49434801537E+02  0.00000000000E+00 0.  1.
         11    1    1    2    0    0  0.19732789281E+01 -0.38912863653E+02  0.37637697896E+01  0.39144230104E+02  0.00000000000E+00 0. -1.
</event>
<event>
 7    1  0.3056346E-009  0.6784867E+02  0.7561462E-02  0.1367565E+00
          1   -1    0    0  501    0  0.00000000000E+00  0.00000000000E+00  0.84159110657E+02  0.84159110657E+02  0.00000000000E+00 0. -1.
         -1   -1    0    0    0  501 -0.00000000000E+00 -0.00000000000E+00 -0.16020057929E+03  0.16020057929E+03  0.00000000000E+00 0.  1.
         25    2    1    2    0    0 -0.14554736783E+02 -0.30117550890E+01 -0.91975412437E+02  0.15597327101E+03  0.12508906325E+03 0.  0.
          5    1    3    3  502    0  0.12003276920E+02  0.13821146115E+02 -0.11516184729E+03  0.11668258743E+03  0.41800000000E+01 0. -1.
         -5    1    3    3    0  502 -0.26558013702E+02 -0.16832901204E+02  0.23186434857E+02  0.39290683580E+02  0.41800000000E+01 0. -1.
        -11    1    1    2    0    0  0.47622243130E+02 -0.11652822696E+02  0.42612159267E+00  0.49029051562E+02  0.00000000000E+00 0.  1.
         11    1    1    2    0    0 -0.33067506347E+02  0.14664577785E+02  0.15507822206E+02  0.39357367381E+02  0.00000000000E+00 0. -1.
</event>
<event>
 7    1  0.3056346E-009  0.1144740E+03  0.7561462E-02  0.1252502E+00
         -2   -1    0    0    0  501 -0.00000000000E+00  0.00000000000E+00  0.29392256370E+02  0.29392256370E+02  0.00000000000E+00 0.  1.
          2   -1    0    0  501    0  0.00000000000E+00 -0.00000000000E+00 -0.58945511373E+03  0.58945511373E+03  0.00000000000E+00 0. -1.
         25    2    1    2    0    0 -0.34739617785E+01  0.57152345918E+02 -0.20533225737E+03  0.24715723941E+03  0.12508759339E+03 0.  0.
          5    1    3    3  502    0 -0.28785161656E+02  0.79099365992E+02 -0.75978339797E+02  0.11347015357E+03  0.41800000000E+01 0.  1.
         -5    1    3    3    0  502  0.25311199877E+02 -0.21947020074E+02 -0.12935391757E+03  0.13368708584E+03  0.41800000000E+01 0.  1.
        -11    1    1    2    0    0  0.45479796866E+02 -0.51202083892E+02 -0.22604974393E+03  0.23619600346E+03  0.00000000000E+00 0.  1.
         11    1    1    2    0    0 -0.42005835088E+02 -0.59502620256E+01 -0.12868085606E+03  0.13549412724E+03  0.00000000000E+00 0. -1.
</event>
<event>
 7    1  0.3056346E-009  0.8532609E+02  0.7561462E-02  0.1314582E+00
         -1   -1    0    0    0  501 -0.00000000000E+00  0.00000000000E+00  0.16387816841E+03  0.16387816841E+03  0.00000000000E+00 0.  1.
          1   -1    0    0  501    0  0.00000000000E+00 -0.00000000000E+00 -0.81853378912E+02  0.81853378912E+02  0.00000000000E+00 0. -1.
         25    2    1    2    0    0 -0.12845247245E+02 -0.28906232483E+02  0.18848377989E+02  0.13039652329E+03  0.12508965297E+03 0.  0.
          5    1    3    3  502    0  0.90751856334E+01  0.43785288375E+02 -0.14741350524E+02  0.47268279931E+02  0.41800000000E+01 0.  1.
         -5    1    3    3    0  502 -0.21920432879E+02 -0.72691520858E+02  0.33589728514E+02  0.83128243358E+02  0.41800000000E+01 0.  1.
        -11    1    1    2    0    0  0.25372312026E+02  0.26964787327E+02 -0.12135943531E+02  0.38963253182E+02  0.00000000000E+00 0. -1.
         11    1    1    2    0    0 -0.12527064781E+02  0.19414451553E+01  0.75312355038E+02  0.76371770850E+02  0.00000000000E+00 0.  1.
</event>
<event>
 7    1  0.3056346E-009  0.1585126E+03  0.7561462E-02  0.1190386E+00
         -3   -1    0    0    0  501 -0.00000000000E+00  0.00000000000E+00  0.14545084000E+03  0.14545084000E+03  0.00000000000E+00 0.  1.
          3   -1    0    0  501    0  0.00000000000E+00 -0.00000000000E+00 -0.17943187184E+03  0.17943187184E+03  0.00000000000E+00 0. -1.
         25    2    1    2    0    0 -0.72586588241E+02 -0.97232505598E+02 -0.12671246786E+02  0.17473166009E+03  0.12509044570E+03 0.  0.
          5    1    3    3  502    0 -0.53005903975E+02  0.16752717418E+02 -0.18819534254E+02  0.58838139558E+02  0.41800000000E+01 0. -1.
         -5    1    3    3    0  502 -0.19580684266E+02 -0.11398522302E+03  0.61482874683E+01  0.11589352053E+03  0.41800000000E+01 0. -1.
        -11    1    1    2    0    0  0.65410401964E+02  0.20596690903E+02  0.51233145717E+01  0.68767672008E+02  0.00000000000E+00 0.  1.
         11    1    1    2    0    0  0.71761862765E+01  0.76635814695E+02 -0.26433099622E+02  0.81383379747E+02  0.00000000000E+00 0. -1.
</event>
<event>
 7    1  0.3056346E-009  0.1045620E+03  0.7561462E-02  0.1270985E+00
          1   -1    0    0  501    0  0.00000000000E+00  0.00000000000E+00  0.30579246363E+03  0.30579246363E+03  0.00000000000E+00 0. -1.
         -1   -1    0    0    0  501 -0.00000000000E+00 -0.00000000000E+00 -0.66252464797E+02  0.66252464797E+02  0.00000000000E+00 0.  1.
         25    2    1    2    0    0  0.56036147537E+02 -0.15019836199E+02  0.20555338531E+03  0.24751846880E+03  0.12509017898E+03 0.  0.
          5    1    3    3  502    0 -0.26323944213E+02 -0.45640419167E+01  0.13858498799E+01  0.27077176689E+02  0.41800000000E+01 0.  1.
         -5    1    3    3    0  502  0.82360091750E+02 -0.10455794282E+02  0.20416753543E+03  0.22044129211E+03  0.41800000000E+01 0.  1.
        -11    1    1    2    0    0 -0.76505878294E+02  0.64915788204E+01  0.54627977698E+02  0.94231130506E+02  0.00000000000E+00 0. -1.
         11    1    1    2    0    0  0.20469730757E+02  0.85282573785E+01 -0.20641364175E+02  0.30295329115E+02  0.00000000000E+00 0.  1.
</event>
<event>
 7    1  0.3056346E-009  0.1385876E+03  0.7561462E-02  0.1215242E+00
          2   -1    0    0  501    0  0.00000000000E+00  0.00000000000E+00  0.21154287669E+03  0.21154287669E+03  0.00000000000E+00 0. -1.
         -2   -1    0    0    0  501 -0.00000000000E+00 -0.00000000000E+00 -0.11201832144E+03  0.11201832144E+03  0.00000000000E+00 0.  1.
         25    2    1    2    0    0 -0.52630223354E+02 -0.90992385083E+02  0.25451894116E+02  0.16536283589E+03  0.12509002369E+03 0.  0.
          5    1    3    3  502    0 -0.28212296888E+02 -0.12056081158E+03  0.11822146604E+02  0.12445110902E+03  0.41800000000E+01 0.  1.
         -5    1    3    3    0  502 -0.24417926466E+02  0.29568426499E+02  0.13629747512E+02  0.40911726874E+02  0.41800000000E+01 0.  1.
        -11    1    1    2    0    0  0.29677288102E+02  0.11259559572E+02 -0.16159221615E+02  0.35617966731E+02  0.00000000000E+00 0.  1.
         11    1    1    2    0    0  0.22952935252E+02  0.79732825511E+02  0.90231882745E+02  0.12258039551E+03  0.00000000000E+00 0. -1.
</event>
<event>
 7    1  0.3056346E-009  0.1055845E+03  0.7561462E-02  0.1268972E+00
          4   -1    0    0  501    0  0.00000000000E+00  0.00000000000E+00  0.15017893075E+03  0.15017893075E+03  0.00000000000E+00 0. -1.
         -4   -1    0    0    0  501 -0.00000000000E+00 -0.00000000000E+00 -0.22316740498E+03  0.22316740498E+03  0.00000000000E+00 0.  1.
         25    2    1    2    0    0  0.32065737569E+02  0.32775331231E+02 -0.18095845384E+03  0.22471282555E+03  0.12508980009E+03 0.  0.
          5    1    3    3  502    0  0.71544460807E+01  0.67033329650E+02 -0.42363902531E+02  0.79729706010E+02  0.41800000000E+01 0.  1.
         -5    1    3    3    0  502  0.24911291489E+02 -0.34257998419E+02 -0.13859455131E+03  0.14498311954E+03  0.41800000000E+01 0.  1.
        -11    1    1    2    0    0 -0.58489214853E+02  0.60101583126E+00  0.51630154843E+02  0.78019371718E+02  0.00000000000E+00 0. -1.
         11    1    1    2    0    0  0.26423477283E+02 -0.33376347063E+02  0.56339824772E+02  0.70614138459E+02  0.00000000000E+00 0.  1.
</event>
<event>
 7    1  0.3056346E-009  0.1087899E+03  0.7561462E-02  0.1262827E+00
         -2   -1    0    0    0  501 -0.00000000000E+00  0.00000000000E+00  0.99863276795E+02  0.99863276795E+02  0.00000000000E+00 0.  1.
          2   -1    0    0  501    0  0.00000000000E+00 -0.00000000000E+00 -0.24363087265E+03  0.24363087265E+03  0.00000000000E+00 0. -1.
         25    2    1    2    0    0 -0.23593862821E+02  0.84964618753E+02 -0.50153603160E+01  0.15312803338E+03  0.12508950381E+03 0.  0.
          5    1    3    3  502    0 -0.16155037990E+02  0.11632562157E+02  0.54581155956E+02  0.58248405474E+02  0.41800000000E+01 0. -1.
         -5    1    3    3    0  502 -0.74388248310E+01  0.73332056596E+02 -0.59596516272E+02  0.94879627904E+02  0.41800000000E+01 0. -1.
        -11    1    1    2    0    0 -0.31744403479E+02 -0.17829117188E+02 -0.72084204779E+02  0.80757149223E+02  0.00000000000E+00 0. -1.
         11    1    1    2    0    0  0.55338266299E+02 -0.67135501564E+02 -0.66668030760E+02  0.10960896684E+03  0.00000000000E+00 0.  1.
</event>
<event>
 7    1  0.3056346E-009  0.1162448E+03  0.7561462E-02  0.1249424E+00
          2   -1    0    0  501    0  0.00000000000E+00  0.00000000000E+00  0.73379632117E+03  0.73379632117E+03  0.00000000000E+00 0. -1.
         -2   -1    0    0    0  501 -0.00000000000E+00 -0.00000000000E+00 -0.54166096783E+02  0.54166096783E+02  0.00000000000E+00 0.  1.
         25    2    1    2    0    0 -0.37919332807E+02 -0.78925349780E+02  0.63666488248E+03  0.65471882337E+03  0.12508988147E+03 0.  0.
          5    1    3    3  502    0  0.29019152604E+02  0.10626566445E+02  0.25779375561E+03  0.25967311753E+03  0.41800000000E+01 0. -1.
         -5    1    3    3    0  502 -0.66938485411E+02 -0.89551916226E+02  0.37887112687E+03  0.39504570584E+03  0.41800000000E+01 0. -1.
        -11    1    1    2    0    0  0.16822331390E+02  0.16646157841E+02 -0.27890033647E+02  0.36577853697E+02  0.00000000000E+00 0.  1.
         11    1    1    2    0    0  0.21097001418E+02  0.62279191939E+02  0.70855375556E+02  0.96665740894E+02  0.00000000000E+00 0. -1.
</event>
<event>
 7    1  0.3056346E-009  0.1029560E+03  0.7561462E-02  0.1274200E+00
         -1   -1    0    0    0  501 -0.00000000000E+00  0.00000000000E+00  0.11165850564E+02  0.11165850564E+02  0.00000000000E+00 0.  1.
          1   -1    0    0  501    0  0.00000000000E+00 -0.00000000000E+00 -0.12256163403E+04  0.12256163403E+04  0.00000000000E+00 0. -1.
         25    2    1    2    0    0  0.26266112969E+02 -0.23304219052E+02 -0.84783341190E+03  0.85773076716E+03  0.12509028450E+03 0.  0.
          5    1    3    3  502    0  0.49078401800E+02 -0.63571606465E+02 -0.62107035647E+03  0.62625545807E+03  0.41800000000E+01 0.  1.
         -5    1    3    3    0  502 -0.22812288831E+02  0.40267387412E+02 -0.22676305543E+03  0.23147530909E+03  0.41800000000E+01 0.  1.
        -11    1    1    2    0    0  0.19132141869E+02 -0.11047309862E+02 -0.27921835185E+02  0.35604926454E+02  0.00000000000E+00 0.  1.
         11    1    1    2    0    0 -0.45398254838E+02  0.34351528914E+02 -0.33869524268E+03  0.34344649729E+03  0.00000000000E+00 0. -1.
</event>
<event>
 7    1  0.3056346E-009  0.3194071E+03  0.7561462E-02  0.1075922E+00
         -2   -1    0    0    0  501 -0.00000000000E+00  0.00000000000E+00  0.69941221905E+02  0.69941221905E+02  0.00000000000E+00 0.  1.
          2   -1    0    0  501    0  0.00000000000E+00 -0.00000000000E+00 -0.16032084115E+04  0.16032084115E+04  0.00000000000E+00 0. -1.
         25    2    1    2    0    0 -0.17275876394E+03 -0.26169574448E+03 -0.89983770594E+03  0.96108524114E+03  0.12508673197E+03 0.  0.
          5    1    3    3  502    0 -0.49171299697E+02 -0.34809019213E+02 -0.32887627274E+03  0.33437487899E+03  0.41800000000E+01 0. -1.
         -5    1    3    3    0  502 -0.12358746425E+03 -0.22688672526E+03 -0.57096143320E+03  0.62671036214E+03  0.41800000000E+01 0. -1.
        -11    1    1    2    0    0  0.13496357313E+03  0.14839872486E+03 -0.45613330679E+03  0.49829202399E+03  0.00000000000E+00 0. -1.
         11    1    1    2    0    0  0.37795190814E+02  0.11329701962E+03 -0.17729617684E+03  0.21377236824E+03  0.00000000000E+00 0.  1.
</event>
<event>
 7    1  0.3056346E-009  0.1391748E+03  0.7561462E-02  0.1214444E+00
          2   -1    0    0  501    0  0.00000000000E+00  0.00000000000E+00  0.30538894290E+03  0.30538894290E+03  0.00000000000E+00 0. -1.
         -2   -1    0    0    0  501 -0.00000000000E+00 -0.00000000000E+00 -0.79847102246E+02  0.79847102246E+02  0.00000000000E+00 0.  1.
         25    2    1    2    0    0  0.66663803429E+02  0.81070870874E+02  0.67427730092E+02  0.17666515667E+03  0.12509008756E+03 0.  0.
          5    1    3    3  502    0 -0.12470297019E+02 -0.25863487383E+02  0.42139527079E+01  0.29319926412E+02  0.41800000000E+01 0. -1.
         -5    1    3    3    0  502  0.79134100448E+02  0.10693435826E+03  0.63213777384E+02  0.14734523026E+03  0.41800000000E+01 0. -1.
        -11    1    1    2    0    0 -0.22454436782E+02 -0.65701980053E+02  0.36889268650E+02  0.78624233259E+02  0.00000000000E+00 0.  1.
         11    1    1    2    0    0 -0.44209366647E+02 -0.15368890820E+02  0.12122484191E+03  0.12994665521E+03  0.00000000000E+00 0. -1.
</event>
<event>
 7    1  0.3056346E-009  0.2980982E+03  0.7561462E-02  0.1086195E+00
          2   -1    0    0  501    0  0.00000000000E+00  0.00000000000E+00  0.16042035438E+04  0.16042035438E+04  0.00000000000E+00 0.  1.
         -2   -1    0    0    0  501 -0.00000000000E+00 -0.00000000000E+00 -0.82846866416E+02  0.82846866416E+02  0.00000000000E+00 0. -1.
         25    2    1    2    0    0 -0.11126684069E+03 -0.26804246421E+03  0.32728192117E+03  0.45496081705E+03  0.12509523040E+03 0.  0.
          5    1    3    3  502    0 -0.44606550330E+02 -0.66527395161E+02  0.22090499097E+02  0.83193155906E+02  0.41800000000E+01 0.  1.
         -5    1    3    3    0  502 -0.66660290358E+02 -0.20151506905E+03  0.30519142207E+03  0.37176766114E+03  0.41800000000E+01 0.  1.
        -11    1    1    2    0    0  0.10604718691E+03  0.14042143858E+03  0.69250747261E+03  0.71451437067E+03  0.00000000000E+00 0.  1.
         11    1    1    2    0    0  0.52196537773E+01  0.12762102563E+03  0.50156728362E+03  0.51757522252E+03  0.00000000000E+00 0. -1.
</event>
<event>
 7    1  0.3056346E-009  0.1596506E+03  0.7561462E-02  0.1189092E+00
          2   -1    0    0  501    0  0.00000000000E+00  0.00000000000E+00  0.44610193082E+03  0.44610193082E+03  0.00000000000E+00 0.  1.
         -2   -1    0    0    0  501 -0.00000000000E+00 -0.00000000000E+00 -0.82155623180E+02  0.82155623180E+02  0.00000000000E+00 0. -1.
         25    2    1    2    0    0 -0.15637450394E+03  0.12745721701E+00  0.20507705651E+03  0.28663002273E+03  0.12508864495E+03 0.  0.
          5    1    3    3  502    0 -0.92716055060E+02 -0.12426008920E+02  0.27605009532E+02  0.97622648575E+02  0.41800000000E+01 0.  1.
         -5    1    3    3    0  502 -0.63658448884E+02  0.12553466137E+02  0.17747204698E+03  0.18900737416E+03  0.41800000000E+01 0.  1.
        -11    1    1    2    0    0  0.29346826157E+02 -0.14629327265E+02  0.91316680727E+02  0.97025716182E+02  0.00000000000E+00 0.  1.
         11    1    1    2    0    0  0.12702767779E+03  0.14501870048E+02  0.67552570404E+02  0.14460181509E+03  0.00000000000E+00 0. -1.
</event>
<event>
 7    1  0.3056346E-009  0.1179141E+03  0.7561462E-02  0.1246578E+00
         -2   -1    0    0    0  501 -0.00000000000E+00  0.00000000000E+00  0.76201492920E+03  0.76201492920E+03  0.00000000000E+00 0.  1.
          2   -1    0    0  501    0  0.00000000000E+00 -0.00000000000E+00 -0.36169012196E+02  0.36169012196E+02  0.00000000000E+00 0. -1.
         25    2    1    2    0    0 -0.73908614250E+02 -0.27556165696E+02  0.62756126158E+03  0.64475134206E+03  0.12509728427E+03 0.  0.
          5    1    3    3  502    0 -0.82186881441E+02 -0.62015830693E+02  0.54727606437E+03  0.55689245799E+03  0.41800000000E+01 0. -1.
         -5    1    3    3    0  502  0.82782671910E+01  0.34459664998E+02  0.80285197207E+02  0.87858884070E+02  0.41800000000E+01 0. -1.
        -11    1    1    2    0    0  0.33528261485E+02  0.42418946140E+02  0.96753299034E+01  0.54928347132E+02  0.00000000000E+00 0. -1.
         11    1    1    2    0    0  0.40380352765E+02 -0.14862780445E+02  0.88609325522E+02  0.98504252200E+02  0.00000000000E+00 0.  1.
</event>
<event>
 7    1  0.3056346E-009  0.1311303E+03  0.7561462E-02  0.1225788E+00
          3   -1    0    0  501    0  0.00000000000E+00  0.00000000000E+00  0.58068763899E+02  0.58068763899E+02  0.00000000000E+00 0. -1.
         -3   -1    0    0    0  501 -0.00000000000E+00 -0.00000000000E+00 -0.36314485085E+03  0.36314485085E+03  0.00000000000E+00 0.  1.
         25    2    1    2    0    0  0.21107865611E+02  0.73908178793E+02 -0.11737883548E+03  0.18797251215E+03  0.12509162011E+03 0.  0.
          5    1    3    3  502    0  0.79702648231E+01  0.10108488454E+03 -0.12026551037E+03  0.15736246181E+03  0.41800000000E+01 0. -1.
         -5    1    3    3    0  502  0.13137600788E+02 -0.27176705745E+02  0.28866748883E+01  0.30610050335E+02  0.41800000000E+01 0. -1.
        -11    1    1    2    0    0 -0.42970981849E+02  0.95570911222E+01 -0.10444879740E+03  0.11334634776E+03  0.00000000000E+00 0. -1.
         11    1    1    2    0    0  0.21863116238E+02 -0.83465269916E+02 -0.83248454071E+02  0.11989475484E+03  0.00000000000E+00 0.  1.
</event>
<event>
 7    1  0.3056346E-009  0.1107742E+03  0.7561462E-02  0.1259143E+00
          2   -1    0    0  501    0  0.00000000000E+00  0.00000000000E+00  0.46431746599E+03  0.46431746599E+03  0.00000000000E+00 0. -1.
         -2   -1    0    0    0  501 -0.00000000000E+00 -0.00000000000E+00 -0.37004314203E+02  0.37004314203E+02  0.00000000000E+00 0.  1.
         25    2    1    2    0    0 -0.18537143212E+02 -0.92310820884E+01  0.36591772953E+03  0.38726225816E+03  0.12508970084E+03 0.  0.
          5    1    3    3  502    0 -0.71593161908E+02 -0.83103811640E+01  0.23808844077E+03  0.24879353146E+03  0.41800000000E+01 0. -1.
         -5    1    3    3    0  502  0.53056018696E+02 -0.92070092443E+00  0.12782928875E+03  0.13846872670E+03  0.41800000000E+01 0. -1.
        -11    1    1    2    0    0  0.40130132389E+02  0.41221252375E+02  0.36978742636E+02  0.68388936092E+02  0.00000000000E+00 0.  1.
         11    1    1    2    0    0 -0.21592989177E+02 -0.31990170286E+02  0.24416679628E+02  0.45670585945E+02  0.00000000000E+00 0. -1.
</event>
<event>
 7    1  0.3056346E-009  0.1237117E+03  0.7561462E-02  0.1237097E+00
          3   -1    0    0  501    0  0.00000000000E+00  0.00000000000E+00  0.16813072738E+03  0.16813072738E+03  0.00000000000E+00 0. -1.
         -3   -1    0    0    0  501 -0.00000000000E+00 -0.00000000000E+00 -0.11777830734E+03  0.11777830734E+03  0.00000000000E+00 0.  1.
         25    2    1    2    0    0  0.26277842763E+02 -0.73287807357E+02  0.75271410946E+02  0.16545979158E+03  0.12509807991E+03 0.  0.
          5    1    3    3  502    0  0.29909902572E+02  0.25578148716E+02 -0.23428214314E+01  0.39645998233E+02  0.41800000000E+01 0. -1.
         -5    1    3    3    0  502 -0.36320598093E+01 -0.98865956073E+02  0.77614232377E+02  0.12581379335E+03  0.41800000000E+01 0. -1.
        -11    1    1    2    0    0 -0.23250085683E+02 -0.10124256336E+02 -0.26886880814E+02  0.36959050455E+02  0.00000000000E+00 0. -1.
         11    1    1    2    0    0 -0.30277570798E+01  0.83412063693E+02  0.19678899092E+01  0.83490192677E+02  0.00000000000E+00 0.  1.
</event>
<event>
 7    1  0.3056346E-009  0.2345997E+03  0.7561462E-02  0.1123444E+00
          1   -1    0    0  501    0  0.00000000000E+00  0.00000000000E+00  0.12140110578E+03  0.12140110578E+03  0.00000000000E+00 0.  1.
         -1   -1    0    0    0  501 -0.00000000000E+00 -0.00000000000E+00 -0.10433884514E+04  0.10433884514E+04  0.00000000000E+00 0. -1.
         25    2    1    2    0    0  0.20304066141E+03  0.95794340622E+02 -0.88167371835E+03  0.91836653358E+03  0.12508588447E+03 0.  0.
          5    1    3    3  502    0  0.19489371693E+03  0.80214378516E+02 -0.87342324028E+03  0.89850071591E+03  0.41800000000E+01 0.  1.
         -5    1    3    3    0  502  0.81469444779E+01  0.15579962106E+02 -0.82504780666E+01  0.19865817675E+02  0.41800000000E+01 0.  1.
        -11    1    1    2    0    0 -0.37961356846E+02  0.15750108481E+02  0.68975677147E+01  0.41673816374E+02  0.00000000000E+00 0.  1.
         11    1    1    2    0    0 -0.16507930456E+03 -0.11154444910E+03 -0.47211194963E+02  0.20474920720E+03  0.00000000000E+00 0. -1.
</event>
<event>
 7    1  0.3056346E-009  0.1510719E+03  0.7561462E-02  0.1199162E+00
         -1   -1    0    0    0  501 -0.00000000000E+00  0.00000000000E+00  0.35765900073E+02  0.35765900073E+02  0.00000000000E+00 0.  1.
          1   -1    0    0  501    0  0.00000000000E+00 -0.00000000000E+00 -0.78372395053E+03  0.78372395053E+03  0.00000000000E+00 0. -1.
         25    2    1    2    0    0  0.78230491956E+01  0.12056797826E+03 -0.31213799981E+03  0.35731738628E+03  0.12509095142E+03 0.  0.
          5    1    3    3  502    0  0.43802766341E+02  0.12315558763E+03 -0.19592858717E+03  0.23556626408E+03  0.41800000000E+01 0.  1.
         -5    1    3    3    0  502 -0.35979717145E+02 -0.25876093697E+01 -0.11620941265E+03  0.12175112219E+03  0.41800000000E+01 0.  1.
        -11    1    1    2    0    0  0.26137246458E+02 -0.42183800765E+02 -0.65774982308E+02  0.82395248631E+02  0.00000000000E+00 0.  1.
         11    1    1    2    0    0 -0.33960295653E+02 -0.78384177497E+02 -0.37004506834E+03  0.37977721570E+03  0.00000000000E+00 0. -1.
</event>
<event>
 7    1  0.3056346E-009  0.8022934E+02  0.7561462E-02  0.1328402E+00
         -2   -1    0    0    0  501 -0.00000000000E+00  0.00000000000E+00  0.50262722357E+02  0.50262722357E+02  0.00000000000E+00 0.  1.
          2   -1    0    0  501    0  0.00000000000E+00 -0.00000000000E+00 -0.26842553481E+03  0.26842553481E+03  0.00000000000E+00 0. -1.
         25    2    1    2    0    0 -0.30118161603E+02  0.18104765703E+02 -0.16068389814E+03  0.20664506860E+03  0.12509189845E+03 0.  0.
          5    1    3    3  502    0 -0.25644605565E+02  0.38461132711E+02 -0.17497761045E+03  0.18102911668E+03  0.41800000000E+01 0.  1.
         -5    1    3    3    0  502 -0.44735560375E+01 -0.20356367008E+02  0.14293712316E+02  0.25615951928E+02  0.41800000000E+01 0.  1.
        -11    1    1    2    0    0  0.23228919655E+02  0.33476876134E+02 -0.40124216420E+02  0.57185983312E+02  0.00000000000E+00 0. -1.
         11    1    1    2    0    0  0.68892419478E+01 -0.51581641837E+02 -0.17354697898E+02  0.54857205255E+02  0.00000000000E+00 0.  1.
</event>
<event>
 7    1  0.3056346E-009  0.2191116E+03  0.7561462E-02  0.1134547E+00
         -2   -1    0    0    0  501 -0.00000000000E+00  0.00000000000E+00  0.12929218934E+03  0.12929218934E+03  0.00000000000E+00 0.  1.
          2   -1    0    0  501    0  0.00000000000E+00 -0.00000000000E+00 -0.38305450967E+03  0.38305450967E+03  0.00000000000E+00 0. -1.
         25    2    1    2    0    0  0.99917930194E+02  0.16682081072E+03 -0.14465742857E+03  0.27273974678E+03  0.12509365361E+03 0.  0.
          5    1    3    3  502    0  0.49230366599E+02 -0.55484101280E+01 -0.17999505038E+02  0.52875972161E+02  0.41800000000E+01 0.  1.
         -5    1    3    3    0  502  0.50687563596E+02  0.17236922085E+03 -0.12665792353E+03  0.21986377462E+03  0.41800000000E+01 0.  1.
        -11    1    1    2    0    0 -0.78544567093E+01 -0.85777264479E+02 -0.21201074892E+02  0.88706917252E+02  0.00000000000E+00 0.  1.
         11    1    1    2    0    0 -0.92063473485E+02 -0.81043546239E+02 -0.87903816870E+02  0.15090003498E+03  0.00000000000E+00 0. -1.
</event>
<event>
 7    1  0.3056346E-009  0.1126128E+03  0.7561462E-02  0.1255806E+00
          1   -1    0    0  501    0  0.00000000000E+00  0.00000000000E+00  0.40194044134E+02  0.40194044134E+02  0.00000000000E+00 0. -1.
         -1   -1    0    0    0  501 -0.00000000000E+00 -0.00000000000E+00 -0.44771926785E+03  0.44771926785E+03  0.00000000000E+00 0.  1.
         25    2    1    2    0    0 -0.57737865281E+02  0.36605709474E+02 -0.30899589500E+03  0.34029720058E+03  0.12510028992E+03 0.  0.
          5    1    3    3  502    0 -0.97226250343E+02  0.29748447028E+02 -0.20798721219E+03  0.23154711549E+03  0.41800000000E+01 0. -1.
         -5    1    3    3    0  502  0.39488385063E+02  0.68572624460E+01 -0.10100868281E+03  0.10875008509E+03  0.41800000000E+01 0. -1.
        -11    1    1    2    0    0  0.33560577105E+02  0.60832704300E+01 -0.92005661072E+02  0.98124207941E+02  0.00000000000E+00 0.  1.
         11    1    1    2    0    0  0.24177288175E+02 -0.42688979904E+02 -0.65236676353E+01  0.49491903461E+02  0.00000000000E+00 0. -1.
</event>
<event>
 7    1  0.3056346E-009  0.1459838E+03  0.7561462E-02  0.1205497E+00
         -1   -1    0    0    0  501 -0.00000000000E+00  0.00000000000E+00  0.66848694054E+02  0.66848694054E+02  0.00000000000E+00 0.  1.
          1   -1    0    0  501    0  0.00000000000E+00 -0.00000000000E+00 -0.36263653507E+03  0.36263653507E+03  0.00000000000E+00 0. -1.
         25    2    1    2    0    0  0.10558541460E+03 -0.39805927797E+01 -0.10937234553E+03  0.19691172754E+03  0.12509114110E+03 0.  0.
          5    1    3    3  502    0  0.17721614371E+02  0.50368995246E+02 -0.65448291057E+02  0.84569749321E+02  0.41800000000E+01 0.  1.
         -5    1    3    3    0  502  0.87863800230E+02 -0.54349588025E+02 -0.43924054470E+02  0.11234197822E+03  0.41800000000E+01 0.  1.
        -11    1    1    2    0    0 -0.10638152188E+03 -0.22319070515E+02 -0.16928062378E+03  0.20117429929E+03  0.00000000000E+00 0. -1.
         11    1    1    2    0    0  0.79610728111E+00  0.26299663295E+02 -0.17134871707E+02  0.31399202293E+02  0.00000000000E+00 0.  1.
</event>
<event>
 7    1  0.3056346E-009  0.1096710E+03  0.7561462E-02  0.1261180E+00
         -1   -1    0    0    0  501 -0.00000000000E+00  0.00000000000E+00  0.50788845780E+02  0.50788845780E+02  0.00000000000E+00 0.  1.
          1   -1    0    0  501    0  0.00000000000E+00 -0.00000000000E+00 -0.32250576951E+03  0.32250576951E+03  0.00000000000E+00 0. -1.
         25    2    1    2    0    0  0.16698711082E+02 -0.45193551797E+02 -0.22116959987E+03  0.25862151413E+03  0.12509113314E+03 0.  0.
          5    1    3    3  502    0  0.54245522952E+02 -0.56543318581E+02 -0.19774300139E+03  0.21274278046E+03  0.41800000000E+01 0. -1.
         -5    1    3    3    0  502 -0.37546811870E+02  0.11349766783E+02 -0.23426598477E+02  0.45878733678E+02  0.41800000000E+01 0. -1.
        -11    1    1    2    0    0 -0.53738146258E+02  0.27912587611E+02 -0.20449878744E+02  0.63914774904E+02  0.00000000000E+00 0.  1.
         11    1    1    2    0    0  0.37039435176E+02  0.17280964186E+02 -0.30097445115E+02  0.50758326252E+02  0.00000000000E+00 0. -1.
</event>
<event>
 7    1  0.3056346E-009  0.2429409E+03  0.7561462E-02  0.1117849E+00
         -2   -1    0    0    0  501 -0.00000000000E+00  0.00000000000E+00  0.22106865001E+03  0.22106865001E+03  0.00000000000E+00 0.  1.
          2   -1    0    0  501    0  0.00000000000E+00 -0.00000000000E+00 -0.28720897456E+03  0.28720897456E+03  0.00000000000E+00 0. -1.
         25    2    1    2    0    0 -0.13724682504E+03 -0.17799789772E+03 -0.10647190241E+01  0.25722801648E+03  0.12508067900E+03 0.  0.
          5    1    3    3  502    0 -0.81487107243E+02 -0.15960762667E+02  0.17013760283E+02  0.84863626076E+02  0.41800000000E+01 0. -1.
         -5    1    3    3    0  502 -0.55759717792E+02 -0.16203713505E+03 -0.18078479307E+02  0.17236439040E+03  0.41800000000E+01 0. -1.
        -11    1    1    2    0    0  0.71217537203E+02  0.13470011072E+03 -0.77783848771E+02  0.17107420777E+03  0.00000000000E+00 0. -1.
         11    1    1    2    0    0  0.66029287832E+02  0.43297787001E+02  0.12708243254E+02  0.79975400326E+02  0.00000000000E+00 0.  1.
</event>
<event>
 7    1  0.3056346E-009  0.9232947E+02  0.7561462E-02  0.1297307E+00
         -1   -1    0    0    0  501 -0.00000000000E+00  0.00000000000E+00  0.26210057430E+03  0.26210057430E+03  0.00000000000E+00 0.  1.
          1   -1    0    0  501    0  0.00000000000E+00 -0.00000000000E+00 -0.44927870034E+02  0.44927870034E+02  0.00000000000E+00 0. -1.
         25    2    1    2    0    0 -0.15628210783E+00  0.12273115223E+01  0.11220367130E+03  0.16804285179E+03  0.12508879033E+03 0.  0.
          5    1    3    3  502    0  0.10852853270E+02 -0.60151795853E+02  0.43333261981E+02  0.75041768118E+02  0.41800000000E+01 0. -1.
         -5    1    3    3    0  502 -0.11009135378E+02  0.61379107375E+02  0.68870409316E+02  0.93001083667E+02  0.41800000000E+01 0. -1.
        -11    1    1    2    0    0 -0.28326330225E+02 -0.11561875791E+02  0.10428283776E+03  0.10867827845E+03  0.00000000000E+00 0.  1.
         11    1    1    2    0    0  0.28482612333E+02  0.10334564268E+02  0.68619520854E+00  0.30307314097E+02  0.00000000000E+00 0. -1.
</event>
<event>
 7    1  0.3056346E-009  0.5958422E+02  0.7561462E-02  0.1399585E+00
          1   -1    0    0  501    0  0.00000000000E+00  0.00000000000E+00  0.30127465606E+03  0.30127465606E+03  0.00000000000E+00 0. -1.
         -1   -1    0    0    0  501 -0.00000000000E+00 -0.00000000000E+00 -0.52038812682E+02  0.52038812682E+02  0.00000000000E+00 0.  1.
         25    2    1    2    0    0 -0.42989890540E+01 -0.37999560563E+02  0.20390541733E+03  0.24225363391E+03  0.12508779322E+03 0.  0.
          5    1    3    3  502    0  0.21777233278E+02  0.11204166742E+02 -0.55709939189E+01  0.25461532061E+02  0.41800000000E+01 0. -1.
         -5    1    3    3    0  502 -0.26076222332E+02 -0.49203727305E+02  0.20947641125E+03  0.21679210184E+03  0.41800000000E+01 0. -1.
        -11    1    1    2    0    0  0.41029781487E+00  0.22402747437E+02 -0.28072099137E+02  0.35917881160E+02  0.00000000000E+00 0.  1.
         11    1    1    2    0    0  0.38886912391E+01  0.15596813126E+02  0.73402525179E+02  0.75141953673E+02  0.00000000000E+00 0. -1.
</event>
<event>
 7    1  0.3056346E-009  0.1009474E+03  0.7561462E-02  0.1278316E+00
         -3   -1    0    0    0  501 -0.00000000000E+00  0.00000000000E+00  0.35365927287E+03  0.35365927287E+03  0.00000000000E+00 0.  1.
          3   -1    0    0  501    0  0.00000000000E+00 -0.00000000000E+00 -0.40797260551E+02  0.40797260551E+02  0.00000000000E+00 0. -1.
         25    2    1    2    0    0  0.49072475322E+02  0.12438109481E+02  0.17859196957E+03  0.22384253117E+03  0.12509025847E+03 0.  0.
          5    1    3    3  502    0  0.12938673319E+02 -0.37242988742E+02  0.53787424407E+01  0.40010657929E+02  0.41800000000E+01 0.  1.
         -5    1    3    3    0  502  0.36133802004E+02  0.49681098223E+02  0.17321322712E+03  0.18383187324E+03  0.41800000000E+01 0.  1.
        -11    1    1    2    0    0  0.25167283954E+02 -0.75390839535E+01  0.59941016273E+02  0.65445820343E+02  0.00000000000E+00 0.  1.
         11    1    1    2    0    0 -0.74239759276E+02 -0.48990255279E+01  0.74329026483E+02  0.10516818191E+03  0.00000000000E+00 0. -1.
</event>
<event>
 7    1  0.3056346E-009  0.1618446E+03  0.7561462E-02  0.1186630E+00
          1   -1    0    0  501    0  0.00000000000E+00  0.00000000000E+00  0.46802455543E+03  0.46802455543E+03  0.00000000000E+00 0.  1.
         -1   -1    0    0    0  501 -0.00000000000E+00 -0.00000000000E+00 -0.77801161158E+02  0.77801161158E+02  0.00000000000E+00 0. -1.
         25    2    1    2    0    0 -0.53371835498E+02  0.10467324325E+03  0.32141168749E+03  0.36435836348E+03  0.12508598444E+03 0.  0.
          5    1    3    3  502    0 -0.89263051445E+02  0.91877787399E+02  0.27993705811E+03  0.30788252480E+03  0.41800000000E+01 0. -1.
         -5    1    3    3    0  502  0.35891215947E+02  0.12795455850E+02  0.41474629379E+02  0.56475838680E+02  0.41800000000E+01 0. -1.
        -11    1    1    2    0    0  0.86950182774E+01  0.21579224249E+02  0.37178642388E+02  0.43857926442E+02  0.00000000000E+00 0.  1.
         11    1    1    2    0    0  0.44676817221E+02 -0.12625246750E+03  0.31633064397E+02  0.13760942667E+03  0.00000000000E+00 0. -1.
</event>
<event>
 7    1  0.3056346E-009  0.1406049E+03  0.7561462E-02  0.1212517E+00
         -1   -1    0    0    0  501 -0.00000000000E+00  0.00000000000E+00  0.61795325417E+03  0.61795325417E+03  0.00000000000E+00 0.  1.
          1   -1    0    0  501    0  0.00000000000E+00 -0.00000000000E+00 -0.45748557595E+02  0.45748557595E+02  0.00000000000E+00 0. -1.
         25    2    1    2    0    0 -0.39538942118E+02 -0.11757652034E+03  0.29864959061E+03  0.34673682203E+03  0.12508908705E+03 0.  0.
          5    1    3    3  502    0 -0.51696256680E+02 -0.93223629399E+02  0.30075878474E+03  0.31911826496E+03  0.41800000000E+01 0. -1.
         -5    1    3    3    0  502  0.12157314561E+02 -0.24352890940E+02 -0.21091941318E+01  0.27618557065E+02  0.41800000000E+01 0. -1.
        -11    1    1    2    0    0 -0.23767908256E+02  0.22238813477E+02  0.18567401044E+02  0.37473012546E+02  0.00000000000E+00 0. -1.
         11    1    1    2    0    0  0.63306850374E+02  0.95337706861E+02  0.25498770492E+03  0.27949197719E+03  0.00000000000E+00 0.  1.
</event>
<event>
 7    1  0.3056346E-009  0.1036799E+03  0.7561462E-02  0.1272743E+00
          1   -1    0    0  501    0  0.00000000000E+00  0.00000000000E+00  0.97783483277E+02  0.97783483277E+02  0.00000000000E+00 0. -1.
         -1   -1    0    0    0  501 -0.00000000000E+00 -0.00000000000E+00 -0.14842390593E+03  0.14842390593E+03  0.00000000000E+00 0.  1.
         25    2    1    2    0    0 -0.29596915973E+02  0.16220727523E+02 -0.80466219306E+01  0.12980959609E+03  0.12508674461E+03 0.  0.
          5    1    3    3  502    0 -0.74807021607E+02  0.17453351512E+01 -0.25343160197E+02  0.79113114244E+02  0.41800000000E+01 0.  1.
         -5    1    3    3    0  502  0.45210105634E+02  0.14475392372E+02  0.17296538266E+02  0.50696481848E+02  0.41800000000E+01 0.  1.
        -11    1    1    2    0    0  0.16816534393E+01  0.30386704933E+02  0.17725869995E+02  0.35219117849E+02  0.00000000000E+00 0. -1.
         11    1    1    2    0    0  0.27915262534E+02 -0.46607432456E+02 -0.60319670714E+02  0.81178675264E+02  0.00000000000E+00 0.  1.
</event>
<event>
 7    1  0.3056346E-009  0.8717615E+02  0.7561462E-02  0.1309838E+00
          3   -1    0    0  501    0  0.00000000000E+00  0.00000000000E+00  0.39289371522E+02  0.39289371522E+02  0.00000000000E+00 0. -1.
         -3   -1    0    0    0  501 -0.00000000000E+00 -0.00000000000E+00 -0.30953793250E+03  0.30953793250E+03  0.00000000000E+00 0.  1.
         25    2    1    2    0    0  0.16776759536E+02  0.21398521099E+02 -0.15696500312E+03  0.20254688905E+03  0.12509146131E+03 0.  0.
          5    1    3    3  502    0 -0.75477292593E+01 -0.34124461119E+02 -0.13241487667E+03  0.13701320749E+03  0.41800000000E+01 0. -1.
         -5    1    3    3    0  502  0.24324488795E+02  0.55522982218E+02 -0.24550126452E+02  0.65533681557E+02  0.41800000000E+01 0. -1.
        -11    1    1    2    0    0  0.19467833524E+02  0.16814997545E+02 -0.79862440738E+02  0.83903218801E+02  0.00000000000E+00 0.  1.
         11    1    1    2    0    0 -0.36244593060E+02 -0.38213518644E+02 -0.33421117120E+02  0.62377196176E+02  0.00000000000E+00 0. -1.
</event>
<event>
 7    1  0.3056346E-009  0.1003568E+03  0.7561462E-02  0.1279547E+00
          1   -1    0    0  501    0  0.00000000000E+00  0.00000000000E+00  0.62331226134E+03  0.62331226134E+03  0.00000000000E+00 0. -1.
         -1   -1    0    0    0  501 -0.00000000000E+00 -0.00000000000E+00 -0.26707677281E+02  0.26707677281E+02  0.00000000000E+00 0.  1.
         25    2    1    2    0    0  0.59894709804E+02 -0.87479526590E+01  0.44698328869E+03  0.46808704633E+03  0.12509004613E+03 0.  0.
          5    1    3    3  502    0 -0.33066541696E+01 -0.42845455013E+02  0.56899543980E+02  0.71426168049E+02  0.41800000000E+01 0.  1.
         -5    1    3    3    0  502  0.63201363974E+02  0.34097502354E+02  0.39008374471E+03  0.39666087828E+03  0.41800000000E+01 0.  1.
        -11    1    1    2    0    0  0.18171913502E+01 -0.18181450155E+02  0.45883732886E+00  0.18277796526E+02  0.00000000000E+00 0.  1.
         11    1    1    2    0    0 -0.61711901154E+02  0.26929402814E+02  0.14916245804E+03  0.16365509576E+03  0.00000000000E+00 0. -1.
</event>
<event>
 7    1  0.3056346E-009  0.6218290E+02  0.7561462E-02  0.1388893E+00
         -2   -1    0    0    0  501 -0.00000000000E+00  0.00000000000E+00  0.35905821851E+02  0.35905821851E+02  0.00000000000E+00 0.  1.
          2   -1    0    0  501    0  0.00000000000E+00 -0.00000000000E+00 -0.64040169852E+03  0.64040169852E+03  0.00000000000E+00 0. -1.
         25    2    1    2    0    0 -0.41693444692E+01  0.40045087093E+01 -0.91201431980E+02  0.15491788646E+03  0.12509368820E+03 0.  0.
          5    1    3    3  502    0 -0.27941861944E+01  0.17737324845E+02  0.28722382210E+02  0.34130159815E+02  0.41800000000E+01 0. -1.
         -5    1    3    3    0  502 -0.13751582749E+01 -0.13732816135E+02 -0.11992381419E+03  0.12078772665E+03  0.41800000000E+01 0. -1.
        -11    1    1    2    0    0 -0.37858447696E+02 -0.24147043313E+02 -0.24778691183E+03  0.25182274606E+03  0.00000000000E+00 0.  1.
         11    1    1    2    0    0  0.42027792165E+02  0.20142534603E+02 -0.26550753287E+03  0.26956688785E+03  0.00000000000E+00 0. -1.
</event>
<event>
 6    1  0.3056346E-009  0.1093781E+03  0.7561462E-02  0.1261726E+00
         -1   -1    0    0    0  501 -0.00000000000E+00  0.00000000000E+00  0.27962079663E+02  0.27962079663E+02  0.00000000000E+00 0.  1.
          1   -1    0    0  501    0  0.00000000000E+00 -0.00000000000E+00 -0.80919545649E+03  0.80919545649E+03  0.00000000000E+00 0. -1.
          5    1    1    2  502    0 -0.15476549076E+02  0.43018461585E+02 -0.34842592649E+03  0.35143734898E+03  0.41800000000E+01 0.  1.
         -5    1    1    2    0  502 -0.33128809598E+02  0.45964098563E+02 -0.41227805536E+02  0.70195589117E+02  0.41800000000E+01 0.  1.
        -11    1    1    2    0    0  0.27098106840E+01 -0.63464566405E+02 -0.32279666843E+03  0.32898751254E+03  0.00000000000E+00 0. -1.
         11    1    1    2    0    0  0.45895547990E+02 -0.25517993743E+02 -0.68782976376E+02  0.86537085513E+02  0.00000000000E+00 0.  1.
</event>
<event>
 7    1  0.3056346E-009  0.7959214E+02  0.7561462E-02  0.1330213E+00
          1   -1    0    0  501    0  0.00000000000E+00  0.00000000000E+00  0.41791339178E+03  0.41791339178E+03  0.00000000000E+00 0. -1.
         -1   -1    0    0    0  501 -0.00000000000E+00 -0.00000000000E+00 -0.30104218005E+02  0.30104218005E+02  0.00000000000E+00 0.  1.
         25    2    1    2    0    0  0.26291402281E+02 -0.94158364107E+01  0.21358849050E+03  0.24909338137E+03  0.12509026166E+03 0.  0.
          5    1    3    3  502    0  0.50275451206E+02 -0.32030374196E+02  0.38971504836E+02  0.71342949576E+02  0.41800000000E+01 0. -1.
         -5    1    3    3    0  502 -0.23984048925E+02  0.22614537785E+02  0.17461698566E+03  0.17775043180E+03  0.41800000000E+01 0. -1.
        -11    1    1    2    0    0 -0.45905548024E+02  0.62227407830E+01  0.17291062995E+03  0.17900873663E+03  0.00000000000E+00 0. -1.
         11    1    1    2    0    0  0.19614145743E+02  0.31930956276E+01  0.13100533270E+01  0.19915491775E+02  0.00000000000E+00 0.  1.
</event>
<event>
 7    1  0.3056346E-009  0.1513992E+03  0.7561462E-02  0.1198764E+00
          1   -1    0    0  501    0  0.00000000000E+00  0.00000000000E+00  0.51329367265E+03  0.51329367265E+03  0.00000000000E+00 0. -1.
         -1   -1    0    0    0  501 -0.00000000000E+00 -0.00000000000E+00 -0.47167725715E+02  0.47167725715E+02  0.00000000000E+00 0.  1.
         25    2    1    2    0    0 -0.11100592783E+03 -0.51054525956E+01  0.27427577218E+03  0.32127924271E+03  0.12507905870E+03 0.  0.
          5    1    3    3  502    0 -0.43232743906E+02  0.56033221825E+02  0.82006957667E+02  0.10840390030E+03  0.41800000000E+01 0.  1.
         -5    1    3    3    0  502 -0.67773183929E+02 -0.61138674421E+02  0.19226881452E+03  0.21287534241E+03  0.41800000000E+01 0.  1.
        -11    1    1    2    0    0  0.81238056069E+02  0.43339496732E+02  0.10438153991E+03  0.13918850386E+03  0.00000000000E+00 0. -1.
         11    1    1    2    0    0  0.29767871766E+02 -0.38234044136E+02  0.87468634835E+02  0.99993651801E+02  0.00000000000E+00 0.  1.
</event>
<event>
 7    1  0.3056346E-009  0.1368059E+03  0.7561462E-02  0.1217693E+00
         -1   -1    0    0    0  501 -0.00000000000E+00  0.00000000000E+00  0.97945443122E+02  0.97945443122E+02  0.00000000000E+00 0.  1.
          1   -1    0    0  501    0  0.00000000000E+00 -0.00000000000E+00 -0.20512780641E+03  0.20512780641E+03  0.00000000000E+00 0. -1.
         25    2    1    2    0    0 -0.88979869849E+02  0.73788899975E+01 -0.58889809722E+02  0.16458616630E+03  0.12509488876E+03 0.  0.
          5    1    3    3  502    0 -0.10355932503E+03  0.44642535999E+02 -0.36853842119E+02  0.11871464905E+03  0.41800000000E+01 0.  1.
         -5    1    3    3    0  502  0.14579455178E+02 -0.37263646002E+02 -0.22035967604E+02  0.45871517251E+02  0.41800000000E+01 0.  1.
        -11    1    1    2    0    0  0.41004911951E+02 -0.44023082749E+02  0.15794770030E+01  0.60182467268E+02  0.00000000000E+00 0.  1.
         11    1    1    2    0    0  0.47974957898E+02  0.36644192752E+02 -0.49872030565E+02  0.78304615959E+02  0.00000000000E+00 0. -1.
</event>
<event>
 6    1  0.3056346E-009  0.1183070E+03  0.7561462E-02  0.1245916E+00
         -4   -1    0    0    0  501 -0.00000000000E+00  0.00000000000E+00  0.25543183859E+02  0.25543183859E+02  0.00000000000E+00 0.  1.
          4   -1    0    0  501    0  0.00000000000E+00 -0.00000000000E+00 -0.59661308394E+03  0.59661308394E+03  0.00000000000E+00 0. -1.
          5    1    1    2  502    0  0.56763990744E+02 -0.69284303966E+02 -0.26130601424E+03  0.27626214164E+03  0.41800000000E+01 0.  1.
         -5    1    1    2    0  502 -0.34365485386E+02  0.36037197595E+02 -0.68876421558E+02  0.85094653433E+02  0.41800000000E+01 0.  1.
        -11    1    1    2    0    0  0.19298855037E+01  0.60450830830E+02 -0.17912461361E+03  0.18905992332E+03  0.00000000000E+00 0.  1.
         11    1    1    2    0    0 -0.24328390862E+02 -0.27203724459E+02 -0.61762850674E+02  0.71739549411E+02  0.00000000000E+00 0. -1.
</event>
<event>
 7    1  0.3056346E-009  0.2172115E+03  0.7561462E-02  0.1135979E+00
         -1   -1    0    0    0  501 -0.00000000000E+00  0.00000000000E+00  0.38722295218E+02  0.38722295218E+02  0.00000000000E+00 0.  1.
          1   -1    0    0  501    0  0.00000000000E+00 -0.00000000000E+00 -0.13051678128E+04  0.13051678128E+04  0.00000000000E+00 0. -1.
         25    2    1    2    0    0  0.62501758293E+02  0.18332757517E+03 -0.76741331158E+03  0.80129392638E+03  0.12503317981E+03 0.  0.
          5    1    3    3  502    0  0.15966077129E+02 -0.17083976896E+02 -0.59173075521E+02  0.63762866561E+02  0.41800000000E+01 0.  1.
         -5    1    3    3    0  502  0.46535681165E+02  0.20041155206E+03 -0.70824023606E+03  0.73753105982E+03  0.41800000000E+01 0.  1.
        -11    1    1    2    0    0 -0.71273823041E+02 -0.11025749025E+03 -0.24302333975E+03  0.27621914428E+03  0.00000000000E+00 0.  1.
         11    1    1    2    0    0  0.87720647471E+01 -0.73070084916E+02 -0.25600886629E+03  0.26637703739E+03  0.00000000000E+00 0. -1.
</event>
<event>
 7    1  0.3056346E-009  0.1184269E+03  0.7561462E-02  0.1245715E+00
         -1   -1    0    0    0  501 -0.00000000000E+00  0.00000000000E+00  0.22993220511E+03  0.22993220511E+03  0.00000000000E+00 0.  1.
          1   -1    0    0  501    0  0.00000000000E+00 -0.00000000000E+00 -0.84333129180E+02  0.84333129180E+02  0.00000000000E+00 0. -1.
         25    2    1    2    0    0 -0.42007839236E+02  0.71867795197E+02  0.52648014771E+02  0.15922241403E+03  0.12510125950E+03 0.  0.
          5    1    3    3  502    0  0.15158703031E+02 -0.70793147616E+01 -0.27838106919E+02  0.32746535266E+02  0.41800000000E+01 0.  1.
         -5    1    3    3    0  502 -0.57166542266E+02  0.78947109959E+02  0.80486121690E+02  0.12647587877E+03  0.41800000000E+01 0.  1.
        -11    1    1    2    0    0  0.47746521437E+02  0.21628627704E+01  0.50413412150E+02  0.69468844882E+02  0.00000000000E+00 0.  1.
         11    1    1    2    0    0 -0.57386822018E+01 -0.74030657967E+02  0.42537649006E+02  0.85574075370E+02  0.00000000000E+00 0. -1.
</event>
<event>
 7    1  0.3056346E-009  0.9198501E+02  0.7561462E-02  0.1298115E+00
         -2   -1    0    0    0  501 -0.00000000000E+00  0.00000000000E+00  0.24186699453E+02  0.24186699453E+02  0.00000000000E+00 0.  1.
          2   -1    0    0  501    0  0.00000000000E+00 -0.00000000000E+00 -0.75722099816E+03  0.75722099816E+03  0.00000000000E+00 0. -1.
         25    2    1    2    0    0 -0.41246401285E+02 -0.40591989314E+02 -0.56412941711E+03  0.58072280238E+03  0.12509196114E+03 0.  0.
          5    1    3    3  502    0  0.14495637475E+02  0.99028376463E+00 -0.42361974735E+03  0.42388945128E+03  0.41800000000E+01 0.  1.
         -5    1    3    3    0  502 -0.55742038761E+02 -0.41582273079E+02 -0.14050966977E+03  0.15683335110E+03  0.41800000000E+01 0.  1.
        -11    1    1    2    0    0  0.65415715634E+02  0.35699708528E+02 -0.84100728052E+02  0.11236822282E+03  0.00000000000E+00 0.  1.
         11    1    1    2    0    0 -0.24169314348E+02  0.48922807861E+01 -0.84804153540E+02  0.88316672406E+02  0.00000000000E+00 0. -1.
</event>
<event>
 7    1  0.3056346E-009  0.5573431E+02  0.7561462E-02  0.1416658E+00
          1   -1    0    0  501    0  0.00000000000E+00  0.00000000000E+00  0.11976107483E+03  0.11976107483E+03  0.00000000000E+00 0. -1.
         -1   -1    0    0    0  501 -0.00000000000E+00 -0.00000000000E+00 -0.10871119055E+03  0.10871119055E+03  0.00000000000E+00 0.  1.
         25    2    1    2    0    0  0.99891532558E+01  0.30393118918E+02 -0.12175245099E+02  0.12966982077E+03  0.12506998427E+03 0.  0.
          5    1    3    3  502    0  0.15772072833E+02  0.31733161767E+01 -0.66469695125E+02  0.68516574543E+02  0.41800000000E+01 0.  1.
         -5    1    3    3    0  502 -0.57829195775E+01  0.27219802742E+02  0.54294450026E+02  0.61153246225E+02  0.41800000000E+01 0.  1.
        -11    1    1    2    0    0 -0.32790611483E+02 -0.29145534312E+02 -0.21295747363E+02  0.48766743048E+02  0.00000000000E+00 0.  1.
         11    1    1    2    0    0  0.22801458227E+02 -0.12475846063E+01  0.44520876750E+02  0.50035701566E+02  0.00000000000E+00 0. -1.
</event>
<event>
 7    1  0.3056346E-009  0.1242670E+03  0.7561462E-02  0.1236219E+00
         -2   -1    0    0    0  501 -0.00000000000E+00  0.00000000000E+00  0.44413802182E+02  0.44413802182E+02  0.00000000000E+00 0.  1.
          2   -1    0    0  501    0  0.00000000000E+00 -0.00000000000E+00 -0.10169971612E+04  0.10169971612E+04  0.00000000000E+00 0. -1.
         25    2    1    2    0    0 -0.98439089224E+02 -0.75325599575E+02 -0.83778905466E+03  0.85609708016E+03  0.12509000882E+03 0.  0.
          5    1    3    3  502    0 -0.19327483473E+02 -0.16793518890E+02 -0.20964431142E+02  0.33354964656E+02  0.41800000000E+01 0. -1.
         -5    1    3    3    0  502 -0.79111605751E+02 -0.58532080685E+02 -0.81682462352E+03  0.82274211550E+03  0.41800000000E+01 0. -1.
        -11    1    1    2    0    0  0.34981939653E+02  0.23268798834E+02 -0.11275607619E+03  0.12032915615E+03  0.00000000000E+00 0.  1.
         11    1    1    2    0    0  0.63457149571E+02  0.52056800741E+02 -0.22038228160E+02  0.84984727072E+02  0.00000000000E+00 0. -1.
</event>
<event>
 7    1  0.3056346E-009  0.9334322E+02  0.7561462E-02  0.1294952E+00
         -2   -1    0    0    0  501 -0.00000000000E+00  0.00000000000E+00  0.39195793139E+03  0.39195793139E+03  0.00000000000E+00 0.  1.
          2   -1    0    0  501    0  0.00000000000E+00 -0.00000000000E+00 -0.34528850809E+02  0.34528850809E+02  0.00000000000E+00 0. -1.
         25    2    1    2    0    0 -0.34407070863E+02 -0.78703069096E+01  0.16250126843E+03  0.20808500916E+03  0.12508765144E+03 0.  0.
          5    1    3    3  502    0 -0.65275135409E+02 -0.49795647278E+01  0.16413569624E+03  0.17675870147E+03  0.41800000000E+01 0.  1.
         -5    1    3    3    0  502  0.30868064546E+02 -0.28907421818E+01 -0.16344278095E+01  0.31326307689E+02  0.41800000000E+01 0.  1.
        -11    1    1    2    0    0  0.55353936425E+02  0.26864358090E+02  0.16969050417E+03  0.18050102276E+03  0.00000000000E+00 0.  1.
         11    1    1    2    0    0 -0.20946865563E+02 -0.18994051181E+02  0.25237307992E+02  0.37900750280E+02  0.00000000000E+00 0. -1.
</event>
<event>
 7    1  0.3115489E-009  0.2073882E+03  0.7561462E-02  0.1143651E+00
         -2   -1    0    0    0  501 -0.00000000000E+00  0.00000000000E+00  0.17855195456E+03  0.17855195456E+03  0.00000000000E+00 0.  1.
          2   -1    0    0  501    0  0.00000000000E+00 -0.00000000000E+00 -0.27443538305E+03  0.27443538305E+03  0.00000000000E+00 0. -1.
         25    2    1    2    0    0  0.97240580210E+02 -0.15933936333E+03 -0.96324237450E+02  0.24448294827E+03  0.12509512433E+03 0.  0.
          5    1    3    3  502    0 -0.69746227095E+01 -0.10600231790E+03 -0.33001503588E+02  0.11131805065E+03  0.41800000000E+01 0. -1.
         -5    1    3    3    0  502  0.10421520292E+03 -0.53337045430E+02 -0.63322733862E+02  0.13316489762E+03  0.41800000000E+01 0. -1.
        -11    1    1    2    0    0 -0.86913071345E+02  0.10642968601E+03  0.38280548844E+02  0.14264137007E+03  0.00000000000E+00 0.  1.
         11    1    1    2    0    0 -0.10327508865E+02  0.52909677318E+02 -0.37839739877E+02  0.65863019269E+02  0.00000000000E+00 0. -1.
</event>
<event>
 7    1  0.3056346E-009  0.1596897E+03  0.7561462E-02  0.1189047E+00
          1   -1    0    0  501    0  0.00000000000E+00  0.00000000000E+00  0.42651636566E+03  0.42651636566E+03  0.00000000000E+00 0. -1.
         -1   -1    0    0    0  501 -0.00000000000E+00 -0.00000000000E+00 -0.81289616958E+02  0.81289616958E+02  0.00000000000E+00 0.  1.
         25    2    1    2    0    0  0.14584469379E+03  0.38971496641E+02  0.16888903300E+03  0.25875311869E+03  0.12506086003E+03 0.  0.
          5    1    3    3  502    0  0.31162761145E+01  0.16053274715E+02  0.94745720907E+02  0.96237429497E+02  0.41800000000E+01 0. -1.
         -5    1    3    3    0  502  0.14272841767E+03  0.22918221926E+02  0.74143312093E+02  0.16251568920E+03  0.41800000000E+01 0. -1.
        -11    1    1    2    0    0 -0.24177650248E+02 -0.26036228115E+02  0.96812603736E+02  0.10312673847E+03  0.00000000000E+00 0. -1.
         11    1    1    2    0    0 -0.12166704354E+03 -0.12935268526E+02  0.79525111964E+02  0.14592612545E+03  0.00000000000E+00 0.  1.
</event>
<event>
 6    1  0.3056346E-009  0.9964941E+02  0.7561462E-02  0.1281035E+00
         -3   -1    0    0    0  501 -0.00000000000E+00  0.00000000000E+00  0.71585770219E+02  0.71585770219E+02  0.00000000000E+00 0.  1.
          3   -1    0    0  501    0  0.00000000000E+00 -0.00000000000E+00 -0.23627903053E+03  0.23627903053E+03  0.00000000000E+00 0. -1.
          5    1    1    2  502    0 -0.77322059433E+01 -0.26736017257E+02  0.14386562436E+02  0.31607708020E+02  0.41800000000E+01 0. -1.
         -5    1    1    2    0  502  0.61721755246E+02  0.72863109291E+02 -0.84456265515E+02  0.12754975873E+03  0.41800000000E+01 0. -1.
        -11    1    1    2    0    0 -0.42958900680E+02 -0.47964087304E+02 -0.11132662928E+03  0.12860652863E+03  0.00000000000E+00 0. -1.
         11    1    1    2    0    0 -0.11030648622E+02  0.18369952700E+01  0.16703072052E+02  0.20100805373E+02  0.00000000000E+00 0.  1.
</event>
<event>
 7    1  0.3056346E-009  0.1422397E+03  0.7561462E-02  0.1210347E+00
         -1   -1    0    0    0  501 -0.00000000000E+00  0.00000000000E+00  0.10957321849E+03  0.10957321849E+03  0.00000000000E+00 0.  1.
          1   -1    0    0  501    0  0.00000000000E+00 -0.00000000000E+00 -0.25362128699E+03  0.25362128699E+03  0.00000000000E+00 0. -1.
         25    2    1    2    0    0 -0.52562142895E+02 -0.88553987664E+02  0.34014375573E+01  0.16206125520E+03  0.12509073932E+03 0.  0.
          5    1    3    3  502    0 -0.50444897505E+02  0.82037829816E+01  0.32747134488E+02  0.60842723120E+02  0.41800000000E+01 0.  1.
         -5    1    3    3    0  502 -0.21172453900E+01 -0.96757770646E+02 -0.29345696930E+02  0.10121853208E+03  0.41800000000E+01 0.  1.
        -11    1    1    2    0    0  0.11115198366E+02 -0.18472246973E+02 -0.29732924952E+02  0.36726262663E+02  0.00000000000E+00 0.  1.
         11    1    1    2    0    0  0.41446944529E+02  0.10702623464E+03 -0.11771658110E+03  0.16440698762E+03  0.00000000000E+00 0. -1.
</event>
<event>
 7    1  0.3056346E-009  0.1834925E+03  0.7561462E-02  0.1164465E+00
         -2   -1    0    0    0  501 -0.00000000000E+00  0.00000000000E+00  0.34081016704E+02  0.34081016704E+02  0.00000000000E+00 0.  1.
          2   -1    0    0  501    0  0.00000000000E+00 -0.00000000000E+00 -0.10970561753E+04  0.10970561753E+04  0.00000000000E+00 0. -1.
         25    2    1    2    0    0 -0.14865756345E+03  0.46889147480E+02 -0.65866077110E+03  0.68831477261E+03  0.12508217896E+03 0.  0.
          5    1    3    3  502    0 -0.16572152491E+03  0.37229018452E+02 -0.49322339738E+03  0.52166695866E+03  0.41800000000E+01 0. -1.
         -5    1    3    3    0  502  0.17063961459E+02  0.96601290283E+01 -0.16543737372E+03  0.16664781396E+03  0.41800000000E+01 0. -1.
        -11    1    1    2    0    0 -0.57564576168E+01 -0.19342247529E+02 -0.23533716273E+02  0.31001534564E+02  0.00000000000E+00 0.  1.
         11    1    1    2    0    0  0.15441402107E+03 -0.27546899951E+02 -0.38078067121E+03  0.41182088481E+03  0.00000000000E+00 0. -1.
</event>
<event>
 7    1  0.3056346E-009  0.8864582E+02  0.7561462E-02  0.1306165E+00
          2   -1    0    0  501    0  0.00000000000E+00  0.00000000000E+00  0.11133097625E+03  0.11133097625E+03  0.00000000000E+00 0. -1.
         -2   -1    0    0    0  501 -0.00000000000E+00 -0.00000000000E+00 -0.13446898142E+03  0.13446898142E+03  0.00000000000E+00 0.  1.
         25    2    1    2    0    0 -0.55599217950E+02 -0.11077930883E+02 -0.10311749298E+02  0.13772303519E+03  0.12508920280E+03 0.  0.
          5    1    3    3  502    0  0.46951679903E+01  0.32436961781E+02  0.36911155871E+02  0.49538943467E+02  0.41800000000E+01 0.  1.
         -5    1    3    3    0  502 -0.60294385941E+02 -0.43514892665E+02 -0.47222905170E+02  0.88184091719E+02  0.41800000000E+01 0.  1.
        -11    1    1    2    0    0  0.28761700575E+02 -0.14929080248E+02 -0.47231843838E+02  0.57279664186E+02  0.00000000000E+00 0.  1.
         11    1    1    2    0    0  0.26837517375E+02  0.26007011131E+02  0.34405587963E+02  0.50797258291E+02  0.00000000000E+00 0. -1.
</event>
<event>
 7    1  0.3056346E-009  0.8791429E+02  0.7561462E-02  0.1307983E+00
          4   -1    0    0  501    0  0.00000000000E+00  0.00000000000E+00  0.32446343967E+03  0.32446343967E+03  0.00000000000E+00 0.  1.
         -4   -1    0    0    0  501 -0.00000000000E+00 -0.00000000000E+00 -0.47748872467E+02  0.47748872467E+02  0.00000000000E+00 0. -1.
         25    2    1    2    0    0 -0.17203915708E+02  0.59876622178E+02  0.16433207365E+03  0.21571766976E+03  0.12509155853E+03 0.  0.
          5    1    3    3  502    0 -0.55750368206E+02  0.45813577243E+02  0.15831795967E+03  0.17403745623E+03  0.41800000000E+01 0. -1.
         -5    1    3    3    0  502  0.38546452498E+02  0.14063044935E+02  0.60141139795E+01  0.41680213531E+02  0.41800000000E+01 0. -1.
        -11    1    1    2    0    0  0.12064759616E+02 -0.40663481319E+02  0.12563060521E+03  0.13259760972E+03  0.00000000000E+00 0.  1.
         11    1    1    2    0    0  0.51391560913E+01 -0.19213140859E+02 -0.13248111666E+02  0.23897032655E+02  0.00000000000E+00 0. -1.
</event>
<event>
 7    1  0.3915652E-009  0.1666485E+03  0.7561462E-02  0.1181389E+00
          1   -1    0    0  501    0  0.00000000000E+00  0.00000000000E+00  0.12342741078E+04  0.12342741078E+04  0.00000000000E+00 0. -1.
         -1   -1    0    0    0  501 -0.00000000000E+00 -0.00000000000E+00 -0.22826606315E+02  0.22826606315E+02  0.00000000000E+00 0.  1.
         25    2    1    2    0    0 -0.10308865104E+03  0.73591588094E+02  0.69600144281E+03  0.71840648915E+03  0.12508750315E+03 0.  0.
          5    1    3    3  502    0 -0.36269825707E+02 -0.34779423439E+02  0.18203334499E+03  0.18888811407E+03  0.41800000000E+01 0.  1.
         -5    1    3    3    0  502 -0.66818825335E+02  0.10837101153E+03  0.51396809782E+03  0.52951837507E+03  0.41800000000E+01 0.  1.
        -11    1    1    2    0    0  0.97776285582E+02 -0.17723556220E+02  0.29841495670E+03  0.31452474124E+03  0.00000000000E+00 0.  1.
         11    1    1    2    0    0  0.53123654604E+01 -0.55868031874E+02  0.21703110195E+03  0.22416948371E+03  0.00000000000E+00 0. -1.
</event>
<event>
 7    1  0.3056346E-009  0.1303306E+03  0.7561462E-02  0.1226966E+00
          2   -1    0    0  501    0  0.00000000000E+00  0.00000000000E+00  0.37929960341E+02  0.37929960341E+02  0.00000000000E+00 0. -1.
         -2   -1    0    0    0  501 -0.00000000000E+00 -0.00000000000E+00 -0.61805213518E+03  0.61805213518E+03  0.00000000000E+00 0.  1.
         25    2    1    2    0    0 -0.72732402162E+02  0.59388779718E+02 -0.19843578313E+03  0.25266868453E+03  0.12509066565E+03 0.  0.
          5    1    3    3  502    0 -0.71962681924E+02 -0.16331594859E+02 -0.13452032625E+03  0.15348791208E+03  0.41800000000E+01 0.  1.
         -5    1    3    3    0  502 -0.76972023783E+00  0.75720374577E+02 -0.63915456888E+02  0.99180772453E+02  0.41800000000E+01 0.  1.
        -11    1    1    2    0    0 -0.50433375152E+01 -0.25635174360E+02 -0.23209885870E+02  0.34947048800E+02  0.00000000000E+00 0.  1.
         11    1    1    2    0    0  0.77775739677E+02 -0.33753605358E+02 -0.35847650583E+03  0.36836636219E+03  0.00000000000E+00 0. -1.
</event>
<event>
 7    1  0.3056346E-009  0.1107127E+03  0.7561462E-02  0.1259256E+00
         -2   -1    0    0    0  501 -0.00000000000E+00  0.00000000000E+00  0.61887596230E+02  0.61887596230E+02  0.00000000000E+00 0.  1.
          2   -1    0    0  501    0  0.00000000000E+00 -0.00000000000E+00 -0.19940500971E+03  0.19940500971E+03  0.00000000000E+00 0. -1.
         25    2    1    2    0    0 -0.22232365522E+02  0.43359506976E+01 -0.73611314510E+02  0.14689894512E+03  0.12509035098E+03 0.  0.
          5    1    3    3  502    0 -0.16300815254E+02  0.64153030189E+02 -0.31765125588E+02  0.73537904947E+02  0.41800000000E+01 0. -1.
         -5    1    3    3    0  502 -0.59315502678E+01 -0.59817079492E+02 -0.41846188922E+02  0.73361040170E+02  0.41800000000E+01 0. -1.
        -11    1    1    2    0    0 -0.88816952540E+01 -0.43743717280E+02 -0.28592671915E+02  0.53008850198E+02  0.00000000000E+00 0.  1.
         11    1    1    2    0    0  0.31114060776E+02  0.39407766583E+02 -0.35313427053E+02  0.61384810623E+02  0.00000000000E+00 0. -1.
</event>
<event>
 7    1  0.3056346E-009  0.1106761E+03  0.7561462E-02  0.1259323E+00
          1   -1    0    0  501    0  0.00000000000E+00  0.00000000000E+00  0.17246038394E+04  0.17246038394E+04  0.00000000000E+00 0. -1.
         -1   -1    0    0    0  501 -0.00000000000E+00 -0.00000000000E+00 -0.12822688828E+02  0.12822688828E+02  0.00000000000E+00 0.  1.
         25    2    1    2    0    0 -0.38866286401E+02  0.55715015918E+02  0.13660061790E+04  0.13734026267E+04  0.12508853901E+03 0.  0.
          5    1    3    3  502    0  0.59892925841E+01 -0.24383135796E+02  0.76446298655E+02  0.80572438929E+02  0.41800000000E+01 0.  1.
         -5    1    3    3    0  502 -0.44855578985E+02  0.80098151714E+02  0.12895598804E+04  0.12928301877E+04  0.41800000000E+01 0.  1.
        -11    1    1    2    0    0 -0.87797407904E+01 -0.55666599925E+02  0.25868703554E+03  0.26475429468E+03  0.00000000000E+00 0.  1.
         11    1    1    2    0    0  0.47646027192E+02 -0.48415992927E-01  0.87087936000E+02  0.99269606869E+02  0.00000000000E+00 0. -1.
</event>
<event>
 7    1  0.3056346E-009  0.9829331E+02  0.7561462E-02  0.1283926E+00
          1   -1    0    0  501    0  0.00000000000E+00  0.00000000000E+00  0.20831636022E+03  0.20831636022E+03  0.00000000000E+00 0. -1.
         -1   -1    0    0    0  501 -0.00000000000E+00 -0.00000000000E+00 -0.70775999096E+02  0.70775999096E+02  0.00000000000E+00 0.  1.
         25    2    1    2    0    0  0.50358025533E+02 -0.19322637336E+02  0.68978208430E+02  0.15269113520E+03  0.12508914614E+03 0.  0.
          5    1    3    3  502    0  0.37229499808E+02 -0.46851539212E+02  0.95018498818E+02  0.11237032482E+03  0.41800000000E+01 0. -1.
         -5    1    3    3    0  502  0.13128525725E+02  0.27528901876E+02 -0.26040290389E+02  0.40320810380E+02  0.41800000000E+01 0. -1.
        -11    1    1    2    0    0 -0.57813018263E+02 -0.23456532780E+02  0.45614974762E+02  0.77286997181E+02  0.00000000000E+00 0.  1.
         11    1    1    2    0    0  0.74549927307E+01  0.42779170116E+02  0.22947177932E+02  0.49114226935E+02  0.00000000000E+00 0. -1.
</event>
<event>
 7    1  0.3056346E-009  0.1037077E+03  0.7561462E-02  0.1272687E+00
          3   -1    0    0  501    0  0.00000000000E+00  0.00000000000E+00  0.75551684456E+02  0.75551684456E+02  0.00000000000E+00 0. -1.
         -3   -1    0    0    0  501 -0.00000000000E+00 -0.00000000000E+00 -0.18310792201E+03  0.18310792201E+03  0.00000000000E+00 0.  1.
         25    2    1    2    0    0  0.11949011097E+02  0.40787382422E+02 -0.10376834304E+03  0.16799029783E+03  0.12508589736E+03 0.  0.
          5    1    3    3  502    0  0.64464916255E+02  0.54884983678E+01 -0.32265829690E+02  0.72418265705E+02  0.41800000000E+01 0.  1.
         -5    1    3    3    0  502 -0.52515905158E+02  0.35298884054E+02 -0.71502513350E+02  0.95572032130E+02  0.41800000000E+01 0.  1.
        -11    1    1    2    0    0 -0.39422166605E+02 -0.17413035266E+02  0.19947724038E+02  0.47489290491E+02  0.00000000000E+00 0. -1.
         11    1    1    2    0    0  0.27473155509E+02 -0.23374347156E+02 -0.23735618553E+02  0.43180018141E+02  0.00000000000E+00 0.  1.
</event>
<event>
 7    1  0.3056346E-009  0.1195449E+03  0.7561462E-02  0.1243850E+00
          1   -1    0    0  501    0  0.00000000000E+00  0.00000000000E+00  0.25680617266E+03  0.25680617266E+03  0.00000000000E+00 0. -1.
         -1   -1    0    0    0  501 -0.00000000000E+00 -0.00000000000E+00 -0.79053800310E+02  0.79053800310E+02  0.00000000000E+00 0.  1.
         25    2    1    2    0    0  0.47404063893E+02 -0.17288874703E+02  0.18673954522E+03  0.23035951264E+03  0.12509115417E+03 0.  0.
          5    1    3    3  502    0 -0.38872913451E+02 -0.26753739497E+02  0.55633820254E+02  0.73071610994E+02  0.41800000000E+01 0.  1.
         -5    1    3    3    0  502  0.86276977344E+02  0.94648647945E+01  0.13110572496E+03  0.15728790164E+03  0.41800000000E+01 0.  1.
        -11    1    1    2    0    0 -0.70990152612E+02 -0.65419472475E+01 -0.24067308138E+01  0.71331558198E+02  0.00000000000E+00 0.  1.
         11    1    1    2    0    0  0.23586088719E+02  0.23830821950E+02 -0.65804420486E+01  0.34168902140E+02  0.00000000000E+00 0. -1.
</event>
<event>
 7    1  0.3056346E-009  0.1067522E+03  0.7561462E-02  0.1266705E+00
         -3   -1    0    0    0  501 -0.00000000000E+00  0.00000000000E+00  0.33096809532E+03  0.33096809532E+03  0.00000000000E+00 0.  1.
          3   -1    0    0  501    0  0.00000000000E+00 -0.00000000000E+00 -0.53168200349E+02  0.53168200349E+02  0.00000000000E+00 0. -1.
         25    2    1    2    0    0 -0.53770175947E+02  0.52469778307E+02  0.16798660543E+03  0.22251303225E+03  0.12509292730E+03 0.  0.
          5    1    3    3  502    0 -0.48683354252E+02  0.65416643692E+02  0.35167973050E+02  0.88902558915E+02  0.41800000000E+01 0. -1.
         -5    1    3    3    0  502 -0.50868216953E+01 -0.12946865385E+02  0.13281863238E+03  0.13361047334E+03  0.41800000000E+01 0. -1.
        -11    1    1    2    0    0  0.96315751740E+01 -0.69392103701E+02  0.76871520874E+02  0.10400606722E+03  0.00000000000E+00 0.  1.
         11    1    1    2    0    0  0.44138600773E+02  0.16922325395E+02  0.32941768666E+02  0.57617196198E+02  0.00000000000E+00 0. -1.
</event>
<event>
 7    1  0.3056346E-009  0.4017666E+03  0.7561462E-02  0.1043170E+00
          2   -1    0    0  501    0  0.00000000000E+00  0.00000000000E+00  0.15547955457E+03  0.15547955457E+03  0.00000000000E+00 0. -1.
         -2   -1    0    0    0  501 -0.00000000000E+00 -0.00000000000E+00 -0.13031779572E+04  0.13031779572E+04  0.00000000000E+00 0.  1.
         25    2    1    2    0    0  0.38847953989E+03  0.44185736841E+01 -0.25609861315E+03  0.48184003044E+03  0.12508972209E+03 0.  0.
          5    1    3    3  502    0  0.25871866142E+03 -0.50914984414E+02 -0.19537712275E+03  0.32820325090E+03  0.41800000000E+01 0.  1.
         -5    1    3    3    0  502  0.12976087846E+03  0.55333558098E+02 -0.60721490399E+02  0.15363677954E+03  0.41800000000E+01 0.  1.
        -11    1    1    2    0    0 -0.21025182531E+03  0.42249146550E+02 -0.49950237430E+03  0.54359308528E+03  0.00000000000E+00 0. -1.
         11    1    1    2    0    0 -0.17822771458E+03 -0.46667720234E+02 -0.39209741523E+03  0.43322439611E+03  0.00000000000E+00 0.  1.
</event>
<event>
 7    1  0.3056346E-009  0.9443670E+02  0.7561462E-02  0.1292450E+00
          1   -1    0    0  501    0  0.00000000000E+00  0.00000000000E+00  0.26866065170E+02  0.26866065170E+02  0.00000000000E+00 0. -1.
         -1   -1    0    0    0  501 -0.00000000000E+00 -0.00000000000E+00 -0.67461248842E+03  0.67461248842E+03  0.00000000000E+00 0.  1.
         25    2    1    2    0    0 -0.15350945198E+02  0.63349248106E+02 -0.44830779064E+03  0.46997444674E+03  0.12508927486E+03 0.  0.
          5    1    3    3  502    0  0.23447250054E+02 -0.23007235391E+01 -0.31827023546E+03  0.31916842269E+03  0.41800000000E+01 0. -1.
         -5    1    3    3    0  502 -0.38798195252E+02  0.65649971645E+02 -0.13003755518E+03  0.15080602405E+03  0.41800000000E+01 0. -1.
        -11    1    1    2    0    0  0.35417508028E+02 -0.19688071934E+02 -0.17085282363E+03  0.17559244685E+03  0.00000000000E+00 0.  1.
         11    1    1    2    0    0 -0.20066562830E+02 -0.43661176172E+02 -0.28585808988E+02  0.55911660001E+02  0.00000000000E+00 0. -1.
</event>
<event>
 7    1  0.3056346E-009  0.8559328E+02  0.7561462E-02  0.1313888E+00
          2   -1    0    0  501    0  0.00000000000E+00  0.00000000000E+00  0.96129873337E+03  0.96129873337E+03  0.00000000000E+00 0.  1.
         -2   -1    0    0    0  501 -0.00000000000E+00 -0.00000000000E+00 -0.30812412535E+02  0.30812412535E+02  0.00000000000E+00 0. -1.
         25    2    1    2    0    0 -0.47018275829E+02  0.89342136682E+01  0.81597374502E+03  0.82689287724E+03  0.12509252351E+03 0.  0.
          5    1    3    3  502    0 -0.77473528874E+02 -0.46946605747E+01  0.73660446111E+03  0.74069412854E+03  0.41800000000E+01 0. -1.
         -5    1    3    3    0  502  0.30455253045E+02  0.13628874243E+02  0.79369283904E+02  0.86198748707E+02  0.41800000000E+01 0. -1.
        -11    1    1    2    0    0  0.11577380373E+02 -0.19649578468E+02 -0.17094597221E+02  0.28502051232E+02  0.00000000000E+00 0. -1.
         11    1    1    2    0    0  0.35440895456E+02  0.10715364800E+02  0.13160717303E+03  0.13671621743E+03  0.00000000000E+00 0.  1.
</event>
<event>
 7    1  0.3056346E-009  0.8167109E+02  0.7561462E-02  0.1324375E+00
          1   -1    0    0  501    0  0.00000000000E+00  0.00000000000E+00  0.87762990905E+03  0.87762990905E+03  0.00000000000E+00 0. -1.
         -1   -1    0    0    0  501 -0.00000000000E+00 -0.00000000000E+00 -0.17049055825E+02  0.17049055825E+02  0.00000000000E+00 0.  1.
         25    2    1    2    0    0  0.59682469207E+02  0.27959584618E+01  0.53362419736E+03  0.55133629828E+03  0.12508842987E+03 0.  0.
          5    1    3    3  502    0  0.46573812171E+02  0.76144964727E+01  0.55422584771E+02  0.72912521829E+02  0.41800000000E+01 0. -1.
         -5    1    3    3    0  502  0.13108657036E+02 -0.48185380108E+01  0.47820161259E+03  0.47842377646E+03  0.41800000000E+01 0. -1.
        -11    1    1    2    0    0  0.40076468897E+00 -0.33781879617E+02  0.15358884351E+03  0.15726063988E+03  0.00000000000E+00 0. -1.
         11    1    1    2    0    0 -0.60083233896E+02  0.30985921155E+02  0.17336781236E+03  0.18608202672E+03  0.00000000000E+00 0.  1.
</event>
<event>
 7    1  0.3056346E-009  0.1343921E+03  0.7561462E-02  0.1221080E+00
         -1   -1    0    0    0  501 -0.00000000000E+00  0.00000000000E+00  0.41898882478E+02  0.41898882478E+02  0.00000000000E+00 0.  1.
          1   -1    0    0  501    0  0.00000000000E+00 -0.00000000000E+00 -0.50882779805E+03  0.50882779805E+03  0.00000000000E+00 0. -1.
         25    2    1    2    0    0 -0.82222843979E+02 -0.52205413392E+02 -0.26740070721E+03  0.31086932676E+03  0.12510235348E+03 0.  0.
          5    1    3    3  502    0 -0.30561742817E+02 -0.80793773226E+02 -0.21527907229E+03  0.23200044242E+03  0.41800000000E+01 0. -1.
         -5    1    3    3    0  502 -0.51661101162E+02  0.28588359834E+02 -0.52121634916E+02  0.78868884343E+02  0.41800000000E+01 0. -1.
        -11    1    1    2    0    0  0.86257545501E+02  0.17303056099E+02 -0.94519435441E+02  0.12912661841E+03  0.00000000000E+00 0.  1.
         11    1    1    2    0    0 -0.40347015225E+01  0.34902357293E+02 -0.10500877293E+03  0.11073073536E+03  0.00000000000E+00 0. -1.
</event>
<event>
 7    1  0.3056346E-009  0.1109491E+03  0.7561462E-02  0.1258822E+00
          1   -1    0    0  501    0  0.00000000000E+00  0.00000000000E+00  0.25852987583E+02  0.25852987583E+02  0.00000000000E+00 0. -1.
         -1   -1    0    0    0  501 -0.00000000000E+00 -0.00000000000E+00 -0.81886118749E+03  0.81886118749E+03  0.00000000000E+00 0.  1.
         25    2    1    2    0    0 -0.80380395209E+02  0.62438006483E+02 -0.45599755784E+03  0.48367559632E+03  0.12509515230E+03 0.  0.
          5    1    3    3  502    0 -0.47255005090E+02  0.31998751094E+02 -0.52503286737E+02  0.77659661960E+02  0.41800000000E+01 0.  1.
         -5    1    3    3    0  502 -0.33125390119E+02  0.30439255389E+02 -0.40349427110E+03  0.40601593436E+03  0.41800000000E+01 0.  1.
        -11    1    1    2    0    0  0.31811040637E+02 -0.63381024132E+02 -0.26388415621E+03  0.27324703918E+03  0.00000000000E+00 0.  1.
         11    1    1    2    0    0  0.48569354572E+02  0.94301764814E+00 -0.73126485859E+02  0.87791539569E+02  0.00000000000E+00 0. -1.
</event>
<event>
 7    1  0.3056346E-009  0.8896791E+02  0.7561462E-02  0.1305370E+00
          1   -1    0    0  501    0  0.00000000000E+00  0.00000000000E+00  0.32095169018E+02  0.32095169018E+02  0.00000000000E+00 0. -1.
         -1   -1    0    0    0  501 -0.00000000000E+00 -0.00000000000E+00 -0.44458110977E+03  0.44458110977E+03  0.00000000000E+00 0.  1.
         25    2    1    2    0    0  0.23138820608E+02 -0.31877073033E+02 -0.28654793951E+03  0.31513117929E+03  0.12508551364E+03 0.  0.
          5    1    3    3  502    0  0.59956274185E+01 -0.53128305416E+02 -0.39654013631E+02  0.66696908336E+02  0.41800000000E+01 0.  1.
         -5    1    3    3    0  502  0.17143193189E+02  0.21251232383E+02 -0.24689392588E+03  0.24843427096E+03  0.41800000000E+01 0.  1.
        -11    1    1    2    0    0 -0.17291276738E+02  0.62839632254E+02 -0.10543146302E+03  0.12394999406E+03  0.00000000000E+00 0.  1.
         11    1    1    2    0    0 -0.58475438699E+01 -0.30962559221E+02 -0.20506538223E+02  0.37595105436E+02  0.00000000000E+00 0. -1.
</event>
<event>
 7    1  0.3056346E-009  0.1118579E+03  0.7561462E-02  0.1257168E+00
         -1   -1    0    0    0  501 -0.00000000000E+00  0.00000000000E+00  0.69908150916E+02  0.69908150916E+02  0.00000000000E+00 0.  1.
          1   -1    0    0  501    0  0.00000000000E+00 -0.00000000000E+00 -0.27744061658E+03  0.27744061658E+03  0.00000000000E+00 0. -1.
         25    2    1    2    0    0  0.22224509085E+02 -0.21984838907E+02 -0.12990538668E+02  0.12958877037E+03  0.12508890184E+03 0.  0.
          5    1    3    3  502    0  0.69857051345E+02 -0.32115320448E+02  0.58159821219E+01  0.77218517715E+02  0.41800000000E+01 0. -1.
         -5    1    3    3    0  502 -0.47632542260E+02  0.10130481541E+02 -0.18806520790E+02  0.52370252650E+02  0.41800000000E+01 0. -1.
        -11    1    1    2    0    0  0.36209665581E+02  0.27200683440E+01 -0.72758038382E+02  0.81315870545E+02  0.00000000000E+00 0. -1.
         11    1    1    2    0    0 -0.58434174666E+02  0.19264770563E+02 -0.12178388862E+03  0.13644412659E+03  0.00000000000E+00 0.  1.
</event>
<event>
 7    1  0.3056346E-009  0.1168981E+03  0.7561462E-02  0.1248304E+00
          2   -1    0    0  501    0  0.00000000000E+00  0.00000000000E+00  0.11562882903E+03  0.11562882903E+03  0.00000000000E+00 0. -1.
         -2   -1    0    0    0  501 -0.00000000000E+00 -0.00000000000E+00 -0.13058899924E+03  0.13058899924E+03  0.00000000000E+00 0.  1.
         25    2    1    2    0    0  0.11701393703E+02 -0.53951824166E+02 -0.28217024584E+02  0.13961229019E+03  0.12509064373E+03 0.  0.
          5    1    3    3  502    0  0.58782132908E+02 -0.10531974187E+01  0.88045703010E+01  0.59593969763E+02  0.41800000000E+01 0. -1.
         -5    1    3    3    0  502 -0.47080739205E+02 -0.52898626747E+02 -0.37021594885E+02  0.80018320425E+02  0.41800000000E+01 0. -1.
        -11    1    1    2    0    0  0.24918974597E+02  0.61650761835E+02  0.17988773595E+02  0.68886629365E+02  0.00000000000E+00 0. -1.
         11    1    1    2    0    0 -0.36620368300E+02 -0.76989376696E+01 -0.47319192206E+01  0.37718908722E+02  0.00000000000E+00 0.  1.
</event>
<event>
 7    1  0.3056346E-009  0.1069405E+03  0.7561462E-02  0.1266343E+00
         -1   -1    0    0    0  501 -0.00000000000E+00  0.00000000000E+00  0.12466393840E+03  0.12466393840E+03  0.00000000000E+00 0.  1.
          1   -1    0    0  501    0  0.00000000000E+00 -0.00000000000E+00 -0.96947314390E+02  0.96947314390E+02  0.00000000000E+00 0. -1.
         25    2    1    2    0    0 -0.73859346404E+00 -0.22893411592E+02  0.15700217894E+02  0.12813356214E+03  0.12508820524E+03 0.  0.
          5    1    3    3  502    0 -0.48844339214E+02  0.26623368281E+02 -0.48116706596E+01  0.55992836921E+02  0.41800000000E+01 0.  1.
         -5    1    3    3    0  502  0.48105745750E+02 -0.49516779873E+02  0.20511888553E+02  0.72140725220E+02  0.41800000000E+01 0.  1.
        -11    1    1    2    0    0  0.43329738174E+02  0.12349991024E+02 -0.71108520986E+01  0.45613076042E+02  0.00000000000E+00 0.  1.
         11    1    1    2    0    0 -0.42591144709E+02  0.10543420568E+02  0.19127258219E+02  0.47864614612E+02  0.00000000000E+00 0. -1.
</event>
<event>
 7    1  0.3056346E-009  0.1387276E+03  0.7561462E-02  0.1215051E+00
         -2   -1    0    0    0  501 -0.00000000000E+00  0.00000000000E+00  0.14002834279E+03  0.14002834279E+03  0.00000000000E+00 0.  1.
          2   -1    0    0  501    0  0.00000000000E+00 -0.00000000000E+00 -0.18627037833E+03  0.18627037833E+03  0.00000000000E+00 0. -1.
         25    2    1    2    0    0  0.10358139188E+03  0.31369345115E+02  0.26941668831E+02  0.16757278769E+03  0.12506656267E+03 0.  0.
          5    1    3    3  502    0  0.92453394197E+01  0.53945326997E+02 -0.21644604425E+02  0.59004541406E+02  0.41800000000E+01 0. -1.
         -5    1    3    3    0  502  0.94336052457E+02 -0.22575981882E+02  0.48586273257E+02  0.10856824628E+03  0.41800000000E+01 0. -1.
        -11    1    1    2    0    0 -0.95588195001E+02 -0.26091141762E+01 -0.19932773006E+02  0.97679199117E+02  0.00000000000E+00 0.  1.
         11    1    1    2    0    0 -0.79931968751E+01 -0.28760230939E+02 -0.53250931368E+02  0.61046734323E+02  0.00000000000E+00 0. -1.
</event>
<event>
 7    1  0.3056346E-009  0.1010939E+03  0.7561462E-02  0.1278012E+00
          2   -1    0    0  501    0  0.00000000000E+00  0.00000000000E+00  0.45166712403E+02  0.45166712403E+02  0.00000000000E+00 0.  1.
         -2   -1    0    0    0  501 -0.00000000000E+00 -0.00000000000E+00 -0.31081511682E+03  0.31081511682E+03  0.00000000000E+00 0. -1.
         25    2    1    2    0    0 -0.64265997213E+01  0.45265455335E+02 -0.15021995220E+03  0.20075699520E+03  0.12508826665E+03 0.  0.
          5    1    3    3  502    0 -0.44316835984E+02 -0.22987746972E+02 -0.33471798572E+02  0.60251573939E+02  0.41800000000E+01 0.  1.
         -5    1    3    3    0  502  0.37890236263E+02  0.68253202307E+02 -0.11674815363E+03  0.14050542126E+03  0.41800000000E+01 0.  1.
        -11    1    1    2    0    0 -0.61658633486E+00  0.14108431900E+02  0.92979768741E+01  0.16907998206E+02  0.00000000000E+00 0.  1.
         11    1    1    2    0    0  0.70431860562E+01 -0.59373887235E+02 -0.12472642909E+03  0.13831683581E+03  0.00000000000E+00 0. -1.
</event>
<event>
 7    1  0.3056346E-009  0.1096764E+03  0.7561462E-02  0.1261170E+00
         -2   -1    0    0    0  501 -0.00000000000E+00  0.00000000000E+00  0.38683738438E+03  0.38683738438E+03  0.00000000000E+00 0.  1.
          2   -1    0    0  501    0  0.00000000000E+00 -0.00000000000E+00 -0.41664524652E+02  0.41664524652E+02  0.00000000000E+00 0. -1.
         25    2    1    2    0    0  0.52191787220E+01  0.22030929135E+02  0.88262308051E+02  0.15475564174E+03  0.12508585836E+03 0.  0.
          5    1    3    3  502    0 -0.59473700799E+02  0.10540392144E+02  0.50606586840E+02  0.78909568398E+02  0.41800000000E+01 0. -1.
         -5    1    3    3    0  502  0.64692879521E+02  0.11490536990E+02  0.37655721211E+02  0.75846073339E+02  0.41800000000E+01 0. -1.
        -11    1    1    2    0    0 -0.30926637424E+02  0.24736493169E+02  0.13447871044E+03  0.14018871053E+03  0.00000000000E+00 0.  1.
         11    1    1    2    0    0  0.25707458702E+02 -0.46767422304E+02  0.12243184124E+03  0.13355755677E+03  0.00000000000E+00 0. -1.
</event>
<event>
 7    1  0.3056346E-009  0.1020043E+03  0.7561462E-02  0.1276137E+00
          1   -1    0    0  501    0  0.00000000000E+00  0.00000000000E+00  0.93089676345E+02  0.93089676345E+02  0.00000000000E+00 0. -1.
         -1   -1    0    0    0  501 -0.00000000000E+00 -0.00000000000E+00 -0.16373034145E+03  0.16373034145E+03  0.00000000000E+00 0.  1.
         25    2    1    2    0    0  0.40710887273E+02  0.14058282583E+02  0.90555683912E+01  0.13260652024E+03  0.12508986466E+03 0.  0.
          5    1    3    3  502    0 -0.23094798500E+02  0.47345761428E+02  0.25487743722E+02  0.58669313299E+02  0.41800000000E+01 0.  1.
         -5    1    3    3    0  502  0.63805685774E+02 -0.33287478845E+02 -0.16432175331E+02  0.73937206946E+02  0.41800000000E+01 0.  1.
        -11    1    1    2    0    0  0.47782062302E+01  0.21068641245E+02  0.46973659708E+01  0.22108463215E+02  0.00000000000E+00 0.  1.
         11    1    1    2    0    0 -0.45489093503E+02 -0.35126923828E+02 -0.84393599465E+02  0.10210503433E+03  0.00000000000E+00 0. -1.
</event>
<event>
 7    1  0.3056346E-009  0.2051447E+03  0.7561462E-02  0.1145470E+00
          1   -1    0    0  501    0  0.00000000000E+00  0.00000000000E+00  0.29505920524E+03  0.29505920524E+03  0.00000000000E+00 0. -1.
         -1   -1    0    0    0  501 -0.00000000000E+00 -0.00000000000E+00 -0.18289824214E+03  0.18289824214E+03  0.00000000000E+00 0.  1.
         25    2    1    2    0    0  0.20360556839E+03 -0.66990694714E-01  0.26619380897E+02  0.24043917562E+03  0.12508866362E+03 0.  0.
          5    1    3    3  502    0  0.14399274346E+03 -0.11023669818E+02  0.74992743265E+02  0.16277842427E+03  0.41800000000E+01 0.  1.
         -5    1    3    3    0  502  0.59612824931E+02  0.10956679124E+02 -0.48373362368E+02  0.77660751351E+02  0.41800000000E+01 0.  1.
        -11    1    1    2    0    0 -0.71004326565E+02 -0.11601239603E+02 -0.11403671231E+02  0.72843989929E+02  0.00000000000E+00 0.  1.
         11    1    1    2    0    0 -0.13260124183E+03  0.11668230298E+02  0.96945253434E+02  0.16467428183E+03  0.00000000000E+00 0. -1.
</event>
<event>
 7    1  0.3056346E-009  0.1250077E+03  0.7561462E-02  0.1235057E+00
         -1   -1    0    0    0  501 -0.00000000000E+00  0.00000000000E+00  0.22144446385E+03  0.22144446385E+03  0.00000000000E+00 0.  1.
          1   -1    0    0  501    0  0.00000000000E+00 -0.00000000000E+00 -0.84548572814E+02  0.84548572814E+02  0.00000000000E+00 0. -1.
         25    2    1    2    0    0  0.34506776710E+01  0.81555172029E+02  0.99315251900E+02  0.17937321142E+03  0.12509227175E+03 0.  0.
          5    1    3    3  502    0  0.34888422692E+02 -0.12252164663E+02 -0.25618174062E+01  0.37300842957E+02  0.41800000000E+01 0.  1.
         -5    1    3    3    0  502 -0.31437745021E+02  0.93807336692E+02  0.10187706931E+03  0.14207236846E+03  0.41800000000E+01 0.  1.
        -11    1    1    2    0    0  0.34561944393E+02 -0.62117712475E+02  0.43768976499E+02  0.83479707157E+02  0.00000000000E+00 0.  1.
         11    1    1    2    0    0 -0.38012622064E+02 -0.19437459555E+02 -0.61883373578E+01  0.43140118097E+02  0.00000000000E+00 0. -1.
</event>
<event>
 7    1  0.3056346E-009  0.1180231E+03  0.7561462E-02  0.1246394E+00
          2   -1    0    0  501    0  0.00000000000E+00  0.00000000000E+00  0.70548693204E+02  0.70548693204E+02  0.00000000000E+00 0. -1.
         -2   -1    0    0    0  501 -0.00000000000E+00 -0.00000000000E+00 -0.22078492108E+03  0.22078492108E+03  0.00000000000E+00 0.  1.
         25    2    1    2    0    0  0.12918667321E+02 -0.56759041073E+02 -0.12414435809E+03  0.18560145041E+03  0.12509035151E+03 0.  0.
          5    1    3    3  502    0 -0.33650638933E+02  0.24588422631E+02 -0.23596199393E+02  0.48075035662E+02  0.41800000000E+01 0.  1.
         -5    1    3    3    0  502  0.46569306254E+02 -0.81347463705E+02 -0.10054815870E+03  0.13752641475E+03  0.41800000000E+01 0.  1.
        -11    1    1    2    0    0  0.17368751610E+02  0.66332278465E+02 -0.27640724187E+02  0.73930063793E+02  0.00000000000E+00 0.  1.
         11    1    1    2    0    0 -0.30287418932E+02 -0.95732373916E+01  0.15488544004E+01  0.31802100082E+02  0.00000000000E+00 0. -1.
</event>
<event>
 7    1  0.3056346E-009  0.1080498E+03  0.7561462E-02  0.1264225E+00
          3   -1    0    0  501    0  0.00000000000E+00  0.00000000000E+00  0.44977286124E+02  0.44977286124E+02  0.00000000000E+00 0. -1.
         -3   -1    0    0    0  501 -0.00000000000E+00 -0.00000000000E+00 -0.37251640356E+03  0.37251640356E+03  0.00000000000E+00 0.  1.
         25    2    1    2    0    0 -0.36646997865E+02  0.61197957002E+01 -0.26361931967E+03  0.29414768871E+03  0.12508901917E+03 0.  0.
          5    1    3    3  502    0  0.64628323344E+01  0.49075939739E+02 -0.44490650457E+02  0.66686628653E+02  0.41800000000E+01 0. -1.
         -5    1    3    3    0  502 -0.43109830199E+02 -0.42956144039E+02 -0.21912866921E+03  0.22746106005E+03  0.41800000000E+01 0. -1.
        -11    1    1    2    0    0  0.70944206426E+02 -0.45106952832E+01 -0.45182105439E+02  0.84230929292E+02  0.00000000000E+00 0.  1.
         11    1    1    2    0    0 -0.34297208562E+02 -0.16091004170E+01 -0.18737692331E+02  0.39115071688E+02  0.00000000000E+00 0. -1.
</event>
<event>
 7    1  0.3056346E-009  0.1351470E+03  0.7561462E-02  0.1220012E+00
          1   -1    0    0  501    0  0.00000000000E+00  0.00000000000E+00  0.45186671944E+02  0.45186671944E+02  0.00000000000E+00 0. -1.
         -1   -1    0    0    0  501 -0.00000000000E+00 -0.00000000000E+00 -0.54310751753E+03  0.54310751753E+03  0.00000000000E+00 0.  1.
         25    2    1    2    0    0  0.68449085689E+02 -0.81487569720E+02 -0.20391261006E+03  0.26182725857E+03  0.12509060492E+03 0.  0.
          5    1    3    3  502    0  0.94377731116E+02 -0.65788691077E+02 -0.96735357386E+02  0.15036791471E+03  0.41800000000E+01 0.  1.
         -5    1    3    3    0  502 -0.25928645427E+02 -0.15698878643E+02 -0.10717725267E+03  0.11145934387E+03  0.41800000000E+01 0.  1.
        -11    1    1    2    0    0  0.12615255773E+02  0.67091001050E+01 -0.21284433021E+01  0.14446001984E+02  0.00000000000E+00 0. -1.
         11    1    1    2    0    0 -0.81064341461E+02  0.74778469615E+02 -0.29187979222E+03  0.31202092892E+03  0.00000000000E+00 0.  1.
</event>
<event>
 7    1  0.3056346E-009  0.2294431E+03  0.7561462E-02  0.1127032E+00
          1   -1    0    0  501    0  0.00000000000E+00  0.00000000000E+00  0.95768777356E+03  0.95768777356E+03  0.00000000000E+00 0. -1.
         -1   -1    0    0    0  501 -0.00000000000E+00 -0.00000000000E+00 -0.77087063924E+02  0.77087063924E+02  0.00000000000E+00 0.  1.
         25    2    1    2    0    0  0.21030550336E+03 -0.81376446669E+02  0.25365278089E+03  0.36171465919E+03  0.12508889082E+03 0.  0.
          5    1    3    3  502    0  0.41008315802E+02 -0.31364854674E+01  0.13365912236E+03  0.13990622894E+03  0.41800000000E+01 0. -1.
         -5    1    3    3    0  502  0.16929718756E+03 -0.78239961202E+02  0.11999365853E+03  0.22180843025E+03  0.41800000000E+01 0. -1.
        -11    1    1    2    0    0 -0.12734838184E+03  0.75007213319E+02  0.49909881095E+03  0.52052215659E+03  0.00000000000E+00 0. -1.
         11    1    1    2    0    0 -0.82957121516E+02  0.63692333500E+01  0.12784911780E+03  0.15253802171E+03  0.00000000000E+00 0.  1.
</event>
<event>
 7    1  0.3056346E-009  0.1261914E+03  0.7561462E-02  0.1233219E+00
          2   -1    0    0  501    0  0.00000000000E+00  0.00000000000E+00  0.27978220231E+03  0.27978220231E+03  0.00000000000E+00 0. -1.
         -2   -1    0    0    0  501 -0.00000000000E+00 -0.00000000000E+00 -0.67616914529E+02  0.67616914529E+02  0.00000000000E+00 0.  1.
         25    2    1    2    0    0  0.98645768911E+02  0.17049574020E+02  0.11583905728E+03  0.19770844898E+03  0.12509303701E+03 0.  0.
          5    1    3    3  502    0  0.88509575979E+02  0.57187538075E+02  0.11507902220E+03  0.15609296365E+03  0.41800000000E+01 0.  1.
         -5    1    3    3    0  502  0.10136192932E+02 -0.40137964055E+02  0.76003507850E+00  0.41615485326E+02  0.41800000000E+01 0.  1.
        -11    1    1    2    0    0 -0.44642674035E+02  0.87060387789E+01  0.13367061464E+02  0.47407191315E+02  0.00000000000E+00 0.  1.
         11    1    1    2    0    0 -0.54003094876E+02 -0.25755612799E+02  0.82959169042E+02  0.10228347655E+03  0.00000000000E+00 0. -1.
</event>
<event>
 7    1  0.3056346E-009  0.5694055E+02  0.7561462E-02  0.1411139E+00
         -1   -1    0    0    0  501 -0.00000000000E+00  0.00000000000E+00  0.57139907673E+02  0.57139907673E+02  0.00000000000E+00 0.  1.
          1   -1    0    0  501    0  0.00000000000E+00 -0.00000000000E+00 -0.26270830096E+03  0.26270830096E+03  0.00000000000E+00 0. -1.
         25    2    1    2    0    0 -0.21234201763E+02  0.40065263431E+02 -0.16120093334E+03  0.20902043182E+03  0.12509070049E+03 0.  0.
          5    1    3    3  502    0 -0.11963205941E+02  0.32801706555E+02 -0.18166773695E+03  0.18503975059E+03  0.41800000000E+01 0.  1.
         -5    1    3    3    0  502 -0.92709958222E+01  0.72635568760E+01  0.20466803610E+02  0.23980681226E+02  0.41800000000E+01 0.  1.
        -11    1    1    2    0    0  0.30680701820E+02 -0.45830860943E+02  0.93874256469E+01  0.55945482742E+02  0.00000000000E+00 0.  1.
         11    1    1    2    0    0 -0.94465000572E+01  0.57655975119E+01 -0.53754885595E+02  0.54882294078E+02  0.00000000000E+00 0. -1.
</event>
<event>
 7    1  0.3056346E-009  0.1326891E+03  0.7561462E-02  0.1223519E+00
          2   -1    0    0  501    0  0.00000000000E+00  0.00000000000E+00  0.31011812216E+03  0.31011812216E+03  0.00000000000E+00 0.  1.
         -2   -1    0    0    0  501 -0.00000000000E+00 -0.00000000000E+00 -0.81124362859E+02  0.81124362859E+02  0.00000000000E+00 0. -1.
         25    2    1    2    0    0 -0.12324014947E+02 -0.11401341705E+03  0.12714787308E+03  0.21204965699E+03  0.12509010669E+03 0.  0.
          5    1    3    3  502    0  0.28984995068E+02 -0.47165410300E+01  0.81163968373E+02  0.86414338281E+02  0.41800000000E+01 0. -1.
         -5    1    3    3    0  502 -0.41309010016E+02 -0.10929687602E+03  0.45983904707E+02  0.12563531871E+03  0.41800000000E+01 0. -1.
        -11    1    1    2    0    0 -0.71549042136E+01  0.73479182546E+02  0.69167515672E+01  0.74150012638E+02  0.00000000000E+00 0. -1.
         11    1    1    2    0    0  0.19478919161E+02  0.40534234503E+02  0.94929134652E+02  0.10504281539E+03  0.00000000000E+00 0.  1.
</event>
<event>
 7    1  0.3056346E-009  0.1207018E+03  0.7561462E-02  0.1241944E+00
          1   -1    0    0  501    0  0.00000000000E+00  0.00000000000E+00  0.78851167938E+02  0.78851167938E+02  0.00000000000E+00 0. -1.
         -1   -1    0    0    0  501 -0.00000000000E+00 -0.00000000000E+00 -0.25361577184E+03  0.25361577184E+03  0.00000000000E+00 0.  1.
         25    2    1    2    0    0 -0.76313868967E+02 -0.46665524072E+02 -0.81829469322E+02  0.17419784512E+03  0.12508936590E+03 0.  0.
          5    1    3    3  502    0  0.16581852119E+02  0.25799409953E+02 -0.46576841116E+00  0.30955721827E+02  0.41800000000E+01 0. -1.
         -5    1    3    3    0  502 -0.92895721086E+02 -0.72464934025E+02 -0.81363700911E+02  0.14324212329E+03  0.41800000000E+01 0. -1.
        -11    1    1    2    0    0  0.55991462152E+02  0.20946023531E+02 -0.10702535690E+03  0.12258958665E+03  0.00000000000E+00 0.  1.
         11    1    1    2    0    0  0.20322406815E+02  0.25719500541E+02  0.14090222318E+02  0.35679508009E+02  0.00000000000E+00 0. -1.
</event>
<event>
 7    1  0.3056346E-009  0.1087132E+03  0.7561462E-02  0.1262971E+00
          2   -1    0    0  501    0  0.00000000000E+00  0.00000000000E+00  0.33687512088E+03  0.33687512088E+03  0.00000000000E+00 0. -1.
         -2   -1    0    0    0  501 -0.00000000000E+00 -0.00000000000E+00 -0.41336458561E+02  0.41336458561E+02  0.00000000000E+00 0.  1.
         25    2    1    2    0    0 -0.39601460390E+02  0.62759298647E+00  0.12503289557E+03  0.18124515958E+03  0.12509161985E+03 0.  0.
          5    1    3    3  502    0 -0.37702592274E+02 -0.53896743196E+02  0.31885501800E+02  0.73215449301E+02  0.41800000000E+01 0. -1.
         -5    1    3    3    0  502 -0.18988681168E+01  0.54524336182E+02  0.93147393769E+02  0.10802971028E+03  0.41800000000E+01 0. -1.
        -11    1    1    2    0    0 -0.25745934819E+02  0.14746426748E+02  0.36100430251E+02  0.46728485165E+02  0.00000000000E+00 0.  1.
         11    1    1    2    0    0  0.65347395209E+02 -0.15374019735E+02  0.13440533650E+03  0.15023793470E+03  0.00000000000E+00 0. -1.
</event>
<event>
 7    1  0.3056346E-009  0.1946251E+03  0.7561462E-02  0.1154355E+00
          1   -1    0    0  501    0  0.00000000000E+00  0.00000000000E+00  0.93567119793E+03  0.93567119793E+03  0.00000000000E+00 0. -1.
         -1   -1    0    0    0  501 -0.00000000000E+00 -0.00000000000E+00 -0.48807831865E+02  0.48807831865E+02  0.00000000000E+00 0.  1.
         25    2    1    2    0    0 -0.16587736814E+03 -0.49616099719E+02  0.31380831725E+03  0.37960380881E+03  0.12508530319E+03 0.  0.
          5    1    3    3  502    0 -0.80241285203E+02 -0.74050200349E+02  0.24058531816E+03  0.26423637853E+03  0.41800000000E+01 0.  1.
         -5    1    3    3    0  502 -0.85636082932E+02  0.24434100630E+02  0.73222999096E+02  0.11536743028E+03  0.41800000000E+01 0.  1.
        -11    1    1    2    0    0  0.13703416524E+03  0.71555082896E+02  0.41881860038E+03  0.44643869944E+03  0.00000000000E+00 0. -1.
         11    1    1    2    0    0  0.28843202899E+02 -0.21938983178E+02  0.15423644843E+03  0.15843652155E+03  0.00000000000E+00 0.  1.
</event>
<event>
 7    1  0.3056346E-009  0.1290641E+03  0.7561462E-02  0.1228851E+00
         -1   -1    0    0    0  501 -0.00000000000E+00  0.00000000000E+00  0.76724145923E+02  0.76724145923E+02  0.00000000000E+00 0.  1.
          1   -1    0    0  501    0  0.00000000000E+00 -0.00000000000E+00 -0.25405639478E+03  0.25405639478E+03  0.00000000000E+00 0. -1.
         25    2    1    2    0    0 -0.65131929786E+02 -0.56481505077E+02 -0.73948798536E+02  0.16895546344E+03  0.12508075443E+03 0.  0.
          5    1    3    3  502    0 -0.75585854150E+02  0.26982971475E+01 -0.77807352489E+02  0.10859078532E+03  0.41800000000E+01 0. -1.
         -5    1    3    3    0  502  0.10453924365E+02 -0.59179802225E+02  0.38585539531E+01  0.60364678121E+02  0.41800000000E+01 0. -1.
        -11    1    1    2    0    0  0.14071176891E+02 -0.23415482955E+02 -0.11025440640E+02  0.29459178576E+02  0.00000000000E+00 0.  1.
         11    1    1    2    0    0  0.51060752895E+02  0.79896988032E+02 -0.92358009682E+02  0.13236589869E+03  0.00000000000E+00 0. -1.
</event>
<event>
 7    1  0.3056346E-009  0.1200778E+03  0.7561462E-02  0.1242969E+00
          1   -1    0    0  501    0  0.00000000000E+00  0.00000000000E+00  0.13997235052E+03  0.13997235052E+03  0.00000000000E+00 0. -1.
         -1   -1    0    0    0  501 -0.00000000000E+00 -0.00000000000E+00 -0.16539316984E+03  0.16539316984E+03  0.00000000000E+00 0.  1.
         25    2    1    2    0    0 -0.16037115156E+02  0.10355859796E+03  0.54847967845E+01  0.16326270283E+03  0.12507219861E+03 0.  0.
          5    1    3    3  502    0 -0.48847383880E+01  0.90394049258E+02  0.58157557501E+02  0.10767877555E+03  0.41800000000E+01 0.  1.
         -5    1    3    3    0  502 -0.11152376768E+02  0.13164548706E+02 -0.52672760717E+02  0.55583927279E+02  0.41800000000E+01 0.  1.
        -11    1    1    2    0    0  0.48766405941E+02 -0.62319684093E+02 -0.40011789507E+02  0.88672705346E+02  0.00000000000E+00 0.  1.
         11    1    1    2    0    0 -0.32729290786E+02 -0.41238913872E+02  0.91061734032E+01  0.53430112172E+02  0.00000000000E+00 0. -1.
</event>
<event>
 7    1  0.3056346E-009  0.1528891E+03  0.7561462E-02  0.1196967E+00
          1   -1    0    0  501    0  0.00000000000E+00  0.00000000000E+00  0.83481097337E+02  0.83481097337E+02  0.00000000000E+00 0. -1.
         -1   -1    0    0    0  501 -0.00000000000E+00 -0.00000000000E+00 -0.36551858707E+03  0.36551858707E+03  0.00000000000E+00 0.  1.
         25    2    1    2    0    0 -0.12878247010E+03 -0.67091017274E+01 -0.93867122201E+02  0.20270447656E+03  0.12509249193E+03 0.  0.
          5    1    3    3  502    0  0.10057825251E+02  0.22244330091E+02  0.10156093114E+02  0.26769174386E+02  0.41800000000E+01 0.  1.
         -5    1    3    3    0  502 -0.13884029535E+03 -0.28953431818E+02 -0.10402321531E+03  0.17593530217E+03  0.41800000000E+01 0.  1.
        -11    1    1    2    0    0  0.12509586644E+03 -0.66408854157E+01 -0.19427328351E+03  0.23116051966E+03  0.00000000000E+00 0.  1.
         11    1    1    2    0    0  0.36866036534E+01  0.13349987143E+02  0.61029159801E+01  0.15134688192E+02  0.00000000000E+00 0. -1.
</event>
<event>
 7    1  0.3056346E-009  0.8994211E+02  0.7561462E-02  0.1302992E+00
          2   -1    0    0  501    0  0.00000000000E+00  0.00000000000E+00  0.42398656291E+03  0.42398656291E+03  0.00000000000E+00 0. -1.
         -2   -1    0    0    0  501 -0.00000000000E+00 -0.00000000000E+00 -0.34117230001E+02  0.34117230001E+02  0.00000000000E+00 0.  1.
         25    2    1    2    0    0  0.43829213963E+02  0.28138982681E+02  0.21757469389E+03  0.25631852897E+03  0.12509052133E+03 0.  0.
          5    1    3    3  502    0 -0.15178780854E+02  0.13916448006E+02  0.18709123342E+03  0.18826753553E+03  0.41800000000E+01 0.  1.
         -5    1    3    3    0  502  0.59007994817E+02  0.14222534676E+02  0.30483460470E+02  0.68050993432E+02  0.41800000000E+01 0.  1.
        -11    1    1    2    0    0  0.24692122632E+02 -0.12800320335E+02  0.86825859049E+02  0.91171700217E+02  0.00000000000E+00 0. -1.
         11    1    1    2    0    0 -0.68521336595E+02 -0.15338662346E+02  0.85468779969E+02  0.11061356373E+03  0.00000000000E+00 0.  1.
</event>
<event>
 7    1  0.3056346E-009  0.1269223E+03  0.7561462E-02  0.1232095E+00
         -2   -1    0    0    0  501 -0.00000000000E+00  0.00000000000E+00  0.74148412954E+02  0.74148412954E+02  0.00000000000E+00 0.  1.
          2   -1    0    0  501    0  0.00000000000E+00 -0.00000000000E+00 -0.31559641240E+03  0.31559641240E+03  0.00000000000E+00 0. -1.
         25    2    1    2    0    0 -0.51896282474E+02 -0.62889825818E+02 -0.22661442778E+03  0.27138204781E+03  0.12508302310E+03 0.  0.
          5    1    3    3  502    0  0.21871849808E+02  0.24126280076E+02 -0.72569381985E+02  0.79650755213E+02  0.41800000000E+01 0. -1.
         -5    1    3    3    0  502 -0.73768132282E+02 -0.87016105894E+02 -0.15404504580E+03  0.19173129260E+03  0.41800000000E+01 0. -1.
        -11    1    1    2    0    0  0.66733076766E+01 -0.15210963522E+02 -0.22299109585E+02  0.27805696087E+02  0.00000000000E+00 0. -1.
         11    1    1    2    0    0  0.45222974797E+02  0.78100789340E+02  0.74655379262E+01  0.90557081454E+02  0.00000000000E+00 0.  1.
</event>
<event>
 7    1  0.3056346E-009  0.1253263E+03  0.7561462E-02  0.1234560E+00
         -1   -1    0    0    0  501 -0.00000000000E+00  0.00000000000E+00  0.28576727002E+02  0.28576727002E+02  0.00000000000E+00 0.  1.
          1   -1    0    0  501    0  0.00000000000E+00 -0.00000000000E+00 -0.10996517389E+04  0.10996517389E+04  0.00000000000E+00 0. -1.
         25    2    1    2    0    0  0.66853461547E+02  0.52607374259E+02 -0.91757510364E+03  0.92996143449E+03  0.12508907894E+03 0.  0.
          5    1    3    3  502    0 -0.18579378040E+02  0.54506034396E+02 -0.23236690182E+03  0.23943255947E+03  0.41800000000E+01 0.  1.
         -5    1    3    3    0  502  0.85432839587E+02 -0.18986601369E+01 -0.68520820183E+03  0.69052887502E+03  0.41800000000E+01 0.  1.
        -11    1    1    2    0    0  0.12019449278E+02 -0.17003627933E+02  0.13616386421E+01  0.20867308969E+02  0.00000000000E+00 0.  1.
         11    1    1    2    0    0 -0.78872910825E+02 -0.35603746326E+02 -0.15486154690E+03  0.17739972244E+03  0.00000000000E+00 0. -1.
</event>
<event>
 7    1  0.3056346E-009  0.1317216E+03  0.7561462E-02  0.1224923E+00
         -1   -1    0    0    0  501 -0.00000000000E+00  0.00000000000E+00  0.58230253096E+02  0.58230253096E+02  0.00000000000E+00 0.  1.
          1   -1    0    0  501    0  0.00000000000E+00 -0.00000000000E+00 -0.43078907541E+03  0.43078907541E+03  0.00000000000E+00 0. -1.
         25    2    1    2    0    0  0.15203385101E+02 -0.11151167170E+03 -0.23944549108E+03  0.29265898177E+03  0.12509652499E+03 0.  0.
          5    1    3    3  502    0  0.37340575170E+02 -0.66382407652E+02 -0.22870267982E+03  0.24108780715E+03  0.41800000000E+01 0.  1.
         -5    1    3    3    0  502 -0.22137190069E+02 -0.45129264051E+02 -0.10742811267E+02  0.51571174621E+02  0.41800000000E+01 0.  1.
        -11    1    1    2    0    0 -0.39853194497E+02  0.10333581446E+03 -0.12907294129E+03  0.17007760533E+03  0.00000000000E+00 0. -1.
         11    1    1    2    0    0  0.24649809396E+02  0.81758572391E+01 -0.40403899400E+01  0.26282741404E+02  0.00000000000E+00 0.  1.
</event>
<event>
 7    1  0.3056346E-009  0.1591094E+03  0.7561462E-02  0.1189706E+00
          2   -1    0    0  501    0  0.00000000000E+00  0.00000000000E+00  0.56755773493E+03  0.56755773493E+03  0.00000000000E+00 0.  1.
         -2   -1    0    0    0  501 -0.00000000000E+00 -0.00000000000E+00 -0.53315169068E+02  0.53315169068E+02  0.00000000000E+00 0. -1.
         25    2    1    2    0    0  0.12636587302E+03  0.69059872223E+01  0.36561431907E+03  0.40661779526E+03  0.12509266401E+03 0.  0.
          5    1    3    3  502    0 -0.19667325244E+02 -0.59098194602E+01  0.12848375206E+02  0.24582164139E+02  0.41800000000E+01 0.  1.
         -5    1    3    3    0  502  0.14603319826E+03  0.12815806683E+02  0.35276594387E+03  0.38203563112E+03  0.41800000000E+01 0.  1.
        -11    1    1    2    0    0 -0.97926895170E+02 -0.41040050905E+02  0.81927808938E+02  0.13411237248E+03  0.00000000000E+00 0.  1.
         11    1    1    2    0    0 -0.28438977846E+02  0.34134063682E+02  0.66700437851E+02  0.80142736252E+02  0.00000000000E+00 0. -1.
</event>
<event>
 7    1  0.3056346E-009  0.1264270E+03  0.7561462E-02  0.1232856E+00
         -1   -1    0    0    0  501 -0.00000000000E+00  0.00000000000E+00  0.14729889330E+02  0.14729889330E+02  0.00000000000E+00 0.  1.
          1   -1    0    0  501    0  0.00000000000E+00 -0.00000000000E+00 -0.13449604293E+04  0.13449604293E+04  0.00000000000E+00 0. -1.
         25    2    1    2    0    0 -0.24080138636E+00 -0.89472527198E+02 -0.67610914376E+03  0.69338077685E+03  0.12509171166E+03 0.  0.
          5    1    3    3  502    0 -0.43857161815E+02 -0.34235077261E+02 -0.11457673169E+03  0.12743936206E+03  0.41800000000E+01 0.  1.
         -5    1    3    3    0  502  0.43616360429E+02 -0.55237449938E+02 -0.56153241207E+03  0.56594141479E+03  0.41800000000E+01 0.  1.
        -11    1    1    2    0    0  0.34706693068E+02  0.46749375235E+01 -0.16100358806E+03  0.16476821585E+03  0.00000000000E+00 0. -1.
         11    1    1    2    0    0 -0.34465891682E+02  0.84797589675E+02 -0.49311780820E+03  0.50154132598E+03  0.00000000000E+00 0.  1.
</event>
<event>
 7    1  0.3056346E-009  0.1278034E+03  0.7561462E-02  0.1230752E+00
          2   -1    0    0  501    0  0.00000000000E+00  0.00000000000E+00  0.16845726009E+03  0.16845726009E+03  0.00000000000E+00 0. -1.
         -2   -1    0    0    0  501 -0.00000000000E+00 -0.00000000000E+00 -0.12332962434E+03  0.12332962434E+03  0.00000000000E+00 0.  1.
         25    2    1    2    0    0  0.21360105438E+01 -0.80110836826E+02  0.76532759250E+02  0.16711870922E+03  0.12509632695E+03 0.  0.
          5    1    3    3  502    0 -0.56420875114E+02 -0.55497217055E+02  0.64841509669E+02  0.10239702157E+03  0.41800000000E+01 0. -1.
         -5    1    3    3    0  502  0.58556885658E+02 -0.24613619771E+02  0.11691249581E+02  0.64721687655E+02  0.41800000000E+01 0. -1.
        -11    1    1    2    0    0  0.38559326897E+02  0.37980351909E+02 -0.37397761240E+02  0.65786939188E+02  0.00000000000E+00 0.  1.
         11    1    1    2    0    0 -0.40695337441E+02  0.42130484917E+02  0.59926377365E+01  0.58881236025E+02  0.00000000000E+00 0. -1.
</event>
<event>
 7    1  0.3056346E-009  0.9068987E+02  0.7561462E-02  0.1301190E+00
         -2   -1    0    0    0  501 -0.00000000000E+00  0.00000000000E+00  0.85477799318E+02  0.85477799318E+02  0.00000000000E+00 0.  1.
          2   -1    0    0  501    0  0.00000000000E+00 -0.00000000000E+00 -0.17718398538E+03  0.17718398538E+03  0.00000000000E+00 0. -1.
         25    2    1    2    0    0  0.54954687052E+02  0.33496432438E+01 -0.29653684632E+02  0.13985152286E+03  0.12509144533E+03 0.  0.
          5    1    3    3  502    0 -0.34541274140E+01 -0.16486501796E+02  0.41861176599E+02  0.45316291153E+02  0.41800000000E+01 0.  1.
         -5    1    3    3    0  502  0.58408814466E+02  0.19836145039E+02 -0.71514861231E+02  0.94535231709E+02  0.41800000000E+01 0.  1.
        -11    1    1    2    0    0 -0.25272731955E+02  0.41396867480E+02 -0.13320309460E+02  0.50297537333E+02  0.00000000000E+00 0.  1.
         11    1    1    2    0    0 -0.29681955097E+02 -0.44746510724E+02 -0.48732191967E+02  0.72512724499E+02  0.00000000000E+00 0. -1.
</event>
<event>
 7    1  0.3056346E-009  0.1183979E+03  0.7561462E-02  0.1245764E+00
         -1   -1    0    0    0  501 -0.00000000000E+00  0.00000000000E+00  0.21500561688E+03  0.21500561688E+03  0.00000000000E+00 0. -1.
          1   -1    0    0  501    0  0.00000000000E+00 -0.00000000000E+00 -0.78422088829E+02  0.78422088829E+02  0.00000000000E+00 0.  1.
         25    2    1    2    0    0  0.25275398783E+02  0.41148463055E+02  0.12992472325E+03  0.18671329170E+03  0.12509747315E+03 0.  0.
          5    1    3    3  502    0  0.70312220797E+02 -0.34722152010E+01  0.70540721296E+02  0.99746330423E+02  0.41800000000E+01 0. -1.
         -5    1    3    3    0  502 -0.45036822014E+02  0.44620678256E+02  0.59384001954E+02  0.86966961274E+02  0.41800000000E+01 0. -1.
        -11    1    1    2    0    0 -0.56491398373E+02 -0.43695590210E+02 -0.84939757319E+01  0.71921695737E+02  0.00000000000E+00 0. -1.
         11    1    1    2    0    0  0.31215999590E+02  0.25471271546E+01  0.15152780534E+02  0.34792718276E+02  0.00000000000E+00 0.  1.
</event>
<event>
 7    1  0.3056346E-009  0.1323944E+03  0.7561462E-02  0.1223946E+00
         -2   -1    0    0    0  501 -0.00000000000E+00  0.00000000000E+00  0.34704696795E+03  0.34704696795E+03  0.00000000000E+00 0.  1.
          2   -1    0    0  501    0  0.00000000000E+00 -0.00000000000E+00 -0.53729526734E+02  0.53729526734E+02  0.00000000000E+00 0. -1.
         25    2    1    2    0    0 -0.72513363174E+02  0.34749078112E+02  0.14036742675E+03  0.20448866977E+03  0.12508763050E+03 0.  0.
          5    1    3    3  502    0 -0.23766100700E+02 -0.46198587512E+02  0.66416409432E+02  0.84425996425E+02  0.41800000000E+01 0.  1.
         -5    1    3    3    0  502 -0.48747262474E+02  0.80947665625E+02  0.73951017318E+02  0.12006267335E+03  0.41800000000E+01 0.  1.
        -11    1    1    2    0    0  0.33390557093E+02  0.28374650594E+02  0.84991714456E+02  0.95622390817E+02  0.00000000000E+00 0.  1.
         11    1    1    2    0    0  0.39122806081E+02 -0.63123728706E+02  0.67958300009E+02  0.10066543409E+03  0.00000000000E+00 0. -1.
</event>
<event>
 7    1  0.3056346E-009  0.1368136E+03  0.7561462E-02  0.1217682E+00
          2   -1    0    0  501    0  0.00000000000E+00  0.00000000000E+00  0.16765636359E+04  0.16765636359E+04  0.00000000000E+00 0. -1.
         -2   -1    0    0    0  501 -0.00000000000E+00 -0.00000000000E+00 -0.17257235922E+02  0.17257235922E+02  0.00000000000E+00 0.  1.
         25    2    1    2    0    0 -0.88766239689E+02 -0.64767769263E+02  0.12311166532E+04  0.12423244536E+04  0.12509006715E+03 0.  0.
          5    1    3    3  502    0  0.47448973615E+01  0.18158983128E+02  0.51583570091E+03  0.51619396107E+03  0.41800000000E+01 0. -1.
         -5    1    3    3    0  502 -0.93511137050E+02 -0.82926752391E+02  0.71528095229E+03  0.72613049249E+03  0.41800000000E+01 0. -1.
        -11    1    1    2    0    0  0.12289857727E+02  0.49957359421E+02  0.83198453958E+02  0.97820044491E+02  0.00000000000E+00 0.  1.
         11    1    1    2    0    0  0.76476381962E+02  0.14810409843E+02  0.34499129281E+03  0.35367637375E+03  0.00000000000E+00 0. -1.
</event>
<event>
 7    1  0.3056346E-009  0.1081230E+03  0.7561462E-02  0.1264086E+00
         -2   -1    0    0    0  501 -0.00000000000E+00  0.00000000000E+00  0.88092972283E+01  0.88092972283E+01  0.00000000000E+00 0.  1.
          2   -1    0    0  501    0  0.00000000000E+00 -0.00000000000E+00 -0.35573798554E+04  0.35573798554E+04  0.00000000000E+00 0. -1.
         25    2    1    2    0    0 -0.53790966005E+02  0.77439197793E+02 -0.29321953179E+04  0.29363765083E+04  0.12508924436E+03 0.  0.
          5    1    3    3  502    0 -0.51455989050E+02  0.57960371796E+02 -0.73452090607E+03  0.73861055865E+03  0.41800000000E+01 0. -1.
         -5    1    3    3    0  502 -0.23349769552E+01  0.19478825997E+02 -0.21976744118E+04  0.21977659496E+04  0.41800000000E+01 0. -1.
        -11    1    1    2    0    0 -0.17935954957E+02 -0.13055863536E+02 -0.42925800909E+02  0.48319545078E+02  0.00000000000E+00 0.  1.
         11    1    1    2    0    0  0.71726920962E+02 -0.64383334257E+02 -0.57344943939E+03  0.58149309924E+03  0.00000000000E+00 0. -1.
</event>
<event>
 7    1  0.3056346E-009  0.1285638E+03  0.7561462E-02  0.1229602E+00
         -1   -1    0    0    0  501 -0.00000000000E+00  0.00000000000E+00  0.19310725585E+02  0.19310725585E+02  0.00000000000E+00 0.  1.
          1   -1    0    0  501    0  0.00000000000E+00 -0.00000000000E+00 -0.13978775809E+04  0.13978775809E+04  0.00000000000E+00 0. -1.
         25    2    1    2    0    0 -0.90721834157E+02  0.62087345346E+02 -0.96754261666E+03  0.98176867275E+03  0.12508286098E+03 0.  0.
          5    1    3    3  502    0 -0.51458154492E+02  0.17947525891E+02 -0.83271933681E+03  0.83451124716E+03  0.41800000000E+01 0.  1.
         -5    1    3    3    0  502 -0.39263679665E+02  0.44139819455E+02 -0.13482327985E+03  0.14725742559E+03  0.41800000000E+01 0.  1.
        -11    1    1    2    0    0  0.36991681344E+02  0.22308464305E+02 -0.14032832851E+03  0.14682674093E+03  0.00000000000E+00 0.  1.
         11    1    1    2    0    0  0.53730152813E+02 -0.84395809651E+02 -0.27069591018E+03  0.28859289284E+03  0.00000000000E+00 0. -1.
</event>
<event>
 7    1  0.3056346E-009  0.1280962E+03  0.7561462E-02  0.1230308E+00
         -2   -1    0    0    0  501 -0.00000000000E+00  0.00000000000E+00  0.52197967126E+02  0.52197967126E+02  0.00000000000E+00 0.  1.
          2   -1    0    0  501    0  0.00000000000E+00 -0.00000000000E+00 -0.34507652440E+03  0.34507652440E+03  0.00000000000E+00 0. -1.
         25    2    1    2    0    0 -0.12455321208E+02 -0.73183849321E+02 -0.11939005086E+03  0.18817500849E+03  0.12507932983E+03 0.  0.
          5    1    3    3  502    0 -0.58979097082E+02 -0.78562898256E+02 -0.77409016726E+02  0.12514108496E+03  0.41800000000E+01 0.  1.
         -5    1    3    3    0  502  0.46523775874E+02  0.53790489356E+01 -0.41981034130E+02  0.63033923530E+02  0.41800000000E+01 0.  1.
        -11    1    1    2    0    0  0.35928245394E+02  0.21032028918E+01 -0.28426096574E+02  0.45861805960E+02  0.00000000000E+00 0.  1.
         11    1    1    2    0    0 -0.23472924186E+02  0.71080646429E+02 -0.14506240985E+03  0.16323767708E+03  0.00000000000E+00 0. -1.
</event>
<event>
 7    1  0.3056346E-009  0.8569804E+02  0.7561462E-02  0.1313617E+00
         -4   -1    0    0    0  501 -0.00000000000E+00  0.00000000000E+00  0.11207528423E+03  0.11207528423E+03  0.00000000000E+00 0. -1.
          4   -1    0    0  501    0  0.00000000000E+00 -0.00000000000E+00 -0.12563684161E+03  0.12563684161E+03  0.00000000000E+00 0.  1.
         25    2    1    2    0    0 -0.19229176926E+02 -0.68173794463E+01 -0.51606141195E+02  0.13684932831E+03  0.12509319303E+03 0.  0.
          5    1    3    3  502    0 -0.17278289188E+02  0.58011933865E+02 -0.33832454306E+02  0.69469641660E+02  0.41800000000E+01 0. -1.
         -5    1    3    3    0  502 -0.19508877388E+01 -0.64829313311E+02 -0.17773686889E+02  0.67379686650E+02  0.41800000000E+01 0. -1.
        -11    1    1    2    0    0  0.31434822312E+02 -0.60947493942E+00 -0.22495480826E+02  0.38659619386E+02  0.00000000000E+00 0.  1.
         11    1    1    2    0    0 -0.12205645385E+02  0.74268543858E+01  0.60540064638E+02  0.62203178148E+02  0.00000000000E+00 0. -1.
</event>
<event>
 7    1  0.3056346E-009  0.1098399E+03  0.7561462E-02  0.1260867E+00
         -2   -1    0    0    0  501 -0.00000000000E+00  0.00000000000E+00  0.25015034549E+02  0.25015034549E+02  0.00000000000E+00 0.  1.
          2   -1    0    0  501    0  0.00000000000E+00 -0.00000000000E+00 -0.79368905761E+03  0.79368905761E+03  0.00000000000E+00 0. -1.
         25    2    1    2    0    0  0.66641559855E+01 -0.40870697731E+02 -0.65098472484E+03  0.66419186276E+03  0.12511951755E+03 0.  0.
          5    1    3    3  502    0  0.44285777346E+02 -0.62089996248E+02 -0.53367665836E+03  0.53911468704E+03  0.41800000000E+01 0. -1.
         -5    1    3    3    0  502 -0.37621621361E+02  0.21219298518E+02 -0.11730806648E+03  0.12507717571E+03  0.41800000000E+01 0. -1.
        -11    1    1    2    0    0 -0.46141896402E+02  0.38945087896E+02 -0.75981720261E+02  0.97051616620E+02  0.00000000000E+00 0. -1.
         11    1    1    2    0    0  0.39477740417E+02  0.19256098351E+01 -0.41707577956E+02  0.57460612776E+02  0.00000000000E+00 0.  1.
</event>
<event>
 7    1  0.3056346E-009  0.9876125E+02  0.7561462E-02  0.1282923E+00
         -1   -1    0    0    0  501 -0.00000000000E+00  0.00000000000E+00  0.13935626414E+03  0.13935626414E+03  0.00000000000E+00 0.  1.
          1   -1    0    0  501    0  0.00000000000E+00 -0.00000000000E+00 -0.19705131779E+03  0.19705131779E+03  0.00000000000E+00 0. -1.
         25    2    1    2    0    0 -0.35072906312E+02 -0.11426785858E+01  0.89809994547E+02  0.15793707210E+03  0.12508744602E+03 0.  0.
          5    1    3    3  502    0  0.54441056820E+01  0.57203734808E+02  0.50668264761E+02  0.76724513791E+02  0.41800000000E+01 0.  1.
         -5    1    3    3    0  502 -0.40517011994E+02 -0.58346413394E+02  0.39141729786E+02  0.81212558312E+02  0.41800000000E+01 0.  1.
        -11    1    1    2    0    0  0.22833701142E+01  0.26935729312E+02 -0.20037472344E+01  0.27106499140E+02  0.00000000000E+00 0.  1.
         11    1    1    2    0    0  0.32789536198E+02 -0.25793050726E+02 -0.14550130096E+03  0.15136401068E+03  0.00000000000E+00 0. -1.
</event>
<event>
 7    1  0.3056346E-009  0.1307130E+03  0.7561462E-02  0.1226402E+00
          2   -1    0    0  501    0  0.00000000000E+00  0.00000000000E+00  0.70799675508E+03  0.70799675508E+03  0.00000000000E+00 0.  1.
         -2   -1    0    0    0  501 -0.00000000000E+00 -0.00000000000E+00 -0.24929294805E+02  0.24929294805E+02  0.00000000000E+00 0. -1.
         25    2    1    2    0    0 -0.72973220421E+02  0.18892998733E+02  0.43023746512E+03  0.45434865574E+03  0.12508552386E+03 0.  0.
          5    1    3    3  502    0 -0.22111834564E+01 -0.47287556356E+02  0.11206493191E+03  0.12172519740E+03  0.41800000000E+01 0. -1.
         -5    1    3    3    0  502 -0.70762036964E+02  0.66180555089E+02  0.31817253321E+03  0.33262345834E+03  0.41800000000E+01 0. -1.
        -11    1    1    2    0    0  0.46719789856E+02 -0.55075063040E+02  0.15232941416E+03  0.16858307077E+03  0.00000000000E+00 0.  1.
         11    1    1    2    0    0  0.26253430565E+02  0.36182064306E+02  0.10050058100E+03  0.10999432338E+03  0.00000000000E+00 0. -1.
</event>
<event>
 7    1  0.3056346E-009  0.1406156E+03  0.7561462E-02  0.1212503E+00
          2   -1    0    0  501    0  0.00000000000E+00  0.00000000000E+00  0.31807486542E+03  0.31807486542E+03  0.00000000000E+00 0. -1.
         -2   -1    0    0    0  501 -0.00000000000E+00 -0.00000000000E+00 -0.10196831209E+03  0.10196831209E+03  0.00000000000E+00 0.  1.
         25    2    1    2    0    0 -0.12613242917E+03  0.39237297100E+02  0.17871396097E+03  0.25502145698E+03  0.12509319928E+03 0.  0.
          5    1    3    3  502    0 -0.34019495446E+02  0.10616427401E+02  0.15009093248E+03  0.15432042968E+03  0.41800000000E+01 0. -1.
         -5    1    3    3    0  502 -0.92112933723E+02  0.28620869699E+02  0.28623028483E+02  0.10070102731E+03  0.41800000000E+01 0. -1.
        -11    1    1    2    0    0  0.32533218182E+02  0.19851754296E+02 -0.16950458627E+02  0.41711155362E+02  0.00000000000E+00 0.  1.
         11    1    1    2    0    0  0.93599210987E+02 -0.59089051396E+02  0.54343050988E+02  0.12331056517E+03  0.00000000000E+00 0. -1.
</event>
<event>
 7    1  0.3056346E-009  0.1537198E+03  0.7561462E-02  0.1195975E+00
         -1   -1    0    0    0  501 -0.00000000000E+00  0.00000000000E+00  0.64189076147E+02  0.64189076147E+02  0.00000000000E+00 0.  1.
          1   -1    0    0  501    0  0.00000000000E+00 -0.00000000000E+00 -0.58265650265E+03  0.58265650265E+03  0.00000000000E+00 0. -1.
         25    2    1    2    0    0  0.68411525918E+02  0.12478952006E+03 -0.15068976402E+03  0.24208982947E+03  0.12509004500E+03 0.  0.
          5    1    3    3  502    0  0.56001771774E+02  0.10055235287E+03 -0.30999776463E+02  0.11927041817E+03  0.41800000000E+01 0. -1.
         -5    1    3    3    0  502  0.12409754144E+02  0.24237167190E+02 -0.11968998756E+03  0.12281941130E+03  0.41800000000E+01 0. -1.
        -11    1    1    2    0    0 -0.57874475916E+02 -0.22825931696E+02 -0.97126202979E+02  0.11534286898E+03  0.00000000000E+00 0.  1.
         11    1    1    2    0    0 -0.10537050003E+02 -0.10196358837E+03 -0.27065145951E+03  0.28941288035E+03  0.00000000000E+00 0. -1.
</event>
<event>
 7    1  0.3056346E-009  0.1331753E+03  0.7561462E-02  0.1222819E+00
         -4   -1    0    0    0  501 -0.00000000000E+00  0.00000000000E+00  0.15280196947E+03  0.15280196947E+03  0.00000000000E+00 0.  1.
          4   -1    0    0  501    0  0.00000000000E+00 -0.00000000000E+00 -0.16354892442E+03  0.16354892442E+03  0.00000000000E+00 0. -1.
         25    2    1    2    0    0  0.42146301659E+02  0.82595158529E+02 -0.74770507341E+02  0.17273262025E+03  0.12509060067E+03 0.  0.
          5    1    3    3  502    0 -0.24068943119E+02  0.73426449923E+02 -0.71998427586E+02  0.10569769887E+03  0.41800000000E+01 0. -1.
         -5    1    3    3    0  502  0.66215244779E+02  0.91687086060E+01 -0.27720797542E+01  0.67034921382E+02  0.41800000000E+01 0. -1.
        -11    1    1    2    0    0  0.31512712228E+01 -0.76173687935E+02  0.61229655970E+02  0.97782575207E+02  0.00000000000E+00 0.  1.
         11    1    1    2    0    0 -0.45297572882E+02 -0.64214705943E+01  0.27938964129E+01  0.45835698432E+02  0.00000000000E+00 0. -1.
</event>
<event>
 7    1  0.3056346E-009  0.2526830E+03  0.7561462E-02  0.1111621E+00
         -3   -1    0    0    0  501 -0.00000000000E+00  0.00000000000E+00  0.63909828409E+02  0.63909828409E+02  0.00000000000E+00 0.  1.
          3   -1    0    0  501    0  0.00000000000E+00 -0.00000000000E+00 -0.11437108935E+04  0.11437108935E+04  0.00000000000E+00 0. -1.
         25    2    1    2    0    0  0.19734765753E+03  0.14452621738E+03 -0.63897923904E+03  0.69554160521E+03  0.12509888571E+03 0.  0.
          5    1    3    3  502    0  0.14450509651E+03  0.82552452975E+02 -0.26637554666E+03  0.31411786748E+03  0.41800000000E+01 0. -1.
         -5    1    3    3    0  502  0.52842561022E+02  0.61973764408E+02 -0.37260369238E+03  0.38142373773E+03  0.41800000000E+01 0. -1.
        -11    1    1    2    0    0 -0.95106969817E+02 -0.21740721085E+02 -0.20751667769E+03  0.22930583547E+03  0.00000000000E+00 0. -1.
         11    1    1    2    0    0 -0.10224068772E+03 -0.12278549630E+03 -0.23330514836E+03  0.28277328123E+03  0.00000000000E+00 0.  1.
</event>
<event>
 7    1  0.3056346E-009  0.1122908E+03  0.7561462E-02  0.1256386E+00
         -2   -1    0    0    0  501 -0.00000000000E+00  0.00000000000E+00  0.37406976803E+02  0.37406976803E+02  0.00000000000E+00 0.  1.
          2   -1    0    0  501    0  0.00000000000E+00 -0.00000000000E+00 -0.40232426064E+03  0.40232426064E+03  0.00000000000E+00 0. -1.
         25    2    1    2    0    0  0.43921011087E+02 -0.31010423523E+02 -0.24868521811E+03  0.28351971133E+03  0.12509351472E+03 0.  0.
          5    1    3    3  502    0  0.10200381162E+02  0.44988023413E+02 -0.50312439879E+02  0.68387016553E+02  0.41800000000E+01 0.  1.
         -5    1    3    3    0  502  0.33720629925E+02 -0.75998446936E+02 -0.19837277823E+03  0.21513269478E+03  0.41800000000E+01 0.  1.
        -11    1    1    2    0    0 -0.67492061909E+01 -0.26052137921E+02 -0.75429289358E+01  0.27949265668E+02  0.00000000000E+00 0.  1.
         11    1    1    2    0    0 -0.37171804896E+02  0.57062561444E+02 -0.10868913679E+03  0.12826226044E+03  0.00000000000E+00 0. -1.
</event>
<event>
 7    1  0.3056346E-009  0.1793773E+03  0.7561462E-02  0.1168407E+00
          2   -1    0    0  501    0  0.00000000000E+00  0.00000000000E+00  0.24468905531E+03  0.24468905531E+03  0.00000000000E+00 0. -1.
         -2   -1    0    0    0  501 -0.00000000000E+00 -0.00000000000E+00 -0.23001961319E+03  0.23001961319E+03  0.00000000000E+00 0.  1.
         25    2    1    2    0    0  0.14660192690E+03 -0.55827113470E+02  0.14819469690E+03  0.24943587163E+03  0.12509114397E+03 0.  0.
          5    1    3    3  502    0  0.11357107677E+03 -0.80616859053E+02  0.59502543319E+02  0.15151070095E+03  0.41800000000E+01 0.  1.
         -5    1    3    3    0  502  0.33030850128E+02  0.24789745583E+02  0.88692153579E+02  0.97925170680E+02  0.41800000000E+01 0.  1.
        -11    1    1    2    0    0 -0.71052299681E+02  0.71444339722E+02 -0.53366988365E+02  0.11402086833E+03  0.00000000000E+00 0. -1.
         11    1    1    2    0    0 -0.75549627216E+02 -0.15617226252E+02 -0.80158266412E+02  0.11125192853E+03  0.00000000000E+00 0.  1.
</event>
<event>
 7    1  0.3056346E-009  0.9120356E+02  0.7561462E-02  0.1299963E+00
         -2   -1    0    0    0  501 -0.00000000000E+00  0.00000000000E+00  0.51064124051E+02  0.51064124051E+02  0.00000000000E+00 0.  1.
          2   -1    0    0  501    0  0.00000000000E+00 -0.00000000000E+00 -0.42306199897E+03  0.42306199897E+03  0.00000000000E+00 0. -1.
         25    2    1    2    0    0 -0.77283927322E+01  0.58179991549E+02 -0.70801623319E+02  0.15525902387E+03  0.12509138722E+03 0.  0.
          5    1    3    3  502    0  0.53528735461E+00 -0.93781598134E+01  0.31038869596E+02  0.32697404176E+02  0.41800000000E+01 0. -1.
         -5    1    3    3    0  502 -0.82636800868E+01  0.67558151362E+02 -0.10184049292E+03  0.12256161969E+03  0.41800000000E+01 0. -1.
        -11    1    1    2    0    0  0.16524742485E+02  0.19613353676E+02 -0.91755391358E+02  0.95272255142E+02  0.00000000000E+00 0.  1.
         11    1    1    2    0    0 -0.87963497533E+01 -0.77793345224E+02 -0.20944086024E+03  0.22359484401E+03  0.00000000000E+00 0. -1.
</event>
<event>
 7    1  0.3056346E-009  0.1233298E+03  0.7561462E-02  0.1237703E+00
          1   -1    0    0  501    0  0.00000000000E+00  0.00000000000E+00  0.43819373716E+03  0.43819373716E+03  0.00000000000E+00 0. -1.
         -1   -1    0    0    0  501 -0.00000000000E+00 -0.00000000000E+00 -0.39638892175E+02  0.39638892175E+02  0.00000000000E+00 0.  1.
         25    2    1    2    0    0  0.15750996800E+02  0.74266252041E+02  0.21184162133E+03  0.25746598658E+03  0.12509313180E+03 0.  0.
          5    1    3    3  502    0 -0.43698299648E+02  0.71207321241E+02  0.14851350255E+03  0.17045162607E+03  0.41800000000E+01 0. -1.
         -5    1    3    3    0  502  0.59449296449E+02  0.30589307998E+01  0.63328118789E+02  0.87014360511E+02  0.41800000000E+01 0. -1.
        -11    1    1    2    0    0 -0.40956778754E+02 -0.24972001212E+02  0.13979276202E+03  0.14779402858E+03  0.00000000000E+00 0.  1.
         11    1    1    2    0    0  0.25205781954E+02 -0.49294250829E+02  0.46920461625E+02  0.72572614172E+02  0.00000000000E+00 0. -1.
</event>
<event>
 7    1  0.3056346E-009  0.1514864E+03  0.7561462E-02  0.1198658E+00
          1   -1    0    0  501    0  0.00000000000E+00  0.00000000000E+00  0.71398733857E+03  0.71398733857E+03  0.00000000000E+00 0. -1.
         -1   -1    0    0    0  501 -0.00000000000E+00 -0.00000000000E+00 -0.51584554333E+02  0.51584554333E+02  0.00000000000E+00 0.  1.
         25    2    1    2    0    0 -0.11776012050E+03 -0.21452427674E+02  0.55206907444E+03  0.57858114552E+03  0.12509287097E+03 0.  0.
          5    1    3    3  502    0 -0.59637624429E+02 -0.72083022501E+02  0.34861442785E+03  0.36097382188E+03  0.41800000000E+01 0.  1.
         -5    1    3    3    0  502 -0.58122496070E+02  0.50630594827E+02  0.20345464659E+03  0.21760732364E+03  0.41800000000E+01 0.  1.
        -11    1    1    2    0    0  0.39925776949E+02 -0.19216661875E+02  0.84563169581E+02  0.95468724764E+02  0.00000000000E+00 0. -1.
         11    1    1    2    0    0  0.77834343550E+02  0.40669089549E+02  0.25770540217E+02  0.91522022616E+02  0.00000000000E+00 0.  1.
</event>
<event>
 7    1  0.3056346E-009  0.8700076E+02  0.7561462E-02  0.1310282E+00
          3   -1    0    0  501    0  0.00000000000E+00  0.00000000000E+00  0.14841361583E+03  0.14841361583E+03  0.00000000000E+00 0. -1.
         -3   -1    0    0    0  501 -0.00000000000E+00 -0.00000000000E+00 -0.85741924482E+02  0.85741924482E+02  0.00000000000E+00 0.  1.
         25    2    1    2    0    0  0.32734648697E+02 -0.11952880919E+02  0.32781334110E+02  0.13392291412E+03  0.12508518087E+03 0.  0.
          5    1    3    3  502    0  0.34274596436E+02 -0.48457512894E+02  0.62755887495E+02  0.86479201731E+02  0.41800000000E+01 0. -1.
         -5    1    3    3    0  502 -0.15399477391E+01  0.36504631975E+02 -0.29974553385E+02  0.47443712389E+02  0.41800000000E+01 0. -1.
        -11    1    1    2    0    0 -0.48895524430E+02  0.26818214631E+02  0.46572344542E+02  0.72656535986E+02  0.00000000000E+00 0. -1.
         11    1    1    2    0    0  0.16160875733E+02 -0.14865333712E+02 -0.16681987302E+02  0.27576090208E+02  0.00000000000E+00 0.  1.
</event>
<event>
 7    1  0.3056346E-009  0.1070587E+03  0.7561462E-02  0.1266116E+00
         -1   -1    0    0    0  501 -0.00000000000E+00  0.00000000000E+00  0.84358289688E+02  0.84358289688E+02  0.00000000000E+00 0.  1.
          1   -1    0    0  501    0  0.00000000000E+00 -0.00000000000E+00 -0.15539235487E+03  0.15539235487E+03  0.00000000000E+00 0. -1.
         25    2    1    2    0    0  0.37057474970E+02 -0.79097189563E+01 -0.33608567212E+02  0.13498181769E+03  0.12511888431E+03 0.  0.
          5    1    3    3  502    0  0.67178323711E+02  0.27960239972E+02 -0.46207630265E+02  0.86297854496E+02  0.41800000000E+01 0. -1.
         -5    1    3    3    0  502 -0.30120848740E+02 -0.35869958929E+02  0.12599063053E+02  0.48683963193E+02  0.41800000000E+01 0. -1.
        -11    1    1    2    0    0 -0.60738975724E+02 -0.13569026873E+02 -0.37761269619E+02  0.72795983031E+02  0.00000000000E+00 0.  1.
         11    1    1    2    0    0  0.23681500753E+02  0.21478745830E+02  0.33577165026E+00  0.31972843836E+02  0.00000000000E+00 0. -1.
</event>
<event>
 7    1  0.3084233E-009  0.1149098E+03  0.7561462E-02  0.1251739E+00
         -2   -1    0    0    0  501 -0.00000000000E+00  0.00000000000E+00  0.17457455586E+02  0.17457455586E+02  0.00000000000E+00 0.  1.
          2   -1    0    0  501    0  0.00000000000E+00 -0.00000000000E+00 -0.80636911897E+03  0.80636911897E+03  0.00000000000E+00 0. -1.
         25    2    1    2    0    0  0.43875389702E+02  0.13803620219E+02 -0.39829302561E+03  0.42000172851E+03  0.12509407641E+03 0.  0.
          5    1    3    3  502    0 -0.30090066581E+02  0.38767695403E+02 -0.97745252066E+02  0.10945297171E+03  0.41800000000E+01 0. -1.
         -5    1    3    3    0  502  0.73965456283E+02 -0.24964075184E+02 -0.30054777354E+03  0.31054875681E+03  0.41800000000E+01 0. -1.
        -11    1    1    2    0    0 -0.59360843609E+02  0.22059295453E+02 -0.23621825139E+03  0.24455957262E+03  0.00000000000E+00 0. -1.
         11    1    1    2    0    0  0.15485453907E+02 -0.35862915672E+02 -0.15440038639E+03  0.15926527343E+03  0.00000000000E+00 0.  1.
</event>
<event>
 7    1  0.3056346E-009  0.1509052E+03  0.7561462E-02  0.1199365E+00
         -1   -1    0    0    0  501 -0.00000000000E+00  0.00000000000E+00  0.30064937410E+03  0.30064937410E+03  0.00000000000E+00 0.  1.
          1   -1    0    0  501    0  0.00000000000E+00 -0.00000000000E+00 -0.96045609638E+02  0.96045609638E+02  0.00000000000E+00 0. -1.
         25    2    1    2    0    0 -0.36372636907E+02 -0.11702284146E+03  0.16178794259E+03  0.23841134668E+03  0.12508923901E+03 0.  0.
          5    1    3    3  502    0 -0.61548503844E+02 -0.11781921871E+03  0.16581817873E+03  0.21256229068E+03  0.41800000000E+01 0.  1.
         -5    1    3    3    0  502  0.25175866938E+02  0.79637724705E+00 -0.40302361326E+01  0.25849055999E+02  0.41800000000E+01 0.  1.
        -11    1    1    2    0    0 -0.13487081917E+02 -0.25563110603E+01 -0.11396065114E+02  0.17841143600E+02  0.00000000000E+00 0. -1.
         11    1    1    2    0    0  0.49859718824E+02  0.11957915252E+03  0.54211886985E+02  0.14044249346E+03  0.00000000000E+00 0.  1.
</event>
<event>
 6    1  0.3056346E-009  0.1237280E+03  0.7561462E-02  0.1237071E+00
          1   -1    0    0  501    0  0.00000000000E+00  0.00000000000E+00  0.19180237608E+03  0.19180237608E+03  0.00000000000E+00 0. -1.
         -1   -1    0    0    0  501 -0.00000000000E+00 -0.00000000000E+00 -0.11932584039E+03  0.11932584039E+03  0.00000000000E+00 0.  1.
          5    1    1    2  502    0 -0.22794154046E+02  0.86636615056E+02  0.85071351455E+01  0.90085072434E+02  0.41800000000E+01 0.  1.
         -5    1    1    2    0  502 -0.35485166354E+02 -0.17349255980E+02  0.76855964496E+02  0.86513035971E+02  0.41800000000E+01 0.  1.
        -11    1    1    2    0    0  0.10211108412E+02 -0.69236487762E+02  0.23950345497E+02  0.73970108977E+02  0.00000000000E+00 0. -1.
         11    1    1    2    0    0  0.48068211988E+02 -0.50871314129E-01 -0.36836909455E+02  0.60559999090E+02  0.00000000000E+00 0.  1.
</event>
<event>
 7    1  0.3056346E-009  0.1801724E+03  0.7561462E-02  0.1167636E+00
          1   -1    0    0  501    0  0.00000000000E+00  0.00000000000E+00  0.66026674956E+03  0.66026674956E+03  0.00000000000E+00 0. -1.
         -1   -1    0    0    0  501 -0.00000000000E+00 -0.00000000000E+00 -0.50785778023E+02  0.50785778023E+02  0.00000000000E+00 0.  1.
         25    2    1    2    0    0 -0.12198392433E+03  0.81074694700E+02  0.34644223154E+03  0.39638686052E+03  0.12508852660E+03 0.  0.
          5    1    3    3  502    0  0.63872531957E+01  0.62321072065E+02  0.10988029932E+03  0.12655380518E+03  0.41800000000E+01 0. -1.
         -5    1    3    3    0  502 -0.12837117752E+03  0.18753622636E+02  0.23656193222E+03  0.26983305534E+03  0.41800000000E+01 0. -1.
        -11    1    1    2    0    0  0.13053680143E+03 -0.57427848863E+02  0.24580979938E+03  0.28418351786E+03  0.00000000000E+00 0. -1.
         11    1    1    2    0    0 -0.85528771039E+01 -0.23646845838E+02  0.17228940613E+02  0.30482149194E+02  0.00000000000E+00 0.  1.
</event>
<event>
 7    1  0.3056346E-009  0.9314272E+02  0.7561462E-02  0.1295415E+00
         -1   -1    0    0    0  501 -0.00000000000E+00  0.00000000000E+00  0.68006934412E+03  0.68006934412E+03  0.00000000000E+00 0.  1.
          1   -1    0    0  501    0  0.00000000000E+00 -0.00000000000E+00 -0.22540403986E+02  0.22540403986E+02  0.00000000000E+00 0. -1.
         25    2    1    2    0    0  0.32249030876E+02  0.11217177708E+02  0.49328300875E+03  0.51004058252E+03  0.12508974391E+03 0.  0.
          5    1    3    3  502    0  0.58195641085E+02  0.14384905351E+02  0.47271117040E+03  0.47651545742E+03  0.41800000000E+01 0.  1.
         -5    1    3    3    0  502 -0.25946610210E+02 -0.31677276425E+01  0.20571838351E+02  0.33525125099E+02  0.41800000000E+01 0.  1.
        -11    1    1    2    0    0 -0.36984995815E+02 -0.49140496357E+02  0.11284399543E+03  0.12851632426E+03  0.00000000000E+00 0.  1.
         11    1    1    2    0    0  0.47359649397E+01  0.37923318649E+02  0.51401935951E+02  0.64052841317E+02  0.00000000000E+00 0. -1.
</event>
<event>
 7    1  0.3056346E-009  0.1382609E+03  0.7561462E-02  0.1215688E+00
         -2   -1    0    0    0  501 -0.00000000000E+00  0.00000000000E+00  0.92802255177E+02  0.92802255177E+02  0.00000000000E+00 0. -1.
          2   -1    0    0  501    0  0.00000000000E+00 -0.00000000000E+00 -0.22416168479E+03  0.22416168479E+03  0.00000000000E+00 0.  1.
         25    2    1    2    0    0 -0.14722747566E+02 -0.91082820480E+02 -0.31519573448E+02  0.15859688555E+03  0.12508656648E+03 0.  0.
          5    1    3    3  502    0 -0.68539236617E+02 -0.65643312591E+02 -0.11672206990E+02  0.95709896353E+02  0.41800000000E+01 0. -1.
         -5    1    3    3    0  502  0.53816489050E+02 -0.25439507889E+02 -0.19847366458E+02  0.62886989200E+02  0.41800000000E+01 0. -1.
        -11    1    1    2    0    0 -0.32045768513E+02  0.51132734544E+02 -0.38988102012E+02  0.71843997105E+02  0.00000000000E+00 0.  1.
         11    1    1    2    0    0  0.46768516079E+02  0.39950085936E+02 -0.60851754153E+02  0.86523057308E+02  0.00000000000E+00 0. -1.
</event>
<event>
 7    1  0.3056346E-009  0.9857780E+02  0.7561462E-02  0.1283315E+00
         -1   -1    0    0    0  501 -0.00000000000E+00  0.00000000000E+00  0.44092882953E+02  0.44092882953E+02  0.00000000000E+00 0.  1.
          1   -1    0    0  501    0  0.00000000000E+00 -0.00000000000E+00 -0.28095562931E+03  0.28095562931E+03  0.00000000000E+00 0. -1.
         25    2    1    2    0    0 -0.26469337055E+02 -0.12593629887E+00 -0.12574343608E+03  0.17933007303E+03  0.12508885527E+03 0.  0.
          5    1    3    3  502    0  0.23727095428E+02  0.35121931095E+02 -0.10683187258E+03  0.11500889748E+03  0.41800000000E+01 0. -1.
         -5    1    3    3    0  502 -0.50196432482E+02 -0.35247867394E+02 -0.18911563497E+02  0.64321175547E+02  0.41800000000E+01 0. -1.
        -11    1    1    2    0    0  0.41302240984E+02 -0.35521445042E+02 -0.76127068479E+02  0.93610783158E+02  0.00000000000E+00 0.  1.
         11    1    1    2    0    0 -0.14832903930E+02  0.35647381341E+02 -0.34992241803E+02  0.52107656077E+02  0.00000000000E+00 0. -1.
</event>
<event>
 7    1  0.3056346E-009  0.1326993E+03  0.7561462E-02  0.1223505E+00
         -2   -1    0    0    0  501 -0.00000000000E+00  0.00000000000E+00  0.56693920145E+02  0.56693920145E+02  0.00000000000E+00 0. -1.
          2   -1    0    0  501    0  0.00000000000E+00 -0.00000000000E+00 -0.43020367511E+03  0.43020367511E+03  0.00000000000E+00 0.  1.
         25    2    1    2    0    0  0.29984794680E+02  0.10689553224E+03 -0.21869843220E+03  0.27532306203E+03  0.12509213209E+03 0.  0.
          5    1    3    3  502    0  0.23238303332E+02  0.36690855749E+01  0.87290978151E+01  0.25439152489E+02  0.41800000000E+01 0.  1.
         -5    1    3    3    0  502  0.67464913483E+01  0.10322644666E+03 -0.22742753002E+03  0.24988390954E+03  0.41800000000E+01 0.  1.
        -11    1    1    2    0    0  0.11434885779E+02 -0.93854815636E+02 -0.74878147902E+02  0.12060771146E+03  0.00000000000E+00 0.  1.
         11    1    1    2    0    0 -0.41419680459E+02 -0.13040716602E+02 -0.79933174853E+02  0.90966821759E+02  0.00000000000E+00 0. -1.
</event>
<event>
 7    1  0.3056346E-009  0.1696735E+03  0.7561462E-02  0.1178189E+00
         -1   -1    0    0    0  501 -0.00000000000E+00  0.00000000000E+00  0.53604899298E+02  0.53604899298E+02  0.00000000000E+00 0.  1.
          1   -1    0    0  501    0  0.00000000000E+00 -0.00000000000E+00 -0.88288804001E+03  0.88288804001E+03  0.00000000000E+00 0. -1.
         25    2    1    2    0    0  0.15360681917E+03  0.26662854807E+02 -0.20471287437E+03  0.28611318778E+03  0.12508969807E+03 0.  0.
          5    1    3    3  502    0  0.87731088647E+02 -0.13125134883E+01 -0.23047953657E+02  0.90813804978E+02  0.41800000000E+01 0.  1.
         -5    1    3    3    0  502  0.65875730527E+02  0.27975368295E+02 -0.18166492071E+03  0.19529938280E+03  0.41800000000E+01 0.  1.
        -11    1    1    2    0    0 -0.13156609274E+03 -0.56111125335E+02 -0.52836090356E+03  0.54737860714E+03  0.00000000000E+00 0. -1.
         11    1    1    2    0    0 -0.22040726437E+02  0.29448270528E+02 -0.96209362787E+02  0.10300114440E+03  0.00000000000E+00 0.  1.
</event>
<event>
 7    1  0.3056346E-009  0.9838296E+02  0.7561462E-02  0.1283734E+00
         -2   -1    0    0    0  501 -0.00000000000E+00  0.00000000000E+00  0.72903176179E+02  0.72903176179E+02  0.00000000000E+00 0. -1.
          2   -1    0    0  501    0  0.00000000000E+00 -0.00000000000E+00 -0.19982307175E+03  0.19982307175E+03  0.00000000000E+00 0.  1.
         25    2    1    2    0    0 -0.11536744508E+01 -0.51164998924E+02 -0.84358972858E+02  0.15930313204E+03  0.12506743580E+03 0.  0.
          5    1    3    3  502    0 -0.42333672359E+02 -0.24580408350E+02  0.12475318056E+02  0.50689666113E+02  0.41800000000E+01 0. -1.
         -5    1    3    3    0  502  0.41179997908E+02 -0.26584590574E+02 -0.96834290915E+02  0.10861346593E+03  0.41800000000E+01 0. -1.
        -11    1    1    2    0    0  0.20652565923E+02 -0.17495073209E+02 -0.30939756617E+02  0.41108084428E+02  0.00000000000E+00 0. -1.
         11    1    1    2    0    0 -0.19498891473E+02  0.68660072132E+02 -0.11621166094E+02  0.72315031461E+02  0.00000000000E+00 0.  1.
</event>
<event>
 7    1  0.3056346E-009  0.7864804E+02  0.7561462E-02  0.1332932E+00
         -1   -1    0    0    0  501 -0.00000000000E+00  0.00000000000E+00  0.34969489454E+02  0.34969489454E+02  0.00000000000E+00 0.  1.
          1   -1    0    0  501    0  0.00000000000E+00 -0.00000000000E+00 -0.48932850742E+03  0.48932850742E+03  0.00000000000E+00 0. -1.
         25    2    1    2    0    0 -0.40442369508E+01 -0.22801665925E+02 -0.39549718415E+03  0.41545523949E+03  0.12509501002E+03 0.  0.
          5    1    3    3  502    0 -0.49138786897E+01  0.41473673223E+02 -0.56456556687E+02  0.70349321015E+02  0.41800000000E+01 0. -1.
         -5    1    3    3    0  502  0.86964173889E+00 -0.64275339148E+02 -0.33904062746E+03  0.34510591848E+03  0.41800000000E+01 0. -1.
        -11    1    1    2    0    0  0.15682183719E+02 -0.82684507473E+01  0.17914827676E+02  0.25203952361E+02  0.00000000000E+00 0.  1.
         11    1    1    2    0    0 -0.11637946768E+02  0.31070116672E+02 -0.76776661493E+02  0.83638805019E+02  0.00000000000E+00 0. -1.
</event>
<event>
 7    1  0.3056346E-009  0.8997112E+02  0.7561462E-02  0.1302922E+00
          2   -1    0    0  501    0  0.00000000000E+00  0.00000000000E+00  0.22941439158E+03  0.22941439158E+03  0.00000000000E+00 0. -1.
         -2   -1    0    0    0  501 -0.00000000000E+00 -0.00000000000E+00 -0.74471964420E+02  0.74471964420E+02  0.00000000000E+00 0.  1.
         25    2    1    2    0    0 -0.13742350926E+02 -0.68356613611E+02  0.11778674056E+03  0.18542603474E+03  0.12509044438E+03 0.  0.
          5    1    3    3  502    0  0.22313740605E+02 -0.44085692210E+02 -0.98243227028E+01  0.50551369853E+02  0.41800000000E+01 0. -1.
         -5    1    3    3    0  502 -0.36056091531E+02 -0.24270921401E+02  0.12761106326E+03  0.13487466489E+03  0.41800000000E+01 0. -1.
        -11    1    1    2    0    0  0.22560121551E+01  0.73901201046E+02 -0.53046698676E+01  0.74125681307E+02  0.00000000000E+00 0.  1.
         11    1    1    2    0    0  0.11486338771E+02 -0.55445874353E+01  0.42460356467E+02  0.44334639950E+02  0.00000000000E+00 0. -1.
</event>
<event>
 7    1  0.4402242E-009  0.1120720E+03  0.7561462E-02  0.1256780E+00
         -2   -1    0    0    0  501 -0.00000000000E+00  0.00000000000E+00  0.14964980361E+03  0.14964980361E+03  0.00000000000E+00 0.  1.
          2   -1    0    0  501    0  0.00000000000E+00 -0.00000000000E+00 -0.15711691685E+03  0.15711691685E+03  0.00000000000E+00 0. -1.
         25    2    1    2    0    0 -0.70446020701E+02 -0.77216576292E+02  0.24780184277E+02  0.16488410818E+03  0.12509064758E+03 0.  0.
          5    1    3    3  502    0  0.71701590172E+01 -0.24027373213E+02  0.59342289867E+02  0.64557769560E+02  0.41800000000E+01 0. -1.
         -5    1    3    3    0  502 -0.77616179718E+02 -0.53189203078E+02 -0.34562105590E+02  0.10032633862E+03  0.41800000000E+01 0. -1.
        -11    1    1    2    0    0  0.25539158758E+02  0.26718997765E+02  0.31813655247E+02  0.48767429006E+02  0.00000000000E+00 0.  1.
         11    1    1    2    0    0  0.44906861943E+02  0.50497578526E+02 -0.64060952760E+02  0.93115183268E+02  0.00000000000E+00 0. -1.
</event>
<event>
 7    1  0.3056346E-009  0.1955094E+03  0.7561462E-02  0.1153584E+00
          1   -1    0    0  501    0  0.00000000000E+00  0.00000000000E+00  0.26408651514E+03  0.26408651514E+03  0.00000000000E+00 0. -1.
         -1   -1    0    0    0  501 -0.00000000000E+00 -0.00000000000E+00 -0.15253992462E+03  0.15253992462E+03  0.00000000000E+00 0.  1.
         25    2    1    2    0    0 -0.16419436387E+03  0.35307469924E+02  0.73700091485E+02  0.22200239594E+03  0.12508778421E+03 0.  0.
          5    1    3    3  502    0 -0.14902269979E+02 -0.34261540289E+02  0.37930906923E+02  0.53405588598E+02  0.41800000000E+01 0. -1.
         -5    1    3    3    0  502 -0.14929209390E+03  0.69569010213E+02  0.35769184561E+02  0.16859680734E+03  0.41800000000E+01 0. -1.
        -11    1    1    2    0    0  0.60474516032E+02  0.28537707128E+02  0.27790533051E+02  0.72414650070E+02  0.00000000000E+00 0. -1.
         11    1    1    2    0    0  0.10371984784E+03 -0.63845177053E+02  0.10055965986E+02  0.12220939375E+03  0.00000000000E+00 0.  1.
</event>
<event>
 7    1  0.3056346E-009  0.1678449E+03  0.7561462E-02  0.1180114E+00
          2   -1    0    0  501    0  0.00000000000E+00  0.00000000000E+00  0.98832657036E+03  0.98832657036E+03  0.00000000000E+00 0.  1.
         -2   -1    0    0    0  501 -0.00000000000E+00 -0.00000000000E+00 -0.45424122494E+02  0.45424122494E+02  0.00000000000E+00 0. -1.
         25    2    1    2    0    0  0.73299837377E+02 -0.14569686825E+03  0.68331526937E+03  0.71355952408E+03  0.12508794297E+03 0.  0.
          5    1    3    3  502    0  0.44583084465E+02 -0.49605460993E+02  0.50100700126E+03  0.50544420156E+03  0.41800000000E+01 0.  1.
         -5    1    3    3    0  502  0.28716752912E+02 -0.96091407258E+02  0.18230826812E+03  0.20811532253E+03  0.41800000000E+01 0.  1.
        -11    1    1    2    0    0  0.21852792873E+01  0.31618327139E+02  0.12248467239E+03  0.12651872994E+03  0.00000000000E+00 0.  1.
         11    1    1    2    0    0 -0.75485116664E+02  0.11407854111E+03  0.13710250610E+03  0.19367243882E+03  0.00000000000E+00 0. -1.
</event>
<event>
 7    1  0.3056346E-009  0.2429158E+03  0.7561462E-02  0.1117865E+00
          1   -1    0    0  501    0  0.00000000000E+00  0.00000000000E+00  0.14502626864E+04  0.14502626864E+04  0.00000000000E+00 0. -1.
         -1   -1    0    0    0  501 -0.00000000000E+00 -0.00000000000E+00 -0.52709248129E+02  0.52709248129E+02  0.00000000000E+00 0.  1.
         25    2    1    2    0    0 -0.12803429607E+03  0.20589211236E+03  0.92178926962E+03  0.96131628765E+03  0.12509678018E+03 0.  0.
          5    1    3    3  502    0 -0.76194658461E+02  0.12929921222E+03  0.76194614345E+03  0.77659726382E+03  0.41800000000E+01 0. -1.
         -5    1    3    3    0  502 -0.51839637613E+02  0.76592900143E+02  0.15984312617E+03  0.18471902383E+03  0.41800000000E+01 0. -1.
        -11    1    1    2    0    0  0.86020142085E+02 -0.15345258925E+03  0.24710749831E+03  0.30333031123E+03  0.00000000000E+00 0.  1.
         11    1    1    2    0    0  0.42014153989E+02 -0.52439523112E+02  0.22865667033E+03  0.23832533564E+03  0.00000000000E+00 0. -1.
</event>
<event>
 7    1  0.3056346E-009  0.6769224E+02  0.7561462E-02  0.1368121E+00
          3   -1    0    0  501    0  0.00000000000E+00  0.00000000000E+00  0.70793111104E+02  0.70793111104E+02  0.00000000000E+00 0. -1.
         -3   -1    0    0    0  501 -0.00000000000E+00 -0.00000000000E+00 -0.20322926797E+03  0.20322926797E+03  0.00000000000E+00 0.  1.
         25    2    1    2    0    0 -0.89127885115E+01  0.38589125187E+02 -0.41490523236E+02  0.13761163145E+03  0.12508772606E+03 0.  0.
          5    1    3    3  502    0 -0.27601777437E+02  0.22214138882E+02 -0.82271810109E+02  0.89674127945E+02  0.41800000000E+01 0.  1.
         -5    1    3    3    0  502  0.18688988926E+02  0.16374986304E+02  0.40781286873E+02  0.47937503508E+02  0.41800000000E+01 0.  1.
        -11    1    1    2    0    0 -0.27412362542E+02 -0.16922778108E+02 -0.88344453383E+02  0.94034889709E+02  0.00000000000E+00 0.  1.
         11    1    1    2    0    0  0.36325151053E+02 -0.21666347078E+02 -0.26011802420E+01  0.42375857908E+02  0.00000000000E+00 0. -1.
</event>
<event>
 7    1  0.3056346E-009  0.9919463E+02  0.7561462E-02  0.1281999E+00
          4   -1    0    0  501    0  0.00000000000E+00  0.00000000000E+00  0.59210693096E+03  0.59210693096E+03  0.00000000000E+00 0. -1.
         -4   -1    0    0    0  501 -0.00000000000E+00 -0.00000000000E+00 -0.35064953265E+02  0.35064953265E+02  0.00000000000E+00 0.  1.
         25    2    1    2    0    0 -0.70085443246E+02  0.24953162953E+02  0.44031473169E+03  0.46375016765E+03  0.12511005298E+03 0.  0.
          5    1    3    3  502    0 -0.93285568364E+02  0.18596959126E+02  0.42358190032E+03  0.43415105993E+03  0.41800000000E+01 0. -1.
         -5    1    3    3    0  502  0.23200125118E+02  0.63562038265E+01  0.16732831368E+02  0.29599107726E+02  0.41800000000E+01 0. -1.
        -11    1    1    2    0    0  0.45008883892E+02 -0.24629521247E+01  0.34112183327E+01  0.45205112243E+02  0.00000000000E+00 0.  1.
         11    1    1    2    0    0  0.25076559354E+02 -0.22490210828E+02  0.11331602768E+03  0.11821660433E+03  0.00000000000E+00 0. -1.
</event>
<event>
 7    1  0.3056346E-009  0.1152739E+03  0.7561462E-02  0.1251104E+00
          2   -1    0    0  501    0  0.00000000000E+00  0.00000000000E+00  0.61250917428E+02  0.61250917428E+02  0.00000000000E+00 0.  1.
         -2   -1    0    0    0  501 -0.00000000000E+00 -0.00000000000E+00 -0.24667945769E+03  0.24667945769E+03  0.00000000000E+00 0. -1.
         25    2    1    2    0    0  0.96368640218E+01 -0.54462662135E+02 -0.10877269122E+03  0.17475314302E+03  0.12509241355E+03 0.  0.
          5    1    3    3  502    0  0.38157505363E+01 -0.94327077086E+02 -0.62689709031E+02  0.11340030618E+03  0.41800000000E+01 0. -1.
         -5    1    3    3    0  502  0.58211134855E+01  0.39864414951E+02 -0.46082982184E+02  0.61352836842E+02  0.41800000000E+01 0. -1.
        -11    1    1    2    0    0 -0.41197411789E+02  0.48137084136E+02 -0.17337916715E+02  0.65688727825E+02  0.00000000000E+00 0.  1.
         11    1    1    2    0    0  0.31560547768E+02  0.63255779985E+01 -0.59317932337E+02  0.67488504274E+02  0.00000000000E+00 0. -1.
</event>
<event>
 7    1  0.3056346E-009  0.8433146E+02  0.7561462E-02  0.1317190E+00
         -2   -1    0    0    0  501 -0.00000000000E+00  0.00000000000E+00  0.45632026100E+02  0.45632026100E+02  0.00000000000E+00 0.  1.
          2   -1    0    0  501    0  0.00000000000E+00 -0.00000000000E+00 -0.29310455333E+03  0.29310455333E+03  0.00000000000E+00 0. -1.
         25    2    1    2    0    0 -0.17545543923E+02 -0.25547548225E+02 -0.10834722878E+03  0.16836137621E+03  0.12508360278E+03 0.  0.
          5    1    3    3  502    0  0.29404619107E+01  0.24084901600E+02 -0.11171849718E+03  0.11439940478E+03  0.41800000000E+01 0.  1.
         -5    1    3    3    0  502 -0.20486005833E+02 -0.49632449824E+02  0.33712684006E+01  0.53961971435E+02  0.41800000000E+01 0.  1.
        -11    1    1    2    0    0 -0.13771286206E+02  0.49103547956E+02 -0.43493889201E+02  0.67026301878E+02  0.00000000000E+00 0.  1.
         11    1    1    2    0    0  0.31316830129E+02 -0.23555999731E+02 -0.95631409250E+02  0.10334890134E+03  0.00000000000E+00 0. -1.
</event>
<event>
 7    1  0.3056346E-009  0.1242216E+03  0.7561462E-02  0.1236291E+00
          2   -1    0    0  501    0  0.00000000000E+00  0.00000000000E+00  0.38629575171E+02  0.38629575171E+02  0.00000000000E+00 0.  1.
         -2   -1    0    0    0  501 -0.00000000000E+00 -0.00000000000E+00 -0.77491826203E+03  0.77491826203E+03  0.00000000000E+00 0. -1.
         25    2    1    2    0    0  0.11366037317E+03 -0.41971422138E+02 -0.26234311380E+03  0.31488435502E+03  0.12509183416E+03 0.  0.
          5    1    3    3  502    0  0.62122765107E+02 -0.35022796419E+01 -0.23793187485E+03  0.24596860242E+03  0.41800000000E+01 0. -1.
         -5    1    3    3    0  502  0.51537608059E+02 -0.38469142496E+02 -0.24411238946E+02  0.68915752595E+02  0.41800000000E+01 0. -1.
        -11    1    1    2    0    0 -0.40284101974E+02  0.94718878031E+01 -0.40683144611E+02  0.58031403446E+02  0.00000000000E+00 0.  1.
         11    1    1    2    0    0 -0.73376271192E+02  0.32499534335E+02 -0.43326242844E+03  0.44063207873E+03  0.00000000000E+00 0. -1.
</event>
<event>
 7    1  0.3056346E-009  0.9566928E+02  0.7561462E-02  0.1289676E+00
         -1   -1    0    0    0  501 -0.00000000000E+00  0.00000000000E+00  0.16172872531E+03  0.16172872531E+03  0.00000000000E+00 0.  1.
          1   -1    0    0  501    0  0.00000000000E+00 -0.00000000000E+00 -0.99969020023E+02  0.99969020023E+02  0.00000000000E+00 0. -1.
         25    2    1    2    0    0  0.15906534511E+02 -0.41799572764E+02 -0.16967923868E+02  0.13392089053E+03  0.12508665939E+03 0.  0.
          5    1    3    3  502    0  0.63319759448E+01 -0.64963565362E+02  0.36371413864E+02  0.74837897421E+02  0.41800000000E+01 0.  1.
         -5    1    3    3    0  502  0.95745585660E+01  0.23163992599E+02 -0.53339337732E+02  0.59082993108E+02  0.41800000000E+01 0.  1.
        -11    1    1    2    0    0  0.28987338641E+02  0.47111885774E+02  0.46414077055E+02  0.72208463019E+02  0.00000000000E+00 0.  1.
         11    1    1    2    0    0 -0.44893873152E+02 -0.53123130106E+01  0.32313552097E+02  0.55568391782E+02  0.00000000000E+00 0. -1.
</event>
<event>
 7    1  0.3056346E-009  0.1023555E+03  0.7561462E-02  0.1275419E+00
         -2   -1    0    0    0  501 -0.00000000000E+00  0.00000000000E+00  0.15846656924E+03  0.15846656924E+03  0.00000000000E+00 0. -1.
          2   -1    0    0  501    0  0.00000000000E+00 -0.00000000000E+00 -0.36012523513E+03  0.36012523513E+03  0.00000000000E+00 0.  1.
         25    2    1    2    0    0  0.22424668292E+02  0.74193231993E+02 -0.31889185524E+03  0.35120834634E+03  0.12509110990E+03 0.  0.
          5    1    3    3  502    0 -0.96748009646E+01  0.29273533478E+02 -0.28413866602E+03  0.28583700856E+03  0.41800000000E+01 0. -1.
         -5    1    3    3    0  502  0.32099469257E+02  0.44919698515E+02 -0.34753189217E+02  0.65371337771E+02  0.41800000000E+01 0. -1.
        -11    1    1    2    0    0 -0.40969963639E+02  0.79987693881E+00  0.29535068861E+02  0.50512355086E+02  0.00000000000E+00 0.  1.
         11    1    1    2    0    0  0.18545295346E+02 -0.74993108932E+02  0.87698120490E+02  0.11687110295E+03  0.00000000000E+00 0. -1.
</event>
<event>
 7    1  0.3056346E-009  0.8301980E+02  0.7561462E-02  0.1320694E+00
          1   -1    0    0  501    0  0.00000000000E+00  0.00000000000E+00  0.17965539878E+04  0.17965539878E+04  0.00000000000E+00 0. -1.
         -1   -1    0    0    0  501 -0.00000000000E+00 -0.00000000000E+00 -0.92075359537E+01  0.92075359537E+01  0.00000000000E+00 0.  1.
         25    2    1    2    0    0 -0.38168743017E+02 -0.21489395464E+02  0.13756233365E+04  0.13819930542E+04  0.12508633389E+03 0.  0.
          5    1    3    3  502    0  0.14599235484E+02 -0.17141143914E+02  0.46738153827E+02  0.52046939531E+02  0.41800000000E+01 0.  1.
         -5    1    3    3    0  502 -0.52767978502E+02 -0.43482515497E+01  0.13288851827E+04  0.13299461147E+04  0.41800000000E+01 0.  1.
        -11    1    1    2    0    0  0.48331655628E+02  0.43980466646E+02  0.36620588907E+03  0.37199056919E+03  0.00000000000E+00 0. -1.
         11    1    1    2    0    0 -0.10162912611E+02 -0.22491071182E+02  0.45517226296E+02  0.51777900357E+02  0.00000000000E+00 0.  1.
</event>
<event>
 7    1  0.3056346E-009  0.9393384E+02  0.7561462E-02  0.1293596E+00
         -3   -1    0    0    0  501 -0.00000000000E+00  0.00000000000E+00  0.17405438236E+02  0.17405438236E+02  0.00000000000E+00 0.  1.
          3   -1    0    0  501    0  0.00000000000E+00 -0.00000000000E+00 -0.96396075946E+03  0.96396075946E+03  0.00000000000E+00 0. -1.
         25    2    1    2    0    0  0.20540201176E+02  0.29240177648E+02 -0.75481623546E+03  0.76594540256E+03  0.12509165652E+03 0.  0.
          5    1    3    3  502    0 -0.41084080261E+02 -0.16954814462E+02 -0.41971136528E+03  0.42207874850E+03  0.41800000000E+01 0. -1.
         -5    1    3    3    0  502  0.61624281437E+02  0.46194992110E+02 -0.33510487018E+03  0.34386665406E+03  0.41800000000E+01 0. -1.
        -11    1    1    2    0    0 -0.20751312809E+02  0.12586094231E+02 -0.59593952886E+01  0.24990821185E+02  0.00000000000E+00 0.  1.
         11    1    1    2    0    0  0.21111163239E+00 -0.41826271879E+02 -0.18577969048E+03  0.19042997396E+03  0.00000000000E+00 0. -1.
</event>
<event>
 7    1  0.3056346E-009  0.2673976E+03  0.7561462E-02  0.1102778E+00
          2   -1    0    0  501    0  0.00000000000E+00  0.00000000000E+00  0.68013249746E+03  0.68013249746E+03  0.00000000000E+00 0.  1.
         -2   -1    0    0    0  501 -0.00000000000E+00 -0.00000000000E+00 -0.13079414370E+03  0.13079414370E+03  0.00000000000E+00 0. -1.
         25    2    1    2    0    0  0.60889682030E+01 -0.26328814407E+03  0.39568249313E+03  0.49149792429E+03  0.12509137410E+03 0.  0.
          5    1    3    3  502    0 -0.15646097049E+02 -0.23424787918E+03  0.38900676207E+03  0.45437935978E+03  0.41800000000E+01 0.  1.
         -5    1    3    3    0  502  0.21735065252E+02 -0.29040264891E+02  0.66757310524E+01  0.37118564513E+02  0.41800000000E+01 0.  1.
        -11    1    1    2    0    0 -0.48224500679E+01  0.63548597873E+02  0.89031636200E+02  0.10949115289E+03  0.00000000000E+00 0. -1.
         11    1    1    2    0    0 -0.12665181351E+01  0.19973954620E+03  0.64624224433E+02  0.20993756398E+03  0.00000000000E+00 0.  1.
</event>
<event>
 7    1  0.3056346E-009  0.1491178E+03  0.7561462E-02  0.1201561E+00
         -1   -1    0    0    0  501 -0.00000000000E+00  0.00000000000E+00  0.11004757678E+03  0.11004757678E+03  0.00000000000E+00 0.  1.
          1   -1    0    0  501    0  0.00000000000E+00 -0.00000000000E+00 -0.29308170464E+03  0.29308170464E+03  0.00000000000E+00 0. -1.
         25    2    1    2    0    0 -0.65961562998E+02  0.97060069073E+02 -0.64087193905E+01  0.17163716479E+03  0.12508660941E+03 0.  0.
          5    1    3    3  502    0 -0.52533045437E+01  0.98993770691E+02 -0.33876735862E+02  0.10484497831E+03  0.41800000000E+01 0.  1.
         -5    1    3    3    0  502 -0.60708258454E+02 -0.19337016172E+01  0.27468016472E+02  0.66792186484E+02  0.41800000000E+01 0.  1.
        -11    1    1    2    0    0  0.35175349947E+02  0.11654253180E+01 -0.11717601276E+02  0.37094010834E+02  0.00000000000E+00 0. -1.
         11    1    1    2    0    0  0.30786213051E+02 -0.98225494391E+02 -0.16490780719E+03  0.19439810579E+03  0.00000000000E+00 0.  1.
</event>
<event>
 7    1  0.3056346E-009  0.1392977E+03  0.7561462E-02  0.1214277E+00
         -4   -1    0    0    0  501 -0.00000000000E+00  0.00000000000E+00  0.12665437818E+03  0.12665437818E+03  0.00000000000E+00 0.  1.
          4   -1    0    0  501    0  0.00000000000E+00 -0.00000000000E+00 -0.17447456154E+03  0.17447456154E+03  0.00000000000E+00 0. -1.
         25    2    1    2    0    0  0.76137700563E+02  0.52378330831E+02 -0.76883297873E+02  0.17349052021E+03  0.12508988817E+03 0.  0.
          5    1    3    3  502    0  0.11087536512E+03  0.35936562790E+02 -0.53541799991E+02  0.12833152334E+03  0.41800000000E+01 0.  1.
         -5    1    3    3    0  502 -0.34737664557E+02  0.16441768041E+02 -0.23341497882E+02  0.45158996873E+02  0.41800000000E+01 0.  1.
        -11    1    1    2    0    0 -0.37555507704E+02 -0.71110711536E+02  0.11268629698E+02  0.81204257705E+02  0.00000000000E+00 0. -1.
         11    1    1    2    0    0 -0.38582192859E+02  0.18732380706E+02  0.17794484814E+02  0.46434161805E+02  0.00000000000E+00 0.  1.
</event>
<event>
 7    1  0.3056346E-009  0.9906361E+02  0.7561462E-02  0.1282277E+00
         -1   -1    0    0    0  501 -0.00000000000E+00  0.00000000000E+00  0.37480147192E+03  0.37480147192E+03  0.00000000000E+00 0.  1.
          1   -1    0    0  501    0  0.00000000000E+00 -0.00000000000E+00 -0.40859036074E+02  0.40859036074E+02  0.00000000000E+00 0. -1.
         25    2    1    2    0    0  0.27139694526E+02 -0.47259097093E+02  0.14633996251E+03  0.20008017814E+03  0.12508680099E+03 0.  0.
          5    1    3    3  502    0  0.55627679210E+02 -0.61991366471E+02  0.47262206102E+02  0.95856959773E+02  0.41800000000E+01 0. -1.
         -5    1    3    3    0  502 -0.28487984683E+02  0.14732269378E+02  0.99077756408E+02  0.10422321837E+03  0.41800000000E+01 0. -1.
        -11    1    1    2    0    0 -0.47104059337E+02  0.28881577748E+02  0.47469327654E+02  0.72844183071E+02  0.00000000000E+00 0. -1.
         11    1    1    2    0    0  0.19964364811E+02  0.18377519345E+02  0.14013314568E+03  0.14273614678E+03  0.00000000000E+00 0.  1.
</event>
<event>
 7    1  0.3056346E-009  0.1578822E+03  0.7561462E-02  0.1191109E+00
         -3   -1    0    0    0  501 -0.00000000000E+00  0.00000000000E+00  0.41058209067E+03  0.41058209067E+03  0.00000000000E+00 0.  1.
          3   -1    0    0  501    0  0.00000000000E+00 -0.00000000000E+00 -0.93658796876E+02  0.93658796876E+02  0.00000000000E+00 0. -1.
         25    2    1    2    0    0 -0.11466618250E+03 -0.67344705573E+02  0.28613868851E+03  0.33942121932E+03  0.12509105598E+03 0.  0.
          5    1    3    3  502    0 -0.13659026276E+03 -0.31913251379E+02  0.22907461267E+03  0.26864103571E+03  0.41800000000E+01 0. -1.
         -5    1    3    3    0  502  0.21924080260E+02 -0.35431454195E+02  0.57064075831E+02  0.70780183611E+02  0.41800000000E+01 0. -1.
        -11    1    1    2    0    0  0.58866209772E+02  0.27377120430E+02  0.61679931299E+02  0.89549714131E+02  0.00000000000E+00 0.  1.
         11    1    1    2    0    0  0.55799972731E+02  0.39967585143E+02 -0.30895326015E+02  0.75269954089E+02  0.00000000000E+00 0. -1.
</event>
<event>
 7    1  0.3056346E-009  0.2305215E+03  0.7561462E-02  0.1126273E+00
         -2   -1    0    0    0  501 -0.00000000000E+00  0.00000000000E+00  0.40994191706E+02  0.40994191706E+02  0.00000000000E+00 0.  1.
          2   -1    0    0  501    0  0.00000000000E+00 -0.00000000000E+00 -0.13790115841E+04  0.13790115841E+04  0.00000000000E+00 0. -1.
         25    2    1    2    0    0 -0.97729721142E+02 -0.18628297547E+03 -0.74315350815E+03  0.78241767789E+03  0.12509132925E+03 0.  0.
          5    1    3    3  502    0 -0.12805212633E+02 -0.14681268967E+03 -0.51688597727E+03  0.53750025602E+03  0.41800000000E+01 0. -1.
         -5    1    3    3    0  502 -0.84924508509E+02 -0.39470285797E+02 -0.22626753088E+03  0.24491742187E+03  0.41800000000E+01 0. -1.
        -11    1    1    2    0    0  0.83522460023E+02  0.90936408641E+02 -0.42164687438E+03  0.43935352328E+03  0.00000000000E+00 0.  1.
         11    1    1    2    0    0  0.14207261118E+02  0.95346566829E+02 -0.17321700987E+03  0.19823457464E+03  0.00000000000E+00 0. -1.
</event>
<event>
 7    1  0.3056346E-009  0.1386069E+03  0.7561462E-02  0.1215216E+00
          2   -1    0    0  501    0  0.00000000000E+00  0.00000000000E+00  0.61762046308E+02  0.61762046308E+02  0.00000000000E+00 0. -1.
         -2   -1    0    0    0  501 -0.00000000000E+00 -0.00000000000E+00 -0.39569667451E+03  0.39569667451E+03  0.00000000000E+00 0.  1.
         25    2    1    2    0    0 -0.64519404670E+02  0.91307739429E+02 -0.20052207703E+03  0.26144972616E+03  0.12508796534E+03 0.  0.
          5    1    3    3  502    0  0.29863408287E+02  0.51838817877E+02 -0.43868511906E+02  0.74303465129E+02  0.41800000000E+01 0. -1.
         -5    1    3    3    0  502 -0.94382812957E+02  0.39468921552E+02 -0.15665356512E+03  0.18714626103E+03  0.41800000000E+01 0. -1.
        -11    1    1    2    0    0  0.25873960521E+02 -0.16595676861E+02 -0.10148524511E+03  0.10603835768E+03  0.00000000000E+00 0.  1.
         11    1    1    2    0    0  0.38645444150E+02 -0.74712062568E+02 -0.31927306057E+02  0.89970636981E+02  0.00000000000E+00 0. -1.
</event>
<event>
 7    1  0.3056346E-009  0.1318822E+03  0.7561462E-02  0.1224689E+00
          1   -1    0    0  501    0  0.00000000000E+00  0.00000000000E+00  0.22439145662E+03  0.22439145662E+03  0.00000000000E+00 0. -1.
         -1   -1    0    0    0  501 -0.00000000000E+00 -0.00000000000E+00 -0.80331368877E+02  0.80331368877E+02  0.00000000000E+00 0.  1.
         25    2    1    2    0    0 -0.50106287717E+02 -0.58887993317E+02  0.10041450515E+03  0.17807075112E+03  0.12509070203E+03 0.  0.
          5    1    3    3  502    0 -0.75714778176E+02  0.51786102986E+01  0.66888407301E+02  0.10124760279E+03  0.41800000000E+01 0.  1.
         -5    1    3    3    0  502  0.25608490459E+02 -0.64066603615E+02  0.33526097849E+02  0.76823148330E+02  0.41800000000E+01 0.  1.
        -11    1    1    2    0    0  0.69341455999E+02  0.68204898730E+02  0.38932037293E+02  0.10476568741E+03  0.00000000000E+00 0. -1.
         11    1    1    2    0    0 -0.19235168283E+02 -0.93169054135E+01  0.47135453039E+01  0.21886386972E+02  0.00000000000E+00 0.  1.
</event>
<event>
 7    1  0.3056346E-009  0.2124671E+03  0.7561462E-02  0.1139627E+00
         -1   -1    0    0    0  501 -0.00000000000E+00  0.00000000000E+00  0.15939516466E+03  0.15939516466E+03  0.00000000000E+00 0.  1.
          1   -1    0    0  501    0  0.00000000000E+00 -0.00000000000E+00 -0.48455309063E+03  0.48455309063E+03  0.00000000000E+00 0. -1.
         25    2    1    2    0    0 -0.16638198854E+03  0.82816487199E+02  0.36994804079E+02  0.22706113225E+03  0.12508639249E+03 0.  0.
          5    1    3    3  502    0  0.43980379336E+01 -0.22406441552E+02  0.11062652024E+01  0.23239784495E+02  0.41800000000E+01 0.  1.
         -5    1    3    3    0  502 -0.17078002647E+03  0.10522292875E+03  0.35888538876E+02  0.20382134775E+03  0.41800000000E+01 0.  1.
        -11    1    1    2    0    0 -0.52914949123E+01 -0.16023482049E+02 -0.10408251342E+02  0.19826335804E+02  0.00000000000E+00 0.  1.
         11    1    1    2    0    0  0.17167348345E+03 -0.66793005150E+02 -0.35174447871E+03  0.39706078724E+03  0.00000000000E+00 0. -1.
</event>
<event>
 7    1  0.3056346E-009  0.9734489E+02  0.7561462E-02  0.1285980E+00
          1   -1    0    0  501    0  0.00000000000E+00  0.00000000000E+00  0.11107710177E+03  0.11107710177E+03  0.00000000000E+00 0. -1.
         -1   -1    0    0    0  501 -0.00000000000E+00 -0.00000000000E+00 -0.11192039885E+03  0.11192039885E+03  0.00000000000E+00 0.  1.
         25    2    1    2    0    0 -0.24530597009E+02  0.18256792572E+01 -0.70341773882E+01  0.12768133211E+03  0.12509180478E+03 0.  0.
          5    1    3    3  502    0 -0.65835136523E+02  0.31694471022E+02  0.97966258361E+01  0.73839359234E+02  0.41800000000E+01 0.  1.
         -5    1    3    3    0  502  0.41304539514E+02 -0.29868791765E+02 -0.16830803224E+02  0.53841972875E+02  0.41800000000E+01 0.  1.
        -11    1    1    2    0    0  0.16600643601E+02  0.31767232451E+02 -0.28938743526E+02  0.46067225904E+02  0.00000000000E+00 0.  1.
         11    1    1    2    0    0  0.79299534079E+01 -0.33592911708E+02  0.35129623835E+02  0.49248942617E+02  0.00000000000E+00 0. -1.
</event>
<event>
 7    1  0.3056346E-009  0.1152038E+03  0.7561462E-02  0.1251226E+00
         -1   -1    0    0    0  501 -0.00000000000E+00  0.00000000000E+00  0.21724633584E+02  0.21724633584E+02  0.00000000000E+00 0.  1.
          1   -1    0    0  501    0  0.00000000000E+00 -0.00000000000E+00 -0.10439921021E+04  0.10439921021E+04  0.00000000000E+00 0. -1.
         25    2    1    2    0    0 -0.54598279967E+02  0.42806204277E+02 -0.82450735323E+03  0.83682323377E+03  0.12508959086E+03 0.  0.
          5    1    3    3  502    0 -0.63416495548E+02  0.73874719579E+02 -0.73769666195E+03  0.74410547878E+03  0.41800000000E+01 0.  1.
         -5    1    3    3    0  502  0.88182155807E+01 -0.31068515302E+02 -0.86810691280E+02  0.92717754986E+02  0.41800000000E+01 0.  1.
        -11    1    1    2    0    0  0.24260684622E+01  0.19202291916E+02 -0.52984798605E+01  0.20067080302E+02  0.00000000000E+00 0.  1.
         11    1    1    2    0    0  0.52172211505E+02 -0.62008496193E+02 -0.19246163541E+03  0.20882642160E+03  0.00000000000E+00 0. -1.
</event>
<event>
 7    1  0.3056346E-009  0.1750219E+03  0.7561462E-02  0.1172710E+00
         -2   -1    0    0    0  501 -0.00000000000E+00  0.00000000000E+00  0.45297091954E+02  0.45297091954E+02  0.00000000000E+00 0. -1.
          2   -1    0    0  501    0  0.00000000000E+00 -0.00000000000E+00 -0.84237860419E+03  0.84237860419E+03  0.00000000000E+00 0.  1.
         25    2    1    2    0    0  0.12351288898E+03  0.10564680261E+03 -0.41401281125E+03  0.46203032215E+03  0.12509488424E+03 0.  0.
          5    1    3    3  502    0  0.90498644649E+02  0.99220931110E+02 -0.17501425965E+03  0.22064057047E+03  0.41800000000E+01 0. -1.
         -5    1    3    3    0  502  0.33014244331E+02  0.64258714954E+01 -0.23899855159E+03  0.24138975168E+03  0.41800000000E+01 0. -1.
        -11    1    1    2    0    0 -0.99192629794E+02 -0.31988499635E+02 -0.26071080047E+03  0.28077137211E+03  0.00000000000E+00 0. -1.
         11    1    1    2    0    0 -0.24320259186E+02 -0.73658302970E+02 -0.12235790052E+03  0.14487400189E+03  0.00000000000E+00 0.  1.
</event>
<event>
 7    1  0.3056346E-009  0.1170475E+03  0.7561462E-02  0.1248049E+00
         -3   -1    0    0    0  501 -0.00000000000E+00  0.00000000000E+00  0.26389222937E+03  0.26389222937E+03  0.00000000000E+00 0.  1.
          3   -1    0    0  501    0  0.00000000000E+00 -0.00000000000E+00 -0.15587070104E+03  0.15587070104E+03  0.00000000000E+00 0. -1.
         25    2    1    2    0    0 -0.39478042364E+02  0.52991355927E+02 -0.10635253706E+03  0.17698963749E+03  0.12509144658E+03 0.  0.
          5    1    3    3  502    0 -0.46456579828E+02  0.88682860607E+02 -0.56161149340E+02  0.11486692592E+03  0.41800000000E+01 0. -1.
         -5    1    3    3    0  502  0.69785374636E+01 -0.35691504680E+02 -0.50191387719E+02  0.62122711569E+02  0.41800000000E+01 0. -1.
        -11    1    1    2    0    0  0.60218410080E+02 -0.33939461150E+02  0.81124704865E+02  0.10658030623E+03  0.00000000000E+00 0. -1.
         11    1    1    2    0    0 -0.20740367715E+02 -0.19051894777E+02  0.13324936052E+03  0.13619298670E+03  0.00000000000E+00 0.  1.
</event>
<event>
 7    1  0.3056346E-009  0.5771469E+02  0.7561462E-02  0.1407680E+00
         -1   -1    0    0    0  501 -0.00000000000E+00  0.00000000000E+00  0.98981032968E+02  0.98981032968E+02  0.00000000000E+00 0.  1.
          1   -1    0    0  501    0  0.00000000000E+00 -0.00000000000E+00 -0.12629903009E+03  0.12629903009E+03  0.00000000000E+00 0. -1.
         25    2    1    2    0    0 -0.41681453151E+01  0.24243489835E+02 -0.23008935096E+02  0.12954854056E+03  0.12509313744E+03 0.  0.
          5    1    3    3  502    0  0.21113400472E+02 -0.17671743868E+02  0.40565171992E+02  0.49204387910E+02  0.41800000000E+01 0.  1.
         -5    1    3    3    0  502 -0.25281545787E+02  0.41915233703E+02 -0.63574107088E+02  0.80344152655E+02  0.41800000000E+01 0.  1.
        -11    1    1    2    0    0 -0.11670724279E+02 -0.17948829348E+02  0.41586208386E+02  0.46773699962E+02  0.00000000000E+00 0.  1.
         11    1    1    2    0    0  0.15838869594E+02 -0.62946604865E+01 -0.45895270410E+02  0.48957822527E+02  0.00000000000E+00 0. -1.
</event>
<event>
 7    1  0.3056346E-009  0.2182041E+03  0.7561462E-02  0.1135229E+00
          1   -1    0    0  501    0  0.00000000000E+00  0.00000000000E+00  0.16771300613E+03  0.16771300613E+03  0.00000000000E+00 0. -1.
         -1   -1    0    0    0  501 -0.00000000000E+00 -0.00000000000E+00 -0.31035598490E+03  0.31035598490E+03  0.00000000000E+00 0.  1.
         25    2    1    2    0    0 -0.47990628939E+02 -0.19100292218E+03 -0.11044130965E+03  0.25812828285E+03  0.12509081014E+03 0.  0.
          5    1    3    3  502    0 -0.89407796456E+02 -0.10740703297E+03 -0.70075126638E+02  0.15639060257E+03  0.41800000000E+01 0.  1.
         -5    1    3    3    0  502  0.41417167517E+02 -0.83595889214E+02 -0.40366183013E+02  0.10173768028E+03  0.41800000000E+01 0.  1.
        -11    1    1    2    0    0 -0.83784517417E+01  0.60153482881E+02 -0.46864792542E+02  0.76713419532E+02  0.00000000000E+00 0.  1.
         11    1    1    2    0    0  0.56369080681E+02  0.13084943930E+03  0.14663123424E+02  0.14322728864E+03  0.00000000000E+00 0. -1.
</event>
<event>
 7    1  0.3056346E-009  0.1282442E+03  0.7561462E-02  0.1230084E+00
         -1   -1    0    0    0  501 -0.00000000000E+00  0.00000000000E+00  0.12960881769E+03  0.12960881769E+03  0.00000000000E+00 0.  1.
          1   -1    0    0  501    0  0.00000000000E+00 -0.00000000000E+00 -0.24038101216E+03  0.24038101216E+03  0.00000000000E+00 0. -1.
         25    2    1    2    0    0  0.10487300376E+03  0.44394782468E+02 -0.13878645196E+03  0.21881411893E+03  0.12509474717E+03 0.  0.
          5    1    3    3  502    0  0.38432008923E+01  0.31472689674E+02  0.14187664910E+02  0.34986606351E+02  0.41800000000E+01 0. -1.
         -5    1    3    3    0  502  0.10102980287E+03  0.12922092794E+02 -0.15297411687E+03  0.18382751258E+03  0.41800000000E+01 0. -1.
        -11    1    1    2    0    0 -0.68648407467E+01 -0.20600018435E+02  0.43995482300E+02  0.49062095968E+02  0.00000000000E+00 0.  1.
         11    1    1    2    0    0 -0.98008163012E+02 -0.23794764033E+02 -0.15981224812E+02  0.10211361495E+03  0.00000000000E+00 0. -1.
</event>
<event>
 7    1  0.3056346E-009  0.9550678E+02  0.7561462E-02  0.1290039E+00
         -1   -1    0    0    0  501 -0.00000000000E+00  0.00000000000E+00  0.27322161345E+02  0.27322161345E+02  0.00000000000E+00 0.  1.
          1   -1    0    0  501    0  0.00000000000E+00 -0.00000000000E+00 -0.56839810011E+03  0.56839810011E+03  0.00000000000E+00 0. -1.
         25    2    1    2    0    0 -0.51012902902E+01 -0.11625630675E+02 -0.44185650283E+03  0.45940768881E+03  0.12512824221E+03 0.  0.
          5    1    3    3  502    0 -0.42650677357E+02  0.41376516593E+02 -0.24175521002E+03  0.24898624536E+03  0.41800000000E+01 0.  1.
         -5    1    3    3    0  502  0.37549387067E+02 -0.53002147267E+02 -0.20010129280E+03  0.21042144345E+03  0.41800000000E+01 0.  1.
        -11    1    1    2    0    0 -0.28663276783E+02 -0.43661406540E+01  0.13526556622E+01  0.29025442244E+02  0.00000000000E+00 0. -1.
         11    1    1    2    0    0  0.33764567073E+02  0.15991771329E+02 -0.10057209160E+03  0.10728713040E+03  0.00000000000E+00 0.  1.
</event>
<event>
 7    1  0.3056346E-009  0.1109607E+03  0.7561462E-02  0.1258801E+00
          1   -1    0    0  501    0  0.00000000000E+00  0.00000000000E+00  0.70669508027E+03  0.70669508027E+03  0.00000000000E+00 0. -1.
         -1   -1    0    0    0  501 -0.00000000000E+00 -0.00000000000E+00 -0.29899555654E+02  0.29899555654E+02  0.00000000000E+00 0.  1.
         25    2    1    2    0    0 -0.35014386854E+02  0.78516251010E+02  0.48194378293E+03  0.50528085766E+03  0.12509247082E+03 0.  0.
          5    1    3    3  502    0  0.37962144433E+01  0.80212605673E+02  0.44255281910E+03  0.44979878106E+03  0.41800000000E+01 0.  1.
         -5    1    3    3    0  502 -0.38810601297E+02 -0.16963546629E+01  0.39390963827E+02  0.55482076596E+02  0.41800000000E+01 0.  1.
        -11    1    1    2    0    0  0.47272664862E+02 -0.39697077871E+02  0.17588591581E+03  0.18640391148E+03  0.00000000000E+00 0. -1.
         11    1    1    2    0    0 -0.12258278008E+02 -0.38819173139E+02  0.18965825870E+02  0.44909866776E+02  0.00000000000E+00 0.  1.
</event>
<event>
 7    1  0.3056346E-009  0.1257780E+03  0.7561462E-02  0.1233858E+00
          2   -1    0    0  501    0  0.00000000000E+00  0.00000000000E+00  0.60261338599E+03  0.60261338599E+03  0.00000000000E+00 0. -1.
         -2   -1    0    0    0  501 -0.00000000000E+00 -0.00000000000E+00 -0.42574783816E+02  0.42574783816E+02  0.00000000000E+00 0.  1.
         25    2    1    2    0    0 -0.27774430872E+02  0.11392448167E+03  0.29596257179E+03  0.34204155242E+03  0.12509345766E+03 0.  0.
          5    1    3    3  502    0 -0.46878585714E+02  0.88020542509E+02  0.92753476723E+02  0.13625673395E+03  0.41800000000E+01 0.  1.
         -5    1    3    3    0  502  0.19104154842E+02  0.25903939158E+02  0.20320909507E+03  0.20578481847E+03  0.41800000000E+01 0.  1.
        -11    1    1    2    0    0 -0.37609187385E+01 -0.14509791659E+02 -0.39855455217E+01  0.15510097900E+02  0.00000000000E+00 0.  1.
         11    1    1    2    0    0  0.31535349610E+02 -0.99414690007E+02  0.26806157590E+03  0.28763651948E+03  0.00000000000E+00 0. -1.
</event>
<event>
 7    1  0.3056346E-009  0.2119586E+03  0.7561462E-02  0.1140024E+00
          2   -1    0    0  501    0  0.00000000000E+00  0.00000000000E+00  0.11249118192E+04  0.11249118192E+04  0.00000000000E+00 0. -1.
         -2   -1    0    0    0  501 -0.00000000000E+00 -0.00000000000E+00 -0.47171305013E+02  0.47171305013E+02  0.00000000000E+00 0.  1.
         25    2    1    2    0    0 -0.11925548179E+03  0.14623391324E+03  0.75159996177E+03  0.78495570885E+03  0.12508690977E+03 0.  0.
          5    1    3    3  502    0 -0.12638521771E+03  0.15714384873E+03  0.60542356800E+03  0.63813993884E+03  0.41800000000E+01 0.  1.
         -5    1    3    3    0  502  0.71297359256E+01 -0.10909935491E+02  0.14617639377E+03  0.14681577001E+03  0.41800000000E+01 0.  1.
        -11    1    1    2    0    0  0.95588552349E+02 -0.15597234377E+03  0.28858776062E+03  0.34168324358E+03  0.00000000000E+00 0. -1.
         11    1    1    2    0    0  0.23666929436E+02  0.97384305274E+01  0.37552791801E+02  0.45444171795E+02  0.00000000000E+00 0.  1.
</event>
<event>
 7    1  0.3056346E-009  0.7821714E+02  0.7561462E-02  0.1334188E+00
          1   -1    0    0  501    0  0.00000000000E+00  0.00000000000E+00  0.13804730192E+03  0.13804730192E+03  0.00000000000E+00 0. -1.
         -1   -1    0    0    0  501 -0.00000000000E+00 -0.00000000000E+00 -0.14565145836E+03  0.14565145836E+03  0.00000000000E+00 0.  1.
         25    2    1    2    0    0  0.26771117743E+01 -0.48591678606E+02  0.71000689233E+02  0.15184005723E+03  0.12508391964E+03 0.  0.
          5    1    3    3  502    0 -0.23316683303E+02  0.10935872509E+02  0.81800256045E+02  0.85860440930E+02  0.41800000000E+01 0.  1.
         -5    1    3    3    0  502  0.25993795077E+02 -0.59527551115E+02 -0.10799566812E+02  0.65979616304E+02  0.41800000000E+01 0.  1.
        -11    1    1    2    0    0 -0.20088048068E+02  0.90184199647E+01 -0.85311642321E+02  0.88107535940E+02  0.00000000000E+00 0.  1.
         11    1    1    2    0    0  0.17410936294E+02  0.39573258641E+02  0.67067966401E+01  0.43751167107E+02  0.00000000000E+00 0. -1.
</event>
<event>
 7    1  0.3056346E-009  0.1165271E+03  0.7561462E-02  0.1248939E+00
          1   -1    0    0  501    0  0.00000000000E+00  0.00000000000E+00  0.41731372509E+03  0.41731372509E+03  0.00000000000E+00 0. -1.
         -1   -1    0    0    0  501 -0.00000000000E+00 -0.00000000000E+00 -0.98406248691E+02  0.98406248691E+02  0.00000000000E+00 0.  1.
         25    2    1    2    0    0 -0.48100935912E+00  0.98713525636E+02  0.34823113143E+03  0.38296201107E+03  0.12510151681E+03 0.  0.
          5    1    3    3  502    0 -0.34359519534E+02  0.31523652629E+02  0.27114386207E+03  0.27515592597E+03  0.41800000000E+01 0. -1.
         -5    1    3    3    0  502  0.33878510175E+02  0.67189873007E+02  0.77087269362E+02  0.10780608510E+03  0.41800000000E+01 0. -1.
        -11    1    1    2    0    0  0.18648612198E+02 -0.87629839372E+02 -0.50408744518E+02  0.10279981036E+03  0.00000000000E+00 0.  1.
         11    1    1    2    0    0 -0.18167602839E+02 -0.11083686264E+02  0.21085089487E+02  0.29958152360E+02  0.00000000000E+00 0. -1.
</event>
<event>
 7    1  0.3056346E-009  0.1125524E+03  0.7561462E-02  0.1255915E+00
         -1   -1    0    0    0  501 -0.00000000000E+00  0.00000000000E+00  0.75855923255E+02  0.75855923255E+02  0.00000000000E+00 0.  1.
          1   -1    0    0  501    0  0.00000000000E+00 -0.00000000000E+00 -0.28564113315E+03  0.28564113315E+03  0.00000000000E+00 0. -1.
         25    2    1    2    0    0  0.60394313508E+02  0.50021408332E+02 -0.19054856959E+03  0.24104965617E+03  0.12508623015E+03 0.  0.
          5    1    3    3  502    0  0.96286275872E+02  0.53714254525E+02 -0.13073749189E+03  0.17107317804E+03  0.41800000000E+01 0.  1.
         -5    1    3    3    0  502 -0.35891962365E+02 -0.36928461925E+01 -0.59811077701E+02  0.69976478128E+02  0.41800000000E+01 0.  1.
        -11    1    1    2    0    0 -0.20885202841E+02 -0.18598515365E+02 -0.52854092469E+02  0.59796752104E+02  0.00000000000E+00 0. -1.
         11    1    1    2    0    0 -0.39509110667E+02 -0.31422892967E+02  0.33617452166E+02  0.60650648127E+02  0.00000000000E+00 0.  1.
</event>
<event>
 7    1  0.3056346E-009  0.1524041E+03  0.7561462E-02  0.1197550E+00
         -3   -1    0    0    0  501 -0.00000000000E+00  0.00000000000E+00  0.47127547085E+02  0.47127547085E+02  0.00000000000E+00 0.  1.
          3   -1    0    0  501    0  0.00000000000E+00 -0.00000000000E+00 -0.59813693923E+03  0.59813693923E+03  0.00000000000E+00 0. -1.
         25    2    1    2    0    0  0.65315698463E+02 -0.76052998998E+02 -0.38468077984E+03  0.41674565576E+03  0.12508972817E+03 0.  0.
          5    1    3    3  502    0  0.46387488472E+02 -0.10988015209E+03 -0.31577367807E+03  0.33757359949E+03  0.41800000000E+01 0.  1.
         -5    1    3    3    0  502  0.18928209991E+02  0.33827153090E+02 -0.68907101772E+02  0.79172056271E+02  0.41800000000E+01 0.  1.
        -11    1    1    2    0    0 -0.36189870946E+02 -0.23233962070E+02 -0.15714402090E+02  0.45787183639E+02  0.00000000000E+00 0.  1.
         11    1    1    2    0    0 -0.29125827517E+02  0.99286961068E+02 -0.15061421022E+03  0.18273164692E+03  0.00000000000E+00 0. -1.
</event>
<event>
 7    1  0.3056346E-009  0.9527328E+02  0.7561462E-02  0.1290562E+00
         -2   -1    0    0    0  501 -0.00000000000E+00  0.00000000000E+00  0.55228766217E+02  0.55228766217E+02  0.00000000000E+00 0.  1.
          2   -1    0    0  501    0  0.00000000000E+00 -0.00000000000E+00 -0.29449877730E+03  0.29449877730E+03  0.00000000000E+00 0. -1.
         25    2    1    2    0    0  0.34312397901E+02  0.45452009630E+02 -0.53500964286E+02  0.14746706812E+03  0.12506381239E+03 0.  0.
          5    1    3    3  502    0  0.18350847588E+02  0.74770273545E+02 -0.74982909380E+02  0.10755118090E+03  0.41800000000E+01 0. -1.
         -5    1    3    3    0  502  0.15961550314E+02 -0.29318263915E+02  0.21481945095E+02  0.39915887219E+02  0.41800000000E+01 0. -1.
        -11    1    1    2    0    0 -0.35822171762E+02 -0.15312212845E+01 -0.90498820268E+02  0.97342740347E+02  0.00000000000E+00 0. -1.
         11    1    1    2    0    0  0.15097738610E+01 -0.43920788346E+02 -0.95270226530E+02  0.10491773506E+03  0.00000000000E+00 0.  1.
</event>
<event>
 7    1  0.3056346E-009  0.1099606E+03  0.7561462E-02  0.1260643E+00
          1   -1    0    0  501    0  0.00000000000E+00  0.00000000000E+00  0.11924962371E+03  0.11924962371E+03  0.00000000000E+00 0. -1.
         -1   -1    0    0    0  501 -0.00000000000E+00 -0.00000000000E+00 -0.14029746402E+03  0.14029746402E+03  0.00000000000E+00 0.  1.
         25    2    1    2    0    0  0.63130878079E+02 -0.13382323439E+02 -0.33484165433E+02  0.14468519453E+03  0.12509205344E+03 0.  0.
          5    1    3    3  502    0 -0.63910240835E+01 -0.32644051447E+02  0.32599988971E+02  0.46762281431E+02  0.41800000000E+01 0. -1.
         -5    1    3    3    0  502  0.69521902162E+02  0.19261728007E+02 -0.66084154404E+02  0.97922913097E+02  0.41800000000E+01 0. -1.
        -11    1    1    2    0    0 -0.75957797481E+01  0.48062955184E+02  0.35753363746E+01  0.48790640098E+02  0.00000000000E+00 0. -1.
         11    1    1    2    0    0 -0.55535098330E+02 -0.34680631745E+02  0.88609887453E+01  0.66071253101E+02  0.00000000000E+00 0.  1.
</event>
<event>
 7    1  0.3056346E-009  0.1119214E+03  0.7561462E-02  0.1257053E+00
          2   -1    0    0  501    0  0.00000000000E+00  0.00000000000E+00  0.60727027103E+03  0.60727027103E+03  0.00000000000E+00 0.  1.
         -2   -1    0    0    0  501 -0.00000000000E+00 -0.00000000000E+00 -0.21652671096E+02  0.21652671096E+02  0.00000000000E+00 0. -1.
         25    2    1    2    0    0 -0.35833424232E+02 -0.12518933860E+02  0.31460875479E+03  0.34068610023E+03  0.12509033657E+03 0.  0.
          5    1    3    3  502    0  0.31138778303E+02  0.34369449328E+02  0.84974949776E+02  0.96897353167E+02  0.41800000000E+01 0.  1.
         -5    1    3    3    0  502 -0.66972202536E+02 -0.46888383188E+02  0.22963380501E+03  0.24378874706E+03  0.41800000000E+01 0.  1.
        -11    1    1    2    0    0 -0.25973114618E+02 -0.12392279031E+02  0.11589855739E+03  0.11941795036E+03  0.00000000000E+00 0.  1.
         11    1    1    2    0    0  0.61806538850E+02  0.24911212891E+02  0.15511028776E+03  0.16881889154E+03  0.00000000000E+00 0. -1.
</event>
<event>
 7    1  0.3056346E-009  0.1012508E+03  0.7561462E-02  0.1277688E+00
         -2   -1    0    0    0  501 -0.00000000000E+00  0.00000000000E+00  0.28505398134E+03  0.28505398134E+03  0.00000000000E+00 0. -1.
          2   -1    0    0  501    0  0.00000000000E+00 -0.00000000000E+00 -0.85581392284E+02  0.85581392284E+02  0.00000000000E+00 0.  1.
         25    2    1    2    0    0 -0.17402423671E+02  0.33504540840E+02 -0.16079662363E+02  0.13165093429E+03  0.12509202353E+03 0.  0.
          5    1    3    3  502    0 -0.55755873469E+02 -0.29563936970E+01 -0.44424729928E+02  0.71473678505E+02  0.41800000000E+01 0. -1.
         -5    1    3    3    0  502  0.38353449798E+02  0.36460934537E+02  0.28345067565E+02  0.60177255786E+02  0.41800000000E+01 0. -1.
        -11    1    1    2    0    0  0.23605909173E+02  0.25122703966E+02  0.13394389879E+03  0.13830891954E+03  0.00000000000E+00 0. -1.
         11    1    1    2    0    0 -0.62034855022E+01 -0.58627244806E+02  0.81608352631E+02  0.10067551979E+03  0.00000000000E+00 0.  1.
</event>
<event>
 7    1  0.3056346E-009  0.1148489E+03  0.7561462E-02  0.1251845E+00
         -1   -1    0    0    0  501 -0.00000000000E+00  0.00000000000E+00  0.17536482312E+02  0.17536482312E+02  0.00000000000E+00 0.  1.
          1   -1    0    0  501    0  0.00000000000E+00 -0.00000000000E+00 -0.11200241168E+04  0.11200241168E+04  0.00000000000E+00 0. -1.
         25    2    1    2    0    0 -0.76537807315E+02  0.27934502015E+02 -0.74583007300E+03  0.76062361218E+03  0.12508960498E+03 0.  0.
          5    1    3    3  502    0  0.20211912382E+02  0.12460614830E+02 -0.41153876396E+03  0.41224436317E+03  0.41800000000E+01 0. -1.
         -5    1    3    3    0  502 -0.96749719697E+02  0.15473887185E+02 -0.33429130904E+03  0.34837924901E+03  0.41800000000E+01 0. -1.
        -11    1    1    2    0    0  0.73372596113E+01  0.21341735594E+02 -0.21461209184E+02  0.31143033835E+02  0.00000000000E+00 0.  1.
         11    1    1    2    0    0  0.69200547703E+02 -0.49276237609E+02 -0.33519635233E+03  0.34579395312E+03  0.00000000000E+00 0. -1.
</event>
<event>
 7    1  0.3056346E-009  0.7165718E+02  0.7561462E-02  0.1354547E+00
          2   -1    0    0  501    0  0.00000000000E+00  0.00000000000E+00  0.68136537192E+03  0.68136537192E+03  0.00000000000E+00 0. -1.
         -2   -1    0    0    0  501 -0.00000000000E+00 -0.00000000000E+00 -0.34726166158E+02  0.34726166158E+02  0.00000000000E+00 0.  1.
         25    2    1    2    0    0  0.54123115443E+02 -0.27621818038E+02  0.55633894888E+03  0.57345694373E+03  0.12509022272E+03 0.  0.
          5    1    3    3  502    0  0.40405314786E+02 -0.96146392596E+01  0.44181645488E+02  0.60782571096E+02  0.41800000000E+01 0.  1.
         -5    1    3    3    0  502  0.13717800657E+02 -0.18007178778E+02  0.51215730339E+03  0.51267437264E+03  0.41800000000E+01 0.  1.
        -11    1    1    2    0    0 -0.24010055801E+02 -0.13528971061E+02 -0.10642936909E+02  0.29542984677E+02  0.00000000000E+00 0.  1.
         11    1    1    2    0    0 -0.30113059641E+02  0.41150789099E+02  0.10094319379E+03  0.11309160967E+03  0.00000000000E+00 0. -1.
</event>
<event>
 7    1  0.3056346E-009  0.9627772E+02  0.7561462E-02  0.1288324E+00
          1   -1    0    0  501    0  0.00000000000E+00  0.00000000000E+00  0.22516792334E+03  0.22516792334E+03  0.00000000000E+00 0. -1.
         -1   -1    0    0    0  501 -0.00000000000E+00 -0.00000000000E+00 -0.10581603738E+03  0.10581603738E+03  0.00000000000E+00 0.  1.
         25    2    1    2    0    0  0.53085692838E+02 -0.73999082745E+02 -0.34112972137E+00  0.15473158420E+03  0.12509113377E+03 0.  0.
          5    1    3    3  502    0 -0.16667344088E+01 -0.21216142335E+02 -0.56224904027E+02  0.60262881876E+02  0.41800000000E+01 0.  1.
         -5    1    3    3    0  502  0.54752427247E+02 -0.52782940409E+02  0.55883774306E+02  0.94468702322E+02  0.41800000000E+01 0.  1.
        -11    1    1    2    0    0 -0.25276423590E+02  0.14788343903E+02 -0.10041554007E+02  0.30958448148E+02  0.00000000000E+00 0.  1.
         11    1    1    2    0    0 -0.27809269248E+02  0.59210738842E+02  0.12973456969E+03  0.14529392837E+03  0.00000000000E+00 0. -1.
</event>
<event>
 7    1  0.3056346E-009  0.1203120E+03  0.7561462E-02  0.1242583E+00
         -2   -1    0    0    0  501 -0.00000000000E+00  0.00000000000E+00  0.42704067591E+02  0.42704067591E+02  0.00000000000E+00 0.  1.
          2   -1    0    0  501    0  0.00000000000E+00 -0.00000000000E+00 -0.60356975433E+03  0.60356975433E+03  0.00000000000E+00 0. -1.
         25    2    1    2    0    0 -0.73915243982E+02  0.15409402444E+02 -0.47804375803E+03  0.49987289285E+03  0.12508461713E+03 0.  0.
          5    1    3    3  502    0 -0.21128816978E+02  0.55721200247E+02 -0.10384275319E+03  0.11980012043E+03  0.41800000000E+01 0.  1.
         -5    1    3    3    0  502 -0.52786427004E+02 -0.40311797803E+02 -0.37420100483E+03  0.38007277242E+03  0.41800000000E+01 0.  1.
        -11    1    1    2    0    0  0.54427527936E+02  0.31957306015E+02 -0.68655951624E+02  0.93259127694E+02  0.00000000000E+00 0. -1.
         11    1    1    2    0    0  0.19487716046E+02 -0.47366708459E+02 -0.14165977091E+02  0.53141801380E+02  0.00000000000E+00 0.  1.
</event>
<event>
 7    1  0.3056346E-009  0.2283246E+03  0.7561462E-02  0.1127825E+00
          2   -1    0    0  501    0  0.00000000000E+00  0.00000000000E+00  0.23802509735E+04  0.23802509735E+04  0.00000000000E+00 0. -1.
         -2   -1    0    0    0  501 -0.00000000000E+00 -0.00000000000E+00 -0.29528924202E+02  0.29528924202E+02  0.00000000000E+00 0.  1.
         25    2    1    2    0    0 -0.76819006358E+02 -0.20271006705E+03  0.16865358197E+04  0.17050060482E+04  0.12510004882E+03 0.  0.
          5    1    3    3  502    0 -0.10010995814E+03 -0.13490335934E+03  0.13787363361E+04  0.13889392633E+04  0.41800000000E+01 0.  1.
         -5    1    3    3    0  502  0.23290951783E+02 -0.67806707713E+02  0.30779948356E+03  0.31606678492E+03  0.41800000000E+01 0.  1.
        -11    1    1    2    0    0  0.61609421875E+02  0.16506421644E+03  0.62095060870E+03  0.64546229546E+03  0.00000000000E+00 0.  1.
         11    1    1    2    0    0  0.15209584483E+02  0.37645850612E+02  0.43235620855E+02  0.59311554011E+02  0.00000000000E+00 0. -1.
</event>
<event>
 7    1  0.3056346E-009  0.2379751E+03  0.7561462E-02  0.1121149E+00
         -2   -1    0    0    0  501 -0.00000000000E+00  0.00000000000E+00  0.54203977636E+03  0.54203977636E+03  0.00000000000E+00 0.  1.
          2   -1    0    0  501    0  0.00000000000E+00 -0.00000000000E+00 -0.24368430865E+03  0.24368430865E+03  0.00000000000E+00 0. -1.
         25    2    1    2    0    0  0.16307548127E+03 -0.14395863587E+03 -0.14033699385E+03  0.28750520248E+03  0.12508824157E+03 0.  0.
          5    1    3    3  502    0  0.16886530866E+03 -0.10184598873E+03 -0.14461257500E+03  0.24457793674E+03  0.41800000000E+01 0. -1.
         -5    1    3    3    0  502 -0.57898273851E+01 -0.42112647140E+02  0.42755811556E+01  0.42927265747E+02  0.41800000000E+01 0. -1.
        -11    1    1    2    0    0 -0.95969861015E+01 -0.13201586286E+02  0.25840058878E+02  0.30562929597E+02  0.00000000000E+00 0. -1.
         11    1    1    2    0    0 -0.15347849517E+03  0.15716022216E+03  0.41285240269E+03  0.46765595293E+03  0.00000000000E+00 0.  1.
</event>
<event>
 7    1  0.3056346E-009  0.1762709E+03  0.7561462E-02  0.1171462E+00
         -2   -1    0    0    0  501 -0.00000000000E+00  0.00000000000E+00  0.33606085421E+02  0.33606085421E+02  0.00000000000E+00 0. -1.
          2   -1    0    0  501    0  0.00000000000E+00 -0.00000000000E+00 -0.12064799429E+04  0.12064799429E+04  0.00000000000E+00 0.  1.
         25    2    1    2    0    0  0.14525942315E+02 -0.16111674563E+03 -0.46138525640E+03  0.50467202786E+03  0.12509153513E+03 0.  0.
          5    1    3    3  502    0  0.37844019483E+02 -0.14070535467E+03 -0.23786929639E+03  0.27897928455E+03  0.41800000000E+01 0. -1.
         -5    1    3    3    0  502 -0.23318077168E+02 -0.20411390957E+02 -0.22351596001E+03  0.22569274331E+03  0.41800000000E+01 0. -1.
        -11    1    1    2    0    0 -0.30039884837E+02  0.26681377048E+02 -0.79232487126E+02  0.88837365891E+02  0.00000000000E+00 0. -1.
         11    1    1    2    0    0  0.15513942522E+02  0.13443536858E+03 -0.63225611393E+03  0.64657663454E+03  0.00000000000E+00 0.  1.
</event>
<event>
 7    1  0.3056346E-009  0.3629317E+03  0.7561462E-02  0.1057429E+00
          1   -1    0    0  501    0  0.00000000000E+00  0.00000000000E+00  0.28827790064E+03  0.28827790064E+03  0.00000000000E+00 0. -1.
         -1   -1    0    0    0  501 -0.00000000000E+00 -0.00000000000E+00 -0.48314065371E+03  0.48314065371E+03  0.00000000000E+00 0.  1.
         25    2    1    2    0    0 -0.11249332286E+03  0.33488929933E+03 -0.14972377824E+03  0.40357202294E+03  0.12509027714E+03 0.  0.
          5    1    3    3  502    0  0.54269524555E+01 -0.66648342027E+01 -0.15257011438E+02  0.18003350408E+02  0.41800000000E+01 0.  1.
         -5    1    3    3    0  502 -0.11792027532E+03  0.34155413353E+03 -0.13446676680E+03  0.38556867253E+03  0.41800000000E+01 0.  1.
        -11    1    1    2    0    0  0.11323461536E+03 -0.30981552696E+03 -0.64564703133E+02  0.33611953194E+03  0.00000000000E+00 0.  1.
         11    1    1    2    0    0 -0.74129249692E+00 -0.25073772367E+02  0.19425728297E+02  0.31726999466E+02  0.00000000000E+00 0. -1.
</event>
<event>
 7    1  0.4110512E-009  0.1381044E+03  0.7561462E-02  0.1215903E+00
         -1   -1    0    0    0  501 -0.00000000000E+00  0.00000000000E+00  0.11929988218E+03  0.11929988218E+03  0.00000000000E+00 0.  1.
          1   -1    0    0  501    0  0.00000000000E+00 -0.00000000000E+00 -0.22945982247E+03  0.22945982247E+03  0.00000000000E+00 0. -1.
         25    2    1    2    0    0  0.87811501288E+02  0.83824677173E+02 -0.32277830832E+02  0.17727641324E+03  0.12509049550E+03 0.  0.
          5    1    3    3  502    0 -0.12362249437E+02  0.35818838225E+02  0.31205146932E+02  0.49265078686E+02  0.41800000000E+01 0. -1.
         -5    1    3    3    0  502  0.10017375073E+03  0.48005838948E+02 -0.63482977763E+02  0.12801133455E+03  0.41800000000E+01 0. -1.
        -11    1    1    2    0    0 -0.23381777247E+02 -0.47545804935E+02  0.12768526344E+02  0.54500883838E+02  0.00000000000E+00 0.  1.
         11    1    1    2    0    0 -0.64429724041E+02 -0.36278872238E+02 -0.90650635800E+02  0.11698240757E+03  0.00000000000E+00 0. -1.
</event>
<event>
 7    1  0.3056346E-009  0.1702786E+03  0.7561462E-02  0.1177558E+00
         -1   -1    0    0    0  501 -0.00000000000E+00  0.00000000000E+00  0.73534545812E+02  0.73534545812E+02  0.00000000000E+00 0.  1.
          1   -1    0    0  501    0  0.00000000000E+00 -0.00000000000E+00 -0.62868277387E+03  0.62868277387E+03  0.00000000000E+00 0. -1.
         25    2    1    2    0    0 -0.12323130771E+03  0.62379941955E+02 -0.49061638404E+03  0.52480788447E+03  0.12506665004E+03 0.  0.
          5    1    3    3  502    0 -0.13473682105E+03  0.79127726911E+02 -0.47099059351E+03  0.49625076290E+03  0.41800000000E+01 0.  1.
         -5    1    3    3    0  502  0.11505513331E+02 -0.16747784956E+02 -0.19625790530E+02  0.28557121561E+02  0.41800000000E+01 0.  1.
        -11    1    1    2    0    0  0.11433419848E+03 -0.15022263081E+02 -0.33457093954E+02  0.12007228851E+03  0.00000000000E+00 0.  1.
         11    1    1    2    0    0  0.88971092300E+01 -0.47357678874E+02 -0.31074750064E+02  0.57337146707E+02  0.00000000000E+00 0. -1.
</event>
<event>
 7    1  0.3056346E-009  0.1764818E+03  0.7561462E-02  0.1171252E+00
         -2   -1    0    0    0  501 -0.00000000000E+00  0.00000000000E+00  0.93377356225E+02  0.93377356225E+02  0.00000000000E+00 0.  1.
          2   -1    0    0  501    0  0.00000000000E+00 -0.00000000000E+00 -0.38869419585E+03  0.38869419585E+03  0.00000000000E+00 0. -1.
         25    2    1    2    0    0  0.12920367673E+03  0.75725365847E+02 -0.20686497413E+03  0.28437378163E+03  0.12508960407E+03 0.  0.
          5    1    3    3  502    0  0.11355242235E+03  0.10469979309E+02 -0.17747606550E+03  0.21099525898E+03  0.41800000000E+01 0.  1.
         -5    1    3    3    0  502  0.15651254379E+02  0.65255386537E+02 -0.29388908628E+02  0.73378522649E+02  0.41800000000E+01 0.  1.
        -11    1    1    2    0    0 -0.48746377783E+02 -0.77019164958E+02 -0.70550492361E+02  0.11526288687E+03  0.00000000000E+00 0. -1.
         11    1    1    2    0    0 -0.80457298943E+02  0.12937991114E+01 -0.17901373137E+02  0.82434883572E+02  0.00000000000E+00 0.  1.
</event>
<event>
 7    1  0.3056346E-009  0.1942714E+03  0.7561462E-02  0.1154664E+00
          3   -1    0    0  501    0  0.00000000000E+00  0.00000000000E+00  0.25636378693E+03  0.25636378693E+03  0.00000000000E+00 0. -1.
         -3   -1    0    0    0  501 -0.00000000000E+00 -0.00000000000E+00 -0.17345833604E+03  0.17345833604E+03  0.00000000000E+00 0.  1.
         25    2    1    2    0    0 -0.94339888407E+02  0.14871839869E+03  0.46863571446E+01  0.21607204344E+03  0.12509192363E+03 0.  0.
          5    1    3    3  502    0 -0.11547825855E+02  0.98198814271E+02 -0.43014057754E+02  0.10790755752E+03  0.41800000000E+01 0.  1.
         -5    1    3    3    0  502 -0.82792062552E+02  0.50519584416E+02  0.47700414899E+02  0.10816448591E+03  0.41800000000E+01 0.  1.
        -11    1    1    2    0    0  0.13121072257E+02 -0.93201442662E+02  0.65233545062E+02  0.11451675359E+03  0.00000000000E+00 0. -1.
         11    1    1    2    0    0  0.81218816151E+02 -0.55516956026E+02  0.12985548688E+02  0.99233325944E+02  0.00000000000E+00 0.  1.
</event>
<event>
 7    1  0.3056346E-009  0.7863435E+02  0.7561462E-02  0.1332972E+00
         -1   -1    0    0    0  501 -0.00000000000E+00  0.00000000000E+00  0.22238273109E+02  0.22238273109E+02  0.00000000000E+00 0.  1.
          1   -1    0    0  501    0  0.00000000000E+00 -0.00000000000E+00 -0.55023618395E+03  0.55023618395E+03  0.00000000000E+00 0. -1.
         25    2    1    2    0    0  0.79487772640E+01 -0.23536008443E+02 -0.28997036951E+03  0.31676069904E+03  0.12504958420E+03 0.  0.
          5    1    3    3  502    0  0.30120896080E+02 -0.35372833544E+02 -0.29817259482E+02  0.55362867489E+02  0.41800000000E+01 0.  1.
         -5    1    3    3    0  502 -0.22172118816E+02  0.11836825100E+02 -0.26015311003E+03  0.26139783155E+03  0.41800000000E+01 0.  1.
        -11    1    1    2    0    0  0.36868158968E+02  0.81544205328E+01 -0.55432620424E+02  0.67071090098E+02  0.00000000000E+00 0.  1.
         11    1    1    2    0    0 -0.44816936232E+02  0.15381587910E+02 -0.18259492091E+03  0.18864266793E+03  0.00000000000E+00 0. -1.
</event>
<event>
 7    1  0.3056346E-009  0.9473829E+02  0.7561462E-02  0.1291767E+00
         -1   -1    0    0    0  501 -0.00000000000E+00  0.00000000000E+00  0.96805830554E+01  0.96805830554E+01  0.00000000000E+00 0.  1.
          1   -1    0    0  501    0  0.00000000000E+00 -0.00000000000E+00 -0.13956698339E+04  0.13956698339E+04  0.00000000000E+00 0. -1.
         25    2    1    2    0    0  0.36318931842E+02  0.21599815403E+02 -0.78213870911E+03  0.79320505411E+03  0.12509069002E+03 0.  0.
          5    1    3    3  502    0  0.37106275548E+02  0.48837994748E+02 -0.17579121027E+03  0.18623116663E+03  0.41800000000E+01 0.  1.
         -5    1    3    3    0  502 -0.78734370581E+00 -0.27238179344E+02 -0.60634749884E+03  0.60697388748E+03  0.41800000000E+01 0.  1.
        -11    1    1    2    0    0 -0.11011171170E+02 -0.56364459557E+02 -0.34414432493E+03  0.34890330261E+03  0.00000000000E+00 0.  1.
         11    1    1    2    0    0 -0.25307760672E+02  0.34764644154E+02 -0.25970621681E+03  0.26324206025E+03  0.00000000000E+00 0. -1.
</event>
<event>
 7    1  0.3056346E-009  0.1241623E+03  0.7561462E-02  0.1236384E+00
         -2   -1    0    0    0  501 -0.00000000000E+00  0.00000000000E+00  0.34360966654E+02  0.34360966654E+02  0.00000000000E+00 0.  1.
          2   -1    0    0  501    0  0.00000000000E+00 -0.00000000000E+00 -0.56809184287E+03  0.56809184287E+03  0.00000000000E+00 0. -1.
         25    2    1    2    0    0 -0.26204588588E+02  0.60628164316E+02 -0.41667989006E+03  0.44003080970E+03  0.12507009207E+03 0.  0.
          5    1    3    3  502    0 -0.15802860281E+02 -0.35970230195E+02 -0.74859224394E+02  0.84646108772E+02  0.41800000000E+01 0.  1.
         -5    1    3    3    0  502 -0.10401728308E+02  0.96598394511E+02 -0.34182066567E+03  0.35538470092E+03  0.41800000000E+01 0.  1.
        -11    1    1    2    0    0  0.79606928310E+01  0.23849242024E+02 -0.36196218218E+02  0.44071818533E+02  0.00000000000E+00 0. -1.
         11    1    1    2    0    0  0.18243895757E+02 -0.84477406340E+02 -0.80854767934E+02  0.11835018129E+03  0.00000000000E+00 0.  1.
</event>
<event>
 7    1  0.3056346E-009  0.1683427E+03  0.7561462E-02  0.1179587E+00
          3   -1    0    0  501    0  0.00000000000E+00  0.00000000000E+00  0.93358191771E+03  0.93358191771E+03  0.00000000000E+00 0. -1.
         -3   -1    0    0    0  501 -0.00000000000E+00 -0.00000000000E+00 -0.36063451838E+02  0.36063451838E+02  0.00000000000E+00 0.  1.
         25    2    1    2    0    0  0.14513067895E+03  0.26102367928E+02  0.47009914110E+03  0.50831304718E+03  0.12507879071E+03 0.  0.
          5    1    3    3  502    0  0.29126254431E+02  0.52425857012E+02  0.77601607968E+02  0.98164612462E+02  0.41800000000E+01 0. -1.
         -5    1    3    3    0  502  0.11600442452E+03 -0.26323489083E+02  0.39249753314E+03  0.41014843472E+03  0.41800000000E+01 0. -1.
        -11    1    1    2    0    0 -0.11529635450E+03  0.37192496306E+01  0.20755275493E+03  0.23745573957E+03  0.00000000000E+00 0.  1.
         11    1    1    2    0    0 -0.29834324456E+02 -0.29821617559E+02  0.21986656985E+03  0.22387658280E+03  0.00000000000E+00 0. -1.
</event>
<event>
 6    1  0.3056346E-009  0.6458273E+02  0.7561462E-02  0.1379548E+00
         -4   -1    0    0    0  501 -0.00000000000E+00  0.00000000000E+00  0.25354666611E+02  0.25354666611E+02  0.00000000000E+00 0.  1.
          4   -1    0    0  501    0  0.00000000000E+00 -0.00000000000E+00 -0.48072808823E+03  0.48072808823E+03  0.00000000000E+00 0. -1.
          5    1    1    2  502    0 -0.16279640347E+02  0.36531179646E+01 -0.31202272360E+03  0.31249643902E+03  0.41800000000E+01 0.  1.
         -5    1    1    2    0  502  0.15179699455E+02 -0.13853933248E+02  0.29150780698E+01  0.21173682300E+02  0.41800000000E+01 0.  1.
        -11    1    1    2    0    0  0.23290179559E+02  0.44451036004E+02 -0.73801108223E+02  0.89246460101E+02  0.00000000000E+00 0.  1.
         11    1    1    2    0    0 -0.22190238666E+02 -0.34250220720E+02 -0.72464667873E+02  0.83166173420E+02  0.00000000000E+00 0. -1.
</event>
<event>
 7    1  0.3056346E-009  0.7242159E+02  0.7561462E-02  0.1352047E+00
         -1   -1    0    0    0  501 -0.00000000000E+00  0.00000000000E+00  0.89200290603E+03  0.89200290603E+03  0.00000000000E+00 0.  1.
          1   -1    0    0  501    0  0.00000000000E+00 -0.00000000000E+00 -0.14032549952E+02  0.14032549952E+02  0.00000000000E+00 0. -1.
         25    2    1    2    0    0  0.11419877322E+02  0.25981043186E+02  0.55636665214E+03  0.57095783477E+03  0.12507425502E+03 0.  0.
          5    1    3    3  502    0  0.25993263111E+01 -0.20276144660E+02  0.11077857727E+02  0.23623502521E+02  0.41800000000E+01 0.  1.
         -5    1    3    3    0  502  0.88205510105E+01  0.46257187846E+02  0.54528879441E+03  0.54733433225E+03  0.41800000000E+01 0.  1.
        -11    1    1    2    0    0  0.26138960344E+02  0.66242738172E+01  0.34961771656E+02  0.44152595946E+02  0.00000000000E+00 0. -1.
         11    1    1    2    0    0 -0.37558837665E+02 -0.32605317003E+02  0.28664193228E+03  0.29092502527E+03  0.00000000000E+00 0.  1.
</event>
<event>
 7    1  0.3056346E-009  0.1078547E+03  0.7561462E-02  0.1264595E+00
          4   -1    0    0  501    0  0.00000000000E+00  0.00000000000E+00  0.38682152956E+03  0.38682152956E+03  0.00000000000E+00 0.  1.
         -4   -1    0    0    0  501 -0.00000000000E+00 -0.00000000000E+00 -0.36341579080E+02  0.36341579080E+02  0.00000000000E+00 0. -1.
         25    2    1    2    0    0 -0.10603043446E+02  0.96202994397E+01  0.25478720915E+03  0.28419792085E+03  0.12508781547E+03 0.  0.
          5    1    3    3  502    0  0.48468372335E+02 -0.25337091134E+02  0.86776187644E+02  0.10265831893E+03  0.41800000000E+01 0.  1.
         -5    1    3    3    0  502 -0.59071415781E+02  0.34957390574E+02  0.16801102151E+03  0.18153960192E+03  0.41800000000E+01 0.  1.
        -11    1    1    2    0    0  0.51037743089E+02 -0.76582852290E+01  0.24640430622E+02  0.57189608964E+02  0.00000000000E+00 0. -1.
         11    1    1    2    0    0 -0.40434699642E+02 -0.19620142107E+01  0.71052310708E+02  0.81775578823E+02  0.00000000000E+00 0.  1.
</event>
<event>
 7    1  0.3176718E-009  0.1012915E+03  0.7561462E-02  0.1277603E+00
          1   -1    0    0  501    0  0.00000000000E+00  0.00000000000E+00  0.12409661759E+04  0.12409661759E+04  0.00000000000E+00 0. -1.
         -1   -1    0    0    0  501 -0.00000000000E+00 -0.00000000000E+00 -0.16522688512E+02  0.16522688512E+02  0.00000000000E+00 0.  1.
         25    2    1    2    0    0  0.12242277549E+02  0.32630215857E+02  0.10403761789E+04  0.10484487217E+04  0.12509006436E+03 0.  0.
          5    1    3    3  502    0  0.58386722763E+02 -0.12503771936E+02  0.35330694406E+03  0.35834148913E+03  0.41800000000E+01 0.  1.
         -5    1    3    3    0  502 -0.46144445214E+02  0.45133987793E+02  0.68706923480E+03  0.69010723260E+03  0.41800000000E+01 0.  1.
        -11    1    1    2    0    0 -0.37975703358E+02 -0.35707638421E+02  0.49110117530E+02  0.71616989123E+02  0.00000000000E+00 0.  1.
         11    1    1    2    0    0  0.25733425809E+02  0.30774225636E+01  0.13495719098E+03  0.13742315355E+03  0.00000000000E+00 0. -1.
</event>
<event>
 7    1  0.3056346E-009  0.1068729E+03  0.7561462E-02  0.1266473E+00
          2   -1    0    0  501    0  0.00000000000E+00  0.00000000000E+00  0.26569039958E+03  0.26569039958E+03  0.00000000000E+00 0. -1.
         -2   -1    0    0    0  501 -0.00000000000E+00 -0.00000000000E+00 -0.48979394156E+02  0.48979394156E+02  0.00000000000E+00 0.  1.
         25    2    1    2    0    0  0.16069104579E+02  0.21191985745E+02  0.14830645739E+03  0.19582616720E+03  0.12508303672E+03 0.  0.
          5    1    3    3  502    0  0.23157947738E+02  0.71195827420E+02  0.70175460202E+02  0.10269958130E+03  0.41800000000E+01 0.  1.
         -5    1    3    3    0  502 -0.70888431592E+01 -0.50003841675E+02  0.78130997189E+02  0.93126585900E+02  0.41800000000E+01 0.  1.
        -11    1    1    2    0    0  0.34641044795E+02 -0.11142468402E+02  0.45294365729E+01  0.36669774778E+02  0.00000000000E+00 0.  1.
         11    1    1    2    0    0 -0.50710149374E+02 -0.10049517343E+02  0.63875111463E+02  0.82173851758E+02  0.00000000000E+00 0. -1.
</event>
<event>
 6    1  0.3056346E-009  0.1082005E+03  0.7561462E-02  0.1263939E+00
          3   -1    0    0  501    0  0.00000000000E+00  0.00000000000E+00  0.40644481574E+02  0.40644481574E+02  0.00000000000E+00 0. -1.
         -3   -1    0    0    0  501 -0.00000000000E+00 -0.00000000000E+00 -0.42629390626E+03  0.42629390626E+03  0.00000000000E+00 0.  1.
          5    1    1    2  502    0 -0.51038080042E+02  0.12032806762E+02 -0.10556194582E+03  0.11794265919E+03  0.41800000000E+01 0. -1.
         -5    1    1    2    0  502  0.20418799214E+02 -0.59962473469E+02 -0.15693353677E+02  0.65392502136E+02  0.41800000000E+01 0. -1.
        -11    1    1    2    0    0 -0.28577044480E+02  0.19868786066E+02 -0.12189884426E+03  0.12677043963E+03  0.00000000000E+00 0.  1.
         11    1    1    2    0    0  0.59196325308E+02  0.28060880642E+02 -0.14249528093E+03  0.15683278688E+03  0.00000000000E+00 0. -1.
</event>
<event>
 7    1  0.3056346E-009  0.1199405E+03  0.7561462E-02  0.1243195E+00
         -1   -1    0    0    0  501 -0.00000000000E+00  0.00000000000E+00  0.43108076275E+02  0.43108076275E+02  0.00000000000E+00 0.  1.
          1   -1    0    0  501    0  0.00000000000E+00 -0.00000000000E+00 -0.54485932213E+03  0.54485932213E+03  0.00000000000E+00 0. -1.
         25    2    1    2    0    0 -0.92631965089E+02 -0.47224213546E+02 -0.21601719904E+03  0.27041024486E+03  0.12508981950E+03 0.  0.
          5    1    3    3  502    0 -0.57750204234E+02  0.58411958365E+01 -0.19482941774E+03  0.20333514225E+03  0.41800000000E+01 0.  1.
         -5    1    3    3    0  502 -0.34881760855E+02 -0.53065409383E+02 -0.21187781299E+02  0.67075102606E+02  0.41800000000E+01 0.  1.
        -11    1    1    2    0    0  0.77466750082E+02  0.10326095372E+02 -0.25638358044E+03  0.26803034518E+03  0.00000000000E+00 0. -1.
         11    1    1    2    0    0  0.15165215007E+02  0.36898118174E+02 -0.29350466372E+02  0.49526808369E+02  0.00000000000E+00 0.  1.
</event>
<event>
 7    1  0.3056346E-009  0.1073284E+03  0.7561462E-02  0.1265599E+00
         -2   -1    0    0    0  501 -0.00000000000E+00  0.00000000000E+00  0.43545600965E+03  0.43545600965E+03  0.00000000000E+00 0.  1.
          2   -1    0    0  501    0  0.00000000000E+00 -0.00000000000E+00 -0.43813717747E+02  0.43813717747E+02  0.00000000000E+00 0. -1.
         25    2    1    2    0    0 -0.30759387601E+02 -0.15142572470E+02  0.80631282378E+02  0.15272374826E+03  0.12509077567E+03 0.  0.
          5    1    3    3  502    0 -0.74759523359E+02 -0.21977294142E+02  0.73941555755E+02  0.10750262256E+03  0.41800000000E+01 0. -1.
         -5    1    3    3    0  502  0.44000135758E+02  0.68347216719E+01  0.66897266239E+01  0.45221125697E+02  0.41800000000E+01 0. -1.
        -11    1    1    2    0    0  0.34248018125E+02  0.47939489750E+02  0.25342838427E+03  0.26018660107E+03  0.00000000000E+00 0.  1.
         11    1    1    2    0    0 -0.34886305242E+01 -0.32796917281E+02  0.57582625259E+02  0.66359378070E+02  0.00000000000E+00 0. -1.
</event>
<event>
 7    1  0.3056346E-009  0.1396159E+03  0.7561462E-02  0.1213847E+00
         -2   -1    0    0    0  501 -0.00000000000E+00  0.00000000000E+00  0.22941693917E+03  0.22941693917E+03  0.00000000000E+00 0.  1.
          2   -1    0    0  501    0  0.00000000000E+00 -0.00000000000E+00 -0.13157073341E+03  0.13157073341E+03  0.00000000000E+00 0. -1.
         25    2    1    2    0    0 -0.75000384204E+02 -0.10123698386E+03  0.10358053188E+03  0.20554912797E+03  0.12509009910E+03 0.  0.
          5    1    3    3  502    0 -0.38719059915E+02 -0.39829918116E+02 -0.22944361598E+02  0.60245365854E+02  0.41800000000E+01 0.  1.
         -5    1    3    3    0  502 -0.36281324289E+02 -0.61407065742E+02  0.12652489348E+03  0.14530376212E+03  0.41800000000E+01 0.  1.
        -11    1    1    2    0    0  0.29358573963E+02  0.10229640311E+03 -0.18525806849E+02  0.10802631843E+03  0.00000000000E+00 0. -1.
         11    1    1    2    0    0  0.45641810241E+02 -0.10594192555E+01  0.12791480733E+02  0.47412226171E+02  0.00000000000E+00 0.  1.
</event>
<event>
 7    1  0.3056346E-009  0.1532652E+03  0.7561462E-02  0.1196517E+00
         -2   -1    0    0    0  501 -0.00000000000E+00  0.00000000000E+00  0.11093661031E+03  0.11093661031E+03  0.00000000000E+00 0.  1.
          2   -1    0    0  501    0  0.00000000000E+00 -0.00000000000E+00 -0.28425589521E+03  0.28425589521E+03  0.00000000000E+00 0. -1.
         25    2    1    2    0    0  0.13939175505E+03 -0.22014517498E+01 -0.10515855089E+03  0.21480519202E+03  0.12509213376E+03 0.  0.
          5    1    3    3  502    0  0.18456705098E+01 -0.26584380508E+02 -0.63474104593E+02  0.68967892098E+02  0.41800000000E+01 0.  1.
         -5    1    3    3    0  502  0.13754608454E+03  0.24382928758E+02 -0.41684446300E+02  0.14583729993E+03  0.41800000000E+01 0.  1.
        -11    1    1    2    0    0 -0.61500106446E+02  0.61805283336E+01 -0.80427924279E+02  0.10143526520E+03  0.00000000000E+00 0.  1.
         11    1    1    2    0    0 -0.77891648601E+02 -0.39790765838E+01  0.12267190277E+02  0.78952048292E+02  0.00000000000E+00 0. -1.
</event>
<event>
 7    1  0.3056346E-009  0.9476061E+02  0.7561462E-02  0.1291716E+00
         -1   -1    0    0    0  501 -0.00000000000E+00  0.00000000000E+00  0.26121130183E+02  0.26121130183E+02  0.00000000000E+00 0.  1.
          1   -1    0    0  501    0  0.00000000000E+00 -0.00000000000E+00 -0.81030903516E+03  0.81030903516E+03  0.00000000000E+00 0. -1.
         25    2    1    2    0    0 -0.18178217924E+01  0.35361047157E+01 -0.70927087653E+03  0.72022801234E+03  0.12508958773E+03 0.  0.
          5    1    3    3  502    0  0.52177142964E+01  0.52558008442E+02 -0.15645172430E+03  0.16517924577E+03  0.41800000000E+01 0.  1.
         -5    1    3    3    0  502 -0.70355360888E+01 -0.49021903726E+02 -0.55281915222E+03  0.55504876658E+03  0.41800000000E+01 0.  1.
        -11    1    1    2    0    0  0.22299204726E+01 -0.45159229952E+02 -0.51152668560E+02  0.68270960854E+02  0.00000000000E+00 0.  1.
         11    1    1    2    0    0 -0.41209868028E+00  0.41623125236E+02 -0.23764359891E+02  0.47931192148E+02  0.00000000000E+00 0. -1.
</event>
<event>
 7    1  0.3056346E-009  0.8459120E+02  0.7561462E-02  0.1316505E+00
          1   -1    0    0  501    0  0.00000000000E+00  0.00000000000E+00  0.28925044064E+03  0.28925044064E+03  0.00000000000E+00 0. -1.
         -1   -1    0    0    0  501 -0.00000000000E+00 -0.00000000000E+00 -0.54849623092E+02  0.54849623092E+02  0.00000000000E+00 0.  1.
         25    2    1    2    0    0 -0.39674955142E+02  0.12629064549E+02  0.17909532910E+03  0.22238806502E+03  0.12509084388E+03 0.  0.
          5    1    3    3  502    0  0.26447585341E+01 -0.20594565726E+02  0.16534848360E+03  0.16669950304E+03  0.41800000000E+01 0.  1.
         -5    1    3    3    0  502 -0.42319713676E+02  0.33223630275E+02  0.13746845493E+02  0.55688561979E+02  0.41800000000E+01 0.  1.
        -11    1    1    2    0    0 -0.18682442877E+01  0.32583216882E+02 -0.79146427076E+01  0.33582702814E+02  0.00000000000E+00 0.  1.
         11    1    1    2    0    0  0.41543199430E+02 -0.45212281431E+02  0.63220131157E+02  0.88129295893E+02  0.00000000000E+00 0. -1.
</event>
<event>
 7    1  0.3056346E-009  0.2670356E+03  0.7561462E-02  0.1102988E+00
          2   -1    0    0  501    0  0.00000000000E+00  0.00000000000E+00  0.74012641167E+03  0.74012641167E+03  0.00000000000E+00 0. -1.
         -2   -1    0    0    0  501 -0.00000000000E+00 -0.00000000000E+00 -0.16513890686E+03  0.16513890686E+03  0.00000000000E+00 0.  1.
         25    2    1    2    0    0  0.10532806155E+03 -0.22921285117E+03  0.57170171491E+03  0.63727718753E+03  0.12508729442E+03 0.  0.
          5    1    3    3  502    0  0.11512879443E+03 -0.22826873203E+03  0.47030779275E+03  0.53532060081E+03  0.41800000000E+01 0. -1.
         -5    1    3    3    0  502 -0.98007328728E+01 -0.94411914418E+00  0.10139392216E+03  0.10195658672E+03  0.41800000000E+01 0. -1.
        -11    1    1    2    0    0 -0.94427821219E+02  0.23644315526E+03  0.44039910996E+00  0.25460198946E+03  0.00000000000E+00 0. -1.
         11    1    1    2    0    0 -0.10900240333E+02 -0.72303040873E+01  0.28453907980E+01  0.13386141539E+02  0.00000000000E+00 0.  1.
</event>
<event>
 7    1  0.3056346E-009  0.1082626E+03  0.7561462E-02  0.1263821E+00
         -2   -1    0    0    0  501 -0.00000000000E+00  0.00000000000E+00  0.33330138295E+03  0.33330138295E+03  0.00000000000E+00 0.  1.
          2   -1    0    0  501    0  0.00000000000E+00 -0.00000000000E+00 -0.36380726774E+02  0.36380726774E+02  0.00000000000E+00 0. -1.
         25    2    1    2    0    0  0.56782516131E+01  0.19510191870E+02  0.18430828595E+03  0.22367455853E+03  0.12509146149E+03 0.  0.
          5    1    3    3  502    0 -0.10723875416E+02 -0.51764955056E+02  0.68257092709E+02  0.86435612920E+02  0.41800000000E+01 0.  1.
         -5    1    3    3    0  502  0.16402127029E+02  0.71275146926E+02  0.11605119324E+03  0.13723894561E+03  0.41800000000E+01 0.  1.
        -11    1    1    2    0    0 -0.38645967354E+02 -0.36493697232E+02  0.82949602469E+02  0.98518715380E+02  0.00000000000E+00 0.  1.
         11    1    1    2    0    0  0.32967715741E+02  0.16983505362E+02  0.29662767758E+02  0.47488835810E+02  0.00000000000E+00 0. -1.
</event>
<event>
 7    1  0.3056346E-009  0.1093463E+03  0.7561462E-02  0.1261785E+00
          1   -1    0    0  501    0  0.00000000000E+00  0.00000000000E+00  0.84822808453E+02  0.84822808453E+02  0.00000000000E+00 0. -1.
         -1   -1    0    0    0  501 -0.00000000000E+00 -0.00000000000E+00 -0.16478499467E+03  0.16478499467E+03  0.00000000000E+00 0.  1.
         25    2    1    2    0    0 -0.15859665452E+02  0.41189035340E+02 -0.47678441265E+02  0.14095862876E+03  0.12509210862E+03 0.  0.
          5    1    3    3  502    0  0.20788562922E+02  0.66774639453E+02  0.67744212122E+01  0.70387371063E+02  0.41800000000E+01 0.  1.
         -5    1    3    3    0  502 -0.36648228375E+02 -0.25585604113E+02 -0.54452862477E+02  0.70571257696E+02  0.41800000000E+01 0.  1.
        -11    1    1    2    0    0 -0.28447364060E+02 -0.50966449398E+02 -0.18390246765E+02  0.61196671987E+02  0.00000000000E+00 0. -1.
         11    1    1    2    0    0  0.44307029512E+02  0.97774140583E+01 -0.13893498185E+02  0.47452502375E+02  0.00000000000E+00 0.  1.
</event>
<event>
 7    1  0.3056346E-009  0.9920483E+02  0.7561462E-02  0.1281977E+00
          1   -1    0    0  501    0  0.00000000000E+00  0.00000000000E+00  0.15746858940E+03  0.15746858940E+03  0.00000000000E+00 0. -1.
         -1   -1    0    0    0  501 -0.00000000000E+00 -0.00000000000E+00 -0.96414291790E+02  0.96414291790E+02  0.00000000000E+00 0.  1.
         25    2    1    2    0    0  0.21467549383E+01  0.66101071491E+02  0.67495800659E+02  0.15677082900E+03  0.12508976580E+03 0.  0.
          5    1    3    3  502    0  0.40719917638E+02  0.38564494421E+02  0.88424488820E+02  0.10479358065E+03  0.41800000000E+01 0. -1.
         -5    1    3    3    0  502 -0.38573162699E+02  0.27536577070E+02 -0.20928688162E+02  0.51977248345E+02  0.41800000000E+01 0. -1.
        -11    1    1    2    0    0  0.29890704848E+02 -0.13041922226E+02 -0.12300162113E+02  0.34854554361E+02  0.00000000000E+00 0.  1.
         11    1    1    2    0    0 -0.32037459786E+02 -0.53059149265E+02  0.58586590631E+01  0.62257497832E+02  0.00000000000E+00 0. -1.
</event>
<event>
 7    1  0.3056346E-009  0.1053685E+03  0.7561462E-02  0.1269395E+00
          2   -1    0    0  501    0  0.00000000000E+00  0.00000000000E+00  0.53678828320E+03  0.53678828320E+03  0.00000000000E+00 0. -1.
         -2   -1    0    0    0  501 -0.00000000000E+00 -0.00000000000E+00 -0.42204292686E+02  0.42204292686E+02  0.00000000000E+00 0.  1.
         25    2    1    2    0    0 -0.87989857321E+02  0.39997826453E+02  0.34641135567E+03  0.38077652064E+03  0.12509152737E+03 0.  0.
          5    1    3    3  502    0 -0.51511662359E+02  0.23642516922E+02  0.34921209780E+02  0.66703697483E+02  0.41800000000E+01 0.  1.
         -5    1    3    3    0  502 -0.36478194963E+02  0.16355309531E+02  0.31149014590E+03  0.31407282316E+03  0.41800000000E+01 0.  1.
        -11    1    1    2    0    0  0.26282956831E+02 -0.44667749101E+02  0.11901060237E+03  0.12980572062E+03  0.00000000000E+00 0. -1.
         11    1    1    2    0    0  0.61706900490E+02  0.46699226478E+01  0.29162032473E+02  0.68410334626E+02  0.00000000000E+00 0.  1.
</event>
<event>
 7    1  0.3056346E-009  0.1008685E+03  0.7561462E-02  0.1278480E+00
         -1   -1    0    0    0  501 -0.00000000000E+00  0.00000000000E+00  0.34845232641E+03  0.34845232641E+03  0.00000000000E+00 0.  1.
          1   -1    0    0  501    0  0.00000000000E+00 -0.00000000000E+00 -0.59381529317E+02  0.59381529317E+02  0.00000000000E+00 0. -1.
         25    2    1    2    0    0  0.82868661848E+01  0.95595310709E+01  0.29137486831E+03  0.31733468849E+03  0.12506771707E+03 0.  0.
          5    1    3    3  502    0 -0.63570337709E+01  0.60818931286E+02  0.21857344051E+03  0.22700479197E+03  0.41800000000E+01 0.  1.
         -5    1    3    3    0  502  0.14643899956E+02 -0.51259400216E+02  0.72801427797E+02  0.90329896522E+02  0.41800000000E+01 0.  1.
        -11    1    1    2    0    0 -0.33788382415E+02  0.26404953525E+02 -0.13599633130E+02  0.44986957867E+02  0.00000000000E+00 0. -1.
         11    1    1    2    0    0  0.25501516230E+02 -0.35964484595E+02  0.11295561913E+02  0.45512209364E+02  0.00000000000E+00 0.  1.
</event>
<event>
 7    1  0.3056346E-009  0.1050682E+03  0.7561462E-02  0.1269985E+00
         -4   -1    0    0    0  501 -0.00000000000E+00  0.00000000000E+00  0.88204268859E+02  0.88204268859E+02  0.00000000000E+00 0.  1.
          4   -1    0    0  501    0  0.00000000000E+00 -0.00000000000E+00 -0.16481761207E+03  0.16481761207E+03  0.00000000000E+00 0. -1.
         25    2    1    2    0    0  0.17511458434E+02 -0.46788161548E+02 -0.64606237223E+02  0.14939777416E+03  0.12509974340E+03 0.  0.
          5    1    3    3  502    0  0.62944175766E+02 -0.51260776282E+02 -0.64155756857E+02  0.10355225727E+03  0.41800000000E+01 0.  1.
         -5    1    3    3    0  502 -0.45432717332E+02  0.44726147341E+01 -0.45048036667E+00  0.45845516895E+02  0.41800000000E+01 0.  1.
        -11    1    1    2    0    0 -0.43032864726E+02  0.28610358007E+02  0.23068913785E+02  0.56591119578E+02  0.00000000000E+00 0.  1.
         11    1    1    2    0    0  0.25521406292E+02  0.18177803541E+02 -0.35076019776E+02  0.47032987191E+02  0.00000000000E+00 0. -1.
</event>
<event>
 7    1  0.3056346E-009  0.1064912E+03  0.7561462E-02  0.1267209E+00
         -1   -1    0    0    0  501 -0.00000000000E+00  0.00000000000E+00  0.44520729774E+03  0.44520729774E+03  0.00000000000E+00 0.  1.
          1   -1    0    0  501    0  0.00000000000E+00 -0.00000000000E+00 -0.36518268174E+02  0.36518268174E+02  0.00000000000E+00 0. -1.
         25    2    1    2    0    0 -0.37913562333E+02  0.40402017313E+02  0.27077495466E+03  0.30337622620E+03  0.12509315465E+03 0.  0.
          5    1    3    3  502    0 -0.64445945152E+02  0.14726382202E+02  0.25420180567E+03  0.26269026739E+03  0.41800000000E+01 0. -1.
         -5    1    3    3    0  502  0.26532382819E+02  0.25675635111E+02  0.16573148999E+02  0.40685958809E+02  0.41800000000E+01 0. -1.
        -11    1    1    2    0    0  0.82615833024E+01 -0.68344715302E+02  0.10688210361E+03  0.12713393702E+03  0.00000000000E+00 0.  1.
         11    1    1    2    0    0  0.29651979030E+02  0.27942697989E+02  0.31031971289E+02  0.51215402697E+02  0.00000000000E+00 0. -1.
</event>
<event>
 7    1  0.3056346E-009  0.1330168E+03  0.7561462E-02  0.1223047E+00
         -2   -1    0    0    0  501 -0.00000000000E+00  0.00000000000E+00  0.73774747359E+02  0.73774747359E+02  0.00000000000E+00 0.  1.
          2   -1    0    0  501    0  0.00000000000E+00 -0.00000000000E+00 -0.32608741104E+03  0.32608741104E+03  0.00000000000E+00 0. -1.
         25    2    1    2    0    0  0.57558152390E+02  0.89495565601E+02 -0.17514286313E+03  0.24012245623E+03  0.12514541266E+03 0.  0.
          5    1    3    3  502    0  0.46763118617E+02 -0.72916668989E+01 -0.11782123219E+03  0.12704043775E+03  0.41800000000E+01 0.  1.
         -5    1    3    3    0  502  0.10795033773E+02  0.96787232500E+02 -0.57321630937E+02  0.11308201848E+03  0.41800000000E+01 0.  1.
        -11    1    1    2    0    0 -0.39409808083E+02 -0.94356564792E+02 -0.26405748315E+02  0.10561040591E+03  0.00000000000E+00 0.  1.
         11    1    1    2    0    0 -0.18148344307E+02  0.48609991909E+01 -0.50764052233E+02  0.54129296258E+02  0.00000000000E+00 0. -1.
</event>
<event>
 7    1  0.3056346E-009  0.1114008E+03  0.7561462E-02  0.1257998E+00
         -1   -1    0    0    0  501 -0.00000000000E+00  0.00000000000E+00  0.20594069745E+03  0.20594069745E+03  0.00000000000E+00 0.  1.
          1   -1    0    0  501    0  0.00000000000E+00 -0.00000000000E+00 -0.21764832366E+03  0.21764832366E+03  0.00000000000E+00 0. -1.
         25    2    1    2    0    0 -0.28918880665E+02  0.24558140745E+02 -0.18301039400E+03  0.22489881727E+03  0.12508904733E+03 0.  0.
          5    1    3    3  502    0 -0.39447940430E+02  0.69161826880E+02 -0.84546460413E+02  0.11621133624E+03  0.41800000000E+01 0. -1.
         -5    1    3    3    0  502  0.10529059765E+02 -0.44603686135E+02 -0.98463933587E+02  0.10868748104E+03  0.41800000000E+01 0. -1.
        -11    1    1    2    0    0  0.44322828972E+02 -0.50306653334E+02  0.14056256535E+03  0.15573409169E+03  0.00000000000E+00 0.  1.
         11    1    1    2    0    0 -0.15403948307E+02  0.25748512590E+02  0.30740202448E+02  0.42956112145E+02  0.00000000000E+00 0. -1.
</event>
<event>
 7    1  0.3056346E-009  0.6510864E+02  0.7561462E-02  0.1377563E+00
         -1   -1    0    0    0  501 -0.00000000000E+00  0.00000000000E+00  0.12898166604E+03  0.12898166604E+03  0.00000000000E+00 0.  1.
          1   -1    0    0  501    0  0.00000000000E+00 -0.00000000000E+00 -0.11768143505E+03  0.11768143505E+03  0.00000000000E+00 0. -1.
         25    2    1    2    0    0  0.23098854174E+02  0.45675817756E+02  0.35785854703E+02  0.13981301836E+03  0.12508882969E+03 0.  0.
          5    1    3    3  502    0  0.88782519132E+01  0.55318997331E+01 -0.46080256572E+02  0.47437197614E+02  0.41800000000E+01 0. -1.
         -5    1    3    3    0  502  0.14220602261E+02  0.40143918023E+02  0.81866111276E+02  0.92375820745E+02  0.41800000000E+01 0. -1.
        -11    1    1    2    0    0  0.18856749883E+02 -0.16501968090E+02  0.25226930267E+02  0.35556855565E+02  0.00000000000E+00 0.  1.
         11    1    1    2    0    0 -0.41955604057E+02 -0.29173849666E+02 -0.49712553979E+02  0.71293227163E+02  0.00000000000E+00 0. -1.
</event>
<event>
 7    1  0.3056346E-009  0.1130676E+03  0.7561462E-02  0.1254992E+00
         -2   -1    0    0    0  501 -0.00000000000E+00  0.00000000000E+00  0.68187138364E+02  0.68187138364E+02  0.00000000000E+00 0. -1.
          2   -1    0    0  501    0  0.00000000000E+00 -0.00000000000E+00 -0.30468585220E+03  0.30468585220E+03  0.00000000000E+00 0.  1.
         25    2    1    2    0    0  0.66523272840E+02 -0.28875593394E+02 -0.20802230161E+03  0.25333576908E+03  0.12508632301E+03 0.  0.
          5    1    3    3  502    0  0.85641748468E+02  0.22797983590E+02 -0.13929309350E+03  0.16514931255E+03  0.41800000000E+01 0. -1.
         -5    1    3    3    0  502 -0.19118475628E+02 -0.51673576983E+02 -0.68729208104E+02  0.88186456529E+02  0.41800000000E+01 0. -1.
        -11    1    1    2    0    0 -0.38674185844E+02  0.36610095275E+02 -0.57641503061E+02  0.78476331476E+02  0.00000000000E+00 0.  1.
         11    1    1    2    0    0 -0.27849086996E+02 -0.77345018811E+01  0.29165090830E+02  0.41060890017E+02  0.00000000000E+00 0. -1.
</event>
<event>
 7    1  0.3056346E-009  0.1027255E+03  0.7561462E-02  0.1274667E+00
         -1   -1    0    0    0  501 -0.00000000000E+00  0.00000000000E+00  0.10950980358E+03  0.10950980358E+03  0.00000000000E+00 0.  1.
          1   -1    0    0  501    0  0.00000000000E+00 -0.00000000000E+00 -0.19283140932E+03  0.19283140932E+03  0.00000000000E+00 0. -1.
         25    2    1    2    0    0 -0.50041343180E+02 -0.51800017771E+02  0.58829812258E+01  0.14445470909E+03  0.12508067654E+03 0.  0.
          5    1    3    3  502    0  0.49760295445E+01 -0.24394881409E+02  0.58322180215E+02  0.63551712912E+02  0.41800000000E+01 0.  1.
         -5    1    3    3    0  502 -0.55017372725E+02 -0.27405136362E+02 -0.52439198989E+02  0.80902996182E+02  0.41800000000E+01 0.  1.
        -11    1    1    2    0    0 -0.17575606303E+02  0.47725229112E+02 -0.69533947959E+01  0.51331755570E+02  0.00000000000E+00 0.  1.
         11    1    1    2    0    0  0.67616949483E+02  0.40747886588E+01 -0.82251192169E+02  0.10655474824E+03  0.00000000000E+00 0. -1.
</event>
<event>
 7    1  0.3056346E-009  0.1443214E+03  0.7561462E-02  0.1207630E+00
         -1   -1    0    0    0  501 -0.00000000000E+00  0.00000000000E+00  0.17091940073E+03  0.17091940073E+03  0.00000000000E+00 0.  1.
          1   -1    0    0  501    0  0.00000000000E+00 -0.00000000000E+00 -0.14034381330E+03  0.14034381330E+03  0.00000000000E+00 0. -1.
         25    2    1    2    0    0 -0.15026266194E+02  0.10883605077E+03  0.10485796226E+02  0.16681105129E+03  0.12507957582E+03 0.  0.
          5    1    3    3  502    0 -0.15296679006E+02  0.13539169118E+03 -0.37940019585E+01  0.13636995740E+03  0.41800000000E+01 0.  1.
         -5    1    3    3    0  502  0.27041281152E+00 -0.26555640416E+02  0.14279798185E+02  0.30441093889E+02  0.41800000000E+01 0.  1.
        -11    1    1    2    0    0 -0.23018437970E+02 -0.29175226346E+02 -0.25525364040E+02  0.45084215955E+02  0.00000000000E+00 0. -1.
         11    1    1    2    0    0  0.38044704164E+02 -0.79660824421E+02  0.45615155242E+02  0.99367946794E+02  0.00000000000E+00 0.  1.
</event>
<event>
 7    1  0.3365041E-009  0.1601971E+03  0.7561462E-02  0.1188474E+00
          1   -1    0    0  501    0  0.00000000000E+00  0.00000000000E+00  0.17919768078E+04  0.17919768078E+04  0.00000000000E+00 0. -1.
         -1   -1    0    0    0  501 -0.00000000000E+00 -0.00000000000E+00 -0.25467742405E+02  0.25467742405E+02  0.00000000000E+00 0.  1.
         25    2    1    2    0    0 -0.11389984765E+03 -0.10606976901E+03  0.13330200350E+04  0.13478917788E+04  0.12508342254E+03 0.  0.
          5    1    3    3  502    0 -0.60729838160E+01  0.56761767433E+01  0.45268144936E+01  0.10347200796E+02  0.41800000000E+01 0.  1.
         -5    1    3    3    0  502 -0.10782686384E+03 -0.11174594576E+03  0.13284932205E+04  0.13375445781E+04  0.41800000000E+01 0.  1.
        -11    1    1    2    0    0  0.46018887239E+02  0.46746622823E+02  0.73803247208E+02  0.98741602309E+02  0.00000000000E+00 0.  1.
         11    1    1    2    0    0  0.67880960415E+02  0.59323146191E+02  0.35968578322E+03  0.37081116908E+03  0.00000000000E+00 0. -1.
</event>
<event>
 7    1  0.3056346E-009  0.7922067E+02  0.7561462E-02  0.1331278E+00
          1   -1    0    0  501    0  0.00000000000E+00  0.00000000000E+00  0.23927369365E+02  0.23927369365E+02  0.00000000000E+00 0. -1.
         -1   -1    0    0    0  501 -0.00000000000E+00 -0.00000000000E+00 -0.60108547335E+03  0.60108547335E+03  0.00000000000E+00 0.  1.
         25    2    1    2    0    0  0.20379862410E+02  0.16285370892E+01 -0.46000861762E+03  0.47715208152E+03  0.12509272437E+03 0.  0.
          5    1    3    3  502    0  0.60433861826E+02  0.18854376464E+00 -0.11669794447E+03  0.13148448519E+03  0.41800000000E+01 0. -1.
         -5    1    3    3    0  502 -0.40053999416E+02  0.14399933246E+01 -0.34331067315E+03  0.34566759632E+03  0.41800000000E+01 0. -1.
        -11    1    1    2    0    0  0.13743961274E+02  0.14363895149E+02 -0.10700187247E+03  0.10883298519E+03  0.00000000000E+00 0.  1.
         11    1    1    2    0    0 -0.34123823684E+02 -0.15992432239E+02 -0.10147613903E+02  0.39027776002E+02  0.00000000000E+00 0. -1.
</event>
<event>
 7    1  0.3056346E-009  0.1432162E+03  0.7561462E-02  0.1209066E+00
          2   -1    0    0  501    0  0.00000000000E+00  0.00000000000E+00  0.11615627598E+04  0.11615627598E+04  0.00000000000E+00 0. -1.
         -2   -1    0    0    0  501 -0.00000000000E+00 -0.00000000000E+00 -0.24881271993E+02  0.24881271993E+02  0.00000000000E+00 0.  1.
         25    2    1    2    0    0 -0.93912663235E+02  0.56383654470E+01  0.92172636225E+03  0.93492037480E+03  0.12508093730E+03 0.  0.
          5    1    3    3  502    0  0.23834643120E+02  0.27396772445E+02  0.23307511033E+03  0.23592404034E+03  0.41800000000E+01 0.  1.
         -5    1    3    3    0  502 -0.11774730636E+03 -0.21758406998E+02  0.68865125192E+03  0.69899633447E+03  0.41800000000E+01 0.  1.
        -11    1    1    2    0    0  0.83159778195E+01  0.34526414780E+02  0.69312102142E+02  0.77880654260E+02  0.00000000000E+00 0.  1.
         11    1    1    2    0    0  0.85596685416E+02 -0.40164780227E+02  0.14564302338E+03  0.17364300269E+03  0.00000000000E+00 0. -1.
</event>
<event>
 7    1  0.3056346E-009  0.1029888E+03  0.7561462E-02  0.1274134E+00
         -1   -1    0    0    0  501 -0.00000000000E+00  0.00000000000E+00  0.20126992632E+03  0.20126992632E+03  0.00000000000E+00 0.  1.
          1   -1    0    0  501    0  0.00000000000E+00 -0.00000000000E+00 -0.58322357730E+02  0.58322357730E+02  0.00000000000E+00 0. -1.
         25    2    1    2    0    0  0.18519837380E+02  0.10986891457E+02  0.90459891588E+02  0.15586436056E+03  0.12508801200E+03 0.  0.
          5    1    3    3  502    0 -0.86982042842E+01  0.65247602912E+02  0.50465101908E+02  0.83048825122E+02  0.41800000000E+01 0. -1.
         -5    1    3    3    0  502  0.27218041664E+02 -0.54260711455E+02  0.39994789680E+02  0.72815535438E+02  0.41800000000E+01 0. -1.
        -11    1    1    2    0    0 -0.72726564768E+01  0.32988627133E+02 -0.72116583504E+00  0.33788476327E+02  0.00000000000E+00 0. -1.
         11    1    1    2    0    0 -0.11247180903E+02 -0.43975518589E+02  0.53208842841E+02  0.69939447166E+02  0.00000000000E+00 0.  1.
</event>
<event>
 7    1  0.3056346E-009  0.1252805E+03  0.7561462E-02  0.1234632E+00
         -1   -1    0    0    0  501 -0.00000000000E+00  0.00000000000E+00  0.26000856763E+02  0.26000856763E+02  0.00000000000E+00 0.  1.
          1   -1    0    0  501    0  0.00000000000E+00 -0.00000000000E+00 -0.84784595328E+03  0.84784595328E+03  0.00000000000E+00 0. -1.
         25    2    1    2    0    0  0.69869511092E+02  0.36594994658E+01 -0.65943328386E+03  0.67482951912E+03  0.12508990167E+03 0.  0.
          5    1    3    3  502    0  0.26655736542E+02 -0.56259157561E+02 -0.40769238292E+03  0.41243929564E+03  0.41800000000E+01 0. -1.
         -5    1    3    3    0  502  0.43213774550E+02  0.59918657027E+02 -0.25174090094E+03  0.26239022348E+03  0.41800000000E+01 0. -1.
        -11    1    1    2    0    0 -0.80181856849E+02  0.24777613147E+02 -0.10813409206E+03  0.13687966301E+03  0.00000000000E+00 0.  1.
         11    1    1    2    0    0  0.10312345758E+02 -0.28437112613E+02 -0.54277720600E+02  0.62137627910E+02  0.00000000000E+00 0. -1.
</event>
<event>
 7    1  0.3056346E-009  0.7971973E+02  0.7561462E-02  0.1329849E+00
          1   -1    0    0  501    0  0.00000000000E+00  0.00000000000E+00  0.74881283865E+02  0.74881283865E+02  0.00000000000E+00 0. -1.
         -1   -1    0    0    0  501 -0.00000000000E+00 -0.00000000000E+00 -0.24413962632E+03  0.24413962632E+03  0.00000000000E+00 0.  1.
         25    2    1    2    0    0 -0.50071600094E+02 -0.54604554151E+02 -0.12587441207E+03  0.19230463707E+03  0.12509149993E+03 0.  0.
          5    1    3    3  502    0 -0.47756931512E+02 -0.51375489773E+02 -0.15098752082E+03  0.16653789148E+03  0.41800000000E+01 0. -1.
         -5    1    3    3    0  502 -0.23146685827E+01 -0.32290643781E+01  0.25113108746E+02  0.25766745589E+02  0.41800000000E+01 0. -1.
        -11    1    1    2    0    0  0.14555462765E+02 -0.38048084532E+01 -0.55313931641E+02  0.57323373045E+02  0.00000000000E+00 0.  1.
         11    1    1    2    0    0  0.35516137329E+02  0.58409362605E+02  0.11930001253E+02  0.69392900073E+02  0.00000000000E+00 0. -1.
</event>
<event>
 7    1  0.3056346E-009  0.1154188E+03  0.7561462E-02  0.1250852E+00
         -1   -1    0    0    0  501 -0.00000000000E+00  0.00000000000E+00  0.28176713681E+02  0.28176713681E+02  0.00000000000E+00 0.  1.
          1   -1    0    0  501    0  0.00000000000E+00 -0.00000000000E+00 -0.52213113409E+03  0.52213113409E+03  0.00000000000E+00 0. -1.
         25    2    1    2    0    0  0.42434053602E+02  0.34055962343E+02 -0.35283180422E+03  0.37828051663E+03  0.12508161224E+03 0.  0.
          5    1    3    3  502    0 -0.56403782191E+01 -0.41899615546E+02 -0.15900769059E+03  0.16458526580E+03  0.41800000000E+01 0.  1.
         -5    1    3    3    0  502  0.48074431822E+02  0.75955577889E+02 -0.19382411362E+03  0.21369525084E+03  0.41800000000E+01 0.  1.
        -11    1    1    2    0    0 -0.55180266747E+02 -0.52354893569E+02 -0.10808451265E+03  0.13216716156E+03  0.00000000000E+00 0. -1.
         11    1    1    2    0    0  0.12746213145E+02  0.18298931227E+02 -0.33038103537E+02  0.39860169579E+02  0.00000000000E+00 0.  1.
</event>
<event>
 7    1  0.3056346E-009  0.1533446E+03  0.7561462E-02  0.1196422E+00
          2   -1    0    0  501    0  0.00000000000E+00  0.00000000000E+00  0.72177919349E+02  0.72177919349E+02  0.00000000000E+00 0. -1.
         -2   -1    0    0    0  501 -0.00000000000E+00 -0.00000000000E+00 -0.49549194328E+03  0.49549194328E+03  0.00000000000E+00 0.  1.
         25    2    1    2    0    0  0.11733614897E+03 -0.49567986796E+02 -0.35813052577E+03  0.40016169160E+03  0.12508856367E+03 0.  0.
          5    1    3    3  502    0  0.45169785029E+02 -0.64511124067E+02 -0.28704997128E+03  0.29768633327E+03  0.41800000000E+01 0. -1.
         -5    1    3    3    0  502  0.72166363940E+02  0.14943137271E+02 -0.71080554494E+02  0.10247535832E+03  0.41800000000E+01 0. -1.
        -11    1    1    2    0    0 -0.66513805553E+02  0.72382064138E+02 -0.46548744915E+02  0.10876596522E+03  0.00000000000E+00 0.  1.
         11    1    1    2    0    0 -0.50822343416E+02 -0.22814077342E+02 -0.18634753249E+02  0.58742205814E+02  0.00000000000E+00 0. -1.
</event>
<event>
 7    1  0.3201365E-009  0.1779353E+03  0.7561462E-02  0.1169816E+00
         -2   -1    0    0    0  501 -0.00000000000E+00  0.00000000000E+00  0.26237357774E+02  0.26237357774E+02  0.00000000000E+00 0.  1.
          2   -1    0    0  501    0  0.00000000000E+00 -0.00000000000E+00 -0.12507694713E+04  0.12507694713E+04  0.00000000000E+00 0. -1.
         25    2    1    2    0    0 -0.12685647323E+03 -0.70210308640E+02 -0.65194814804E+03  0.67948938068E+03  0.12508948188E+03 0.  0.
          5    1    3    3  502    0 -0.45999248314E+02  0.35194615999E+02 -0.22174897644E+03  0.22922624805E+03  0.41800000000E+01 0. -1.
         -5    1    3    3    0  502 -0.80857224913E+02 -0.10540492464E+03 -0.43019917160E+03  0.45026313263E+03  0.41800000000E+01 0. -1.
        -11    1    1    2    0    0  0.83748837490E+02  0.14834877668E+01 -0.21261160112E+03  0.22851643584E+03  0.00000000000E+00 0. -1.
         11    1    1    2    0    0  0.43107635737E+02  0.68726820874E+02 -0.35997236436E+03  0.36900101256E+03  0.00000000000E+00 0.  1.
</event>
<event>
 7    1  0.3056346E-009  0.1113717E+03  0.7561462E-02  0.1258051E+00
          1   -1    0    0  501    0  0.00000000000E+00  0.00000000000E+00  0.58838339232E+02  0.58838339232E+02  0.00000000000E+00 0. -1.
         -1   -1    0    0    0  501 -0.00000000000E+00 -0.00000000000E+00 -0.31076677306E+03  0.31076677306E+03  0.00000000000E+00 0.  1.
         25    2    1    2    0    0  0.29328768842E+01 -0.77918808990E+02 -0.11824052107E+03  0.18896691022E+03  0.12509088606E+03 0.  0.
          5    1    3    3  502    0  0.40626213702E+02 -0.21102078013E+02  0.68127424652E+01  0.46472279868E+02  0.41800000000E+01 0.  1.
         -5    1    3    3    0  502 -0.37693336818E+02 -0.56816730977E+02 -0.12505326353E+03  0.14249463036E+03  0.41800000000E+01 0.  1.
        -11    1    1    2    0    0 -0.26422274934E+02  0.80599936888E+02 -0.61755169191E+02  0.10491990927E+03  0.00000000000E+00 0. -1.
         11    1    1    2    0    0  0.23489398050E+02 -0.26811278979E+01 -0.71932743565E+02  0.75718292799E+02  0.00000000000E+00 0.  1.
</event>
<event>
 7    1  0.3056346E-009  0.1682637E+03  0.7561462E-02  0.1179671E+00
          1   -1    0    0  501    0  0.00000000000E+00  0.00000000000E+00  0.29306078667E+03  0.29306078667E+03  0.00000000000E+00 0. -1.
         -1   -1    0    0    0  501 -0.00000000000E+00 -0.00000000000E+00 -0.11147968427E+03  0.11147968427E+03  0.00000000000E+00 0.  1.
         25    2    1    2    0    0  0.25135815860E+02 -0.13661337892E+03  0.53266981166E+02  0.19437620415E+03  0.12509881261E+03 0.  0.
          5    1    3    3  502    0  0.39351997858E+02  0.72812300707E+01  0.23801456879E+02  0.46750163597E+02  0.41800000000E+01 0. -1.
         -5    1    3    3    0  502 -0.14216181998E+02 -0.14389460899E+03  0.29465524288E+02  0.14762604055E+03  0.41800000000E+01 0. -1.
        -11    1    1    2    0    0  0.14642698467E+02  0.86111586862E+02  0.11517176903E+03  0.14454809024E+03  0.00000000000E+00 0.  1.
         11    1    1    2    0    0 -0.39778514326E+02  0.50501792057E+02  0.13142352200E+02  0.65616176544E+02  0.00000000000E+00 0. -1.
</event>
<event>
 7    1  0.3056346E-009  0.8150077E+02  0.7561462E-02  0.1324846E+00
          1   -1    0    0  501    0  0.00000000000E+00  0.00000000000E+00  0.15349722818E+03  0.15349722818E+03  0.00000000000E+00 0. -1.
         -1   -1    0    0    0  501 -0.00000000000E+00 -0.00000000000E+00 -0.17262857153E+03  0.17262857153E+03  0.00000000000E+00 0.  1.
         25    2    1    2    0    0 -0.59239000418E+02  0.10727778144E+02 -0.11554363417E+03  0.18061787565E+03  0.12509253060E+03 0.  0.
          5    1    3    3  502    0 -0.42545766624E+02 -0.33765083807E+02  0.12145155045E+01  0.54490096256E+02  0.41800000000E+01 0.  1.
         -5    1    3    3    0  502 -0.16693233794E+02  0.44492861950E+02 -0.11675814967E+03  0.12612777939E+03  0.41800000000E+01 0.  1.
        -11    1    1    2    0    0  0.36576137146E+02 -0.10868780836E+02 -0.77267885620E+01  0.38931317302E+02  0.00000000000E+00 0.  1.
         11    1    1    2    0    0  0.22662863273E+02  0.14100269259E+00  0.10413907938E+03  0.10657660676E+03  0.00000000000E+00 0. -1.
</event>
<event>
 7    1  0.3056346E-009  0.1351768E+03  0.7561462E-02  0.1219970E+00
          2   -1    0    0  501    0  0.00000000000E+00  0.00000000000E+00  0.50681704406E+03  0.50681704406E+03  0.00000000000E+00 0. -1.
         -2   -1    0    0    0  501 -0.00000000000E+00 -0.00000000000E+00 -0.50274552143E+02  0.50274552143E+02  0.00000000000E+00 0.  1.
         25    2    1    2    0    0 -0.42620795796E+02  0.89038255769E+02  0.35079455655E+03  0.38528983998E+03  0.12508835540E+03 0.  0.
          5    1    3    3  502    0  0.31640140961E+02  0.30529162789E+02  0.37254379008E+02  0.57779662996E+02  0.41800000000E+01 0. -1.
         -5    1    3    3    0  502 -0.74260936757E+02  0.58509092980E+02  0.31354017755E+03  0.32751017698E+03  0.41800000000E+01 0. -1.
        -11    1    1    2    0    0  0.53867624474E+02 -0.13971403338E+02  0.65287473730E+02  0.85786801454E+02  0.00000000000E+00 0. -1.
         11    1    1    2    0    0 -0.11246828678E+02 -0.75066852431E+02  0.40460461635E+02  0.86014954775E+02  0.00000000000E+00 0.  1.
</event>
<event>
 7    1  0.3429596E-009  0.1400867E+03  0.7561462E-02  0.1213212E+00
          2   -1    0    0  501    0  0.00000000000E+00  0.00000000000E+00  0.42520085610E+03  0.42520085610E+03  0.00000000000E+00 0. -1.
         -2   -1    0    0    0  501 -0.00000000000E+00 -0.00000000000E+00 -0.62876015009E+02  0.62876015009E+02  0.00000000000E+00 0.  1.
         25    2    1    2    0    0  0.39648395018E+02 -0.11397066617E+03  0.16582309603E+03  0.24022000997E+03  0.12508815307E+03 0.  0.
          5    1    3    3  502    0 -0.33718782556E+02 -0.26280442871E+02  0.55660207914E+01  0.43313634828E+02  0.41800000000E+01 0. -1.
         -5    1    3    3    0  502  0.73367177573E+02 -0.87690223300E+02  0.16025707523E+03  0.19690637514E+03  0.41800000000E+01 0. -1.
        -11    1    1    2    0    0 -0.68536441451E+00  0.32426102091E+02  0.96802560027E+00  0.32447787209E+02  0.00000000000E+00 0.  1.
         11    1    1    2    0    0 -0.38963030603E+02  0.81544564079E+02  0.19553371946E+03  0.21540907393E+03  0.00000000000E+00 0. -1.
</event>
<event>
 7    1  0.3056346E-009  0.1268302E+03  0.7561462E-02  0.1232236E+00
         -2   -1    0    0    0  501 -0.00000000000E+00  0.00000000000E+00  0.61177588015E+02  0.61177588015E+02  0.00000000000E+00 0. -1.
          2   -1    0    0  501    0  0.00000000000E+00 -0.00000000000E+00 -0.39901870068E+03  0.39901870068E+03  0.00000000000E+00 0.  1.
         25    2    1    2    0    0 -0.61575106293E+02  0.27724179391E+02 -0.31406316761E+03  0.34473665591E+03  0.12509022678E+03 0.  0.
          5    1    3    3  502    0 -0.91010414761E+02  0.49885128812E+02 -0.24993865757E+03  0.27066256967E+03  0.41800000000E+01 0. -1.
         -5    1    3    3    0  502  0.29435308468E+02 -0.22160949421E+02 -0.64124510039E+02  0.74074086235E+02  0.41800000000E+01 0. -1.
        -11    1    1    2    0    0 -0.36047978616E+01 -0.45107566991E+02 -0.56100244207E+01  0.45597801936E+02  0.00000000000E+00 0.  1.
         11    1    1    2    0    0  0.65179904155E+02  0.17383387600E+02 -0.18167920633E+02  0.69861830854E+02  0.00000000000E+00 0. -1.
</event>
<event>
 7    1  0.3056346E-009  0.1138879E+03  0.7561462E-02  0.1253535E+00
         -1   -1    0    0    0  501 -0.00000000000E+00  0.00000000000E+00  0.40876832574E+02  0.40876832574E+02  0.00000000000E+00 0.  1.
          1   -1    0    0  501    0  0.00000000000E+00 -0.00000000000E+00 -0.65734058685E+03  0.65734058685E+03  0.00000000000E+00 0. -1.
         25    2    1    2    0    0 -0.96479703791E+02  0.15508794392E+02 -0.17223413637E+03  0.23421838759E+03  0.12507917255E+03 0.  0.
          5    1    3    3  502    0 -0.79029529351E+02  0.23023193009E+02 -0.19047992959E+03  0.20754712694E+03  0.41800000000E+01 0. -1.
         -5    1    3    3    0  502 -0.17450174440E+02 -0.75143986166E+01  0.18245793214E+02  0.26671260648E+02  0.41800000000E+01 0. -1.
        -11    1    1    2    0    0  0.29732658599E+02 -0.44183010669E+02 -0.27049758706E+03  0.27569025014E+03  0.00000000000E+00 0. -1.
         11    1    1    2    0    0  0.66747045192E+02  0.28674216277E+02 -0.17373203084E+03  0.18830878169E+03  0.00000000000E+00 0.  1.
</event>
<event>
 7    1  0.3056346E-009  0.1431839E+03  0.7561462E-02  0.1209108E+00
         -2   -1    0    0    0  501 -0.00000000000E+00  0.00000000000E+00  0.21572944021E+03  0.21572944021E+03  0.00000000000E+00 0.  1.
          2   -1    0    0  501    0  0.00000000000E+00 -0.00000000000E+00 -0.12805190214E+03  0.12805190214E+03  0.00000000000E+00 0. -1.
         25    2    1    2    0    0 -0.11225784056E+03 -0.38031409003E+02  0.89264233743E+02  0.19408832140E+03  0.12511579532E+03 0.  0.
          5    1    3    3  502    0  0.55052333325E+01 -0.37744292001E+02  0.62357342240E+02  0.73217823676E+02  0.41800000000E+01 0.  1.
         -5    1    3    3    0  502 -0.11776307389E+03 -0.28711700291E+00  0.26906891503E+02  0.12087049772E+03  0.41800000000E+01 0.  1.
        -11    1    1    2    0    0  0.10056168338E+03  0.11567304856E+02  0.31239498366E+02  0.10593564539E+03  0.00000000000E+00 0.  1.
         11    1    1    2    0    0  0.11696157180E+02  0.26464104148E+02 -0.32826194035E+02  0.43757375560E+02  0.00000000000E+00 0. -1.
</event>
<event>
 7    1  0.3056346E-009  0.1212713E+03  0.7561462E-02  0.1241014E+00
          1   -1    0    0  501    0  0.00000000000E+00  0.00000000000E+00  0.10523059426E+03  0.10523059426E+03  0.00000000000E+00 0. -1.
         -1   -1    0    0    0  501 -0.00000000000E+00 -0.00000000000E+00 -0.19119032749E+03  0.19119032749E+03  0.00000000000E+00 0.  1.
         25    2    1    2    0    0  0.41537762214E+01 -0.85483092319E+02 -0.12733318393E+02  0.15210125036E+03  0.12509212619E+03 0.  0.
          5    1    3    3  502    0  0.11127091567E+01 -0.10773885560E+03  0.22461554700E+02  0.11014033307E+03  0.41800000000E+01 0. -1.
         -5    1    3    3    0  502  0.30410670648E+01  0.22255763286E+02 -0.35194873093E+02  0.41960917296E+02  0.41800000000E+01 0. -1.
        -11    1    1    2    0    0 -0.37669852085E+02  0.36018081797E+02 -0.66055224728E+02  0.84140434312E+02  0.00000000000E+00 0.  1.
         11    1    1    2    0    0  0.33516075863E+02  0.49465010521E+02 -0.71711901110E+01  0.60179237074E+02  0.00000000000E+00 0. -1.
</event>
<event>
 7    1  0.3056346E-009  0.1311294E+03  0.7561462E-02  0.1225789E+00
          2   -1    0    0  501    0  0.00000000000E+00  0.00000000000E+00  0.61881356562E+03  0.61881356562E+03  0.00000000000E+00 0. -1.
         -2   -1    0    0    0  501 -0.00000000000E+00 -0.00000000000E+00 -0.66385867817E+02  0.66385867817E+02  0.00000000000E+00 0.  1.
         25    2    1    2    0    0  0.74734046601E+02 -0.96564489799E+01  0.54917771950E+03  0.56826222040E+03  0.12508940327E+03 0.  0.
          5    1    3    3  502    0 -0.30185023790E+02  0.20507788110E+02  0.13162225913E+03  0.13665136857E+03  0.41800000000E+01 0. -1.
         -5    1    3    3    0  502  0.10491907039E+03 -0.30164237090E+02  0.41755546037E+03  0.43161085183E+03  0.41800000000E+01 0. -1.
        -11    1    1    2    0    0 -0.19919051744E+02 -0.38478755218E+02 -0.45714056942E+01  0.43569266410E+02  0.00000000000E+00 0. -1.
         11    1    1    2    0    0 -0.54814994857E+02  0.48135204198E+02  0.78213839965E+01  0.73367946625E+02  0.00000000000E+00 0.  1.
</event>
<event>
 7    1  0.3056346E-009  0.8217116E+02  0.7561462E-02  0.1323001E+00
          3   -1    0    0  501    0  0.00000000000E+00  0.00000000000E+00  0.24602726498E+03  0.24602726498E+03  0.00000000000E+00 0. -1.
         -3   -1    0    0    0  501 -0.00000000000E+00 -0.00000000000E+00 -0.62392769810E+02  0.62392769810E+02  0.00000000000E+00 0.  1.
         25    2    1    2    0    0  0.31479687390E+02 -0.19702940502E+02  0.15847333736E+03  0.20528192774E+03  0.12509074554E+03 0.  0.
          5    1    3    3  502    0 -0.26534934536E+02 -0.37790892562E+02  0.13004289623E+03  0.13806115156E+03  0.41800000000E+01 0. -1.
         -5    1    3    3    0  502  0.58014621925E+02  0.18087952060E+02  0.28430441138E+02  0.67220776180E+02  0.41800000000E+01 0. -1.
        -11    1    1    2    0    0 -0.76436971148E+01  0.30103182286E+02  0.55241853966E+02  0.63374207048E+02  0.00000000000E+00 0. -1.
         11    1    1    2    0    0 -0.23835990275E+02 -0.10400241785E+02 -0.30080696163E+02  0.39763900000E+02  0.00000000000E+00 0.  1.
</event>
<event>
 7    1  0.3056346E-009  0.1406408E+03  0.7561462E-02  0.1212469E+00
          3   -1    0    0  501    0  0.00000000000E+00  0.00000000000E+00  0.72627687782E+02  0.72627687782E+02  0.00000000000E+00 0. -1.
         -3   -1    0    0    0  501 -0.00000000000E+00 -0.00000000000E+00 -0.53441984805E+03  0.53441984805E+03  0.00000000000E+00 0.  1.
         25    2    1    2    0    0  0.68393856306E+02 -0.68618010349E+02 -0.44670273383E+03  0.47389600978E+03  0.12509174531E+03 0.  0.
          5    1    3    3  502    0  0.46127659878E+02  0.31060415227E+02 -0.14556201716E+03  0.15587906735E+03  0.41800000000E+01 0. -1.
         -5    1    3    3    0  502  0.22266196427E+02 -0.99678425576E+02 -0.30114071668E+03  0.31801694242E+03  0.41800000000E+01 0. -1.
        -11    1    1    2    0    0 -0.18901771073E+02  0.71266803146E+02  0.14900755216E+02  0.75221450973E+02  0.00000000000E+00 0. -1.
         11    1    1    2    0    0 -0.49492085232E+02 -0.26487927972E+01 -0.29990181656E+02  0.57930075088E+02  0.00000000000E+00 0.  1.
</event>
<event>
 7    1  0.3056346E-009  0.1736607E+03  0.7561462E-02  0.1174083E+00
          2   -1    0    0  501    0  0.00000000000E+00  0.00000000000E+00  0.13772961985E+04  0.13772961985E+04  0.00000000000E+00 0. -1.
         -2   -1    0    0    0  501 -0.00000000000E+00 -0.00000000000E+00 -0.28916439733E+02  0.28916439733E+02  0.00000000000E+00 0.  1.
         25    2    1    2    0    0  0.52708615357E+02 -0.14100716047E+03  0.95933678397E+03  0.97909935645E+03  0.12508903745E+03 0.  0.
          5    1    3    3  502    0  0.90149783467E+02 -0.11047900650E+03  0.79735280584E+03  0.81001331083E+03  0.41800000000E+01 0. -1.
         -5    1    3    3    0  502 -0.37441168110E+02 -0.30528153963E+02  0.16198397813E+03  0.16908604562E+03  0.41800000000E+01 0. -1.
        -11    1    1    2    0    0 -0.11207046276E+00  0.57415384784E+02  0.57838898208E+02  0.81497712333E+02  0.00000000000E+00 0.  1.
         11    1    1    2    0    0 -0.52596544895E+02  0.83591775684E+02  0.33120407662E+03  0.34561556948E+03  0.00000000000E+00 0. -1.
</event>
<event>
 7    1  0.3056346E-009  0.1451650E+03  0.7561462E-02  0.1206543E+00
         -4   -1    0    0    0  501 -0.00000000000E+00  0.00000000000E+00  0.75710500559E+02  0.75710500559E+02  0.00000000000E+00 0.  1.
          4   -1    0    0  501    0  0.00000000000E+00 -0.00000000000E+00 -0.39737561683E+03  0.39737561683E+03  0.00000000000E+00 0. -1.
         25    2    1    2    0    0  0.27991191036E+02 -0.20551149916E+02 -0.77711867568E+02  0.15128776087E+03  0.12507196204E+03 0.  0.
          5    1    3    3  502    0  0.12611533324E+02 -0.47679428861E+02  0.16331492328E+02  0.52120713262E+02  0.41800000000E+01 0.  1.
         -5    1    3    3    0  502  0.15379657713E+02  0.27128278945E+02 -0.94043359896E+02  0.99167047603E+02  0.41800000000E+01 0.  1.
        -11    1    1    2    0    0 -0.81311995936E+02  0.90339589315E+02 -0.13069347799E+03  0.17847595712E+03  0.00000000000E+00 0.  1.
         11    1    1    2    0    0  0.53320804900E+02 -0.69788439399E+02 -0.11325977071E+03  0.14332239940E+03  0.00000000000E+00 0. -1.
</event>
<event>
 7    1  0.3056346E-009  0.1096039E+03  0.7561462E-02  0.1261305E+00
         -1   -1    0    0    0  501 -0.00000000000E+00  0.00000000000E+00  0.60047034746E+02  0.60047034746E+02  0.00000000000E+00 0.  1.
          1   -1    0    0  501    0  0.00000000000E+00 -0.00000000000E+00 -0.31968838879E+03  0.31968838879E+03  0.00000000000E+00 0. -1.
         25    2    1    2    0    0  0.15030778000E+02 -0.80338237601E+02 -0.97123549810E+02  0.17821459787E+03  0.12508917722E+03 0.  0.
          5    1    3    3  502    0 -0.12776761970E+02  0.18704282258E+02 -0.67138671415E+02  0.70980063543E+02  0.41800000000E+01 0.  1.
         -5    1    3    3    0  502  0.27807539971E+02 -0.99042519860E+02 -0.29984878396E+02  0.10723453432E+03  0.41800000000E+01 0.  1.
        -11    1    1    2    0    0 -0.19011508795E+02  0.77678747574E+01 -0.10987821700E+03  0.11178103558E+03  0.00000000000E+00 0.  1.
         11    1    1    2    0    0  0.39807307949E+01  0.72570362844E+02 -0.52639587238E+02  0.89739790091E+02  0.00000000000E+00 0. -1.
</event>
<event>
 7    1  0.3056346E-009  0.1005697E+03  0.7561462E-02  0.1279103E+00
          3   -1    0    0  501    0  0.00000000000E+00  0.00000000000E+00  0.16430682155E+03  0.16430682155E+03  0.00000000000E+00 0. -1.
         -3   -1    0    0    0  501 -0.00000000000E+00 -0.00000000000E+00 -0.93885293393E+02  0.93885293393E+02  0.00000000000E+00 0.  1.
         25    2    1    2    0    0 -0.69572756261E+01  0.47227414409E+02  0.52969435779E+01  0.13399466460E+03  0.12509068780E+03 0.  0.
          5    1    3    3  502    0  0.38468482217E+02  0.36885172120E+02 -0.41615703821E+02  0.67747171534E+02  0.41800000000E+01 0. -1.
         -5    1    3    3    0  502 -0.45425757843E+02  0.10342242290E+02  0.46912647398E+02  0.66247493063E+02  0.41800000000E+01 0. -1.
        -11    1    1    2    0    0  0.42922271356E+02 -0.48693623155E+02  0.23179418919E+02  0.68925146178E+02  0.00000000000E+00 0.  1.
         11    1    1    2    0    0 -0.35964995730E+02  0.14662087452E+01  0.41945165660E+02  0.55272304170E+02  0.00000000000E+00 0. -1.
</event>
<event>
 7    1  0.3056346E-009  0.1063878E+03  0.7561462E-02  0.1267409E+00
          1   -1    0    0  501    0  0.00000000000E+00  0.00000000000E+00  0.70364341562E+02  0.70364341562E+02  0.00000000000E+00 0.  1.
         -1   -1    0    0    0  501 -0.00000000000E+00 -0.00000000000E+00 -0.23644146025E+03  0.23644146025E+03  0.00000000000E+00 0. -1.
         25    2    1    2    0    0  0.52203623385E+02 -0.48119883101E+02 -0.10718922633E+03  0.17937417861E+03  0.12507927193E+03 0.  0.
          5    1    3    3  502    0  0.71484345493E+02 -0.75872236686E+02 -0.10012334921E+03  0.14459863557E+03  0.41800000000E+01 0. -1.
         -5    1    3    3    0  502 -0.19280722109E+02  0.27752353585E+02 -0.70658771190E+01  0.34775543044E+02  0.41800000000E+01 0. -1.
        -11    1    1    2    0    0 -0.31672447963E+02  0.14112708582E+02  0.19334407595E+02  0.39700526704E+02  0.00000000000E+00 0.  1.
         11    1    1    2    0    0 -0.20531175421E+02  0.34007174519E+02 -0.78222299952E+02  0.87731096498E+02  0.00000000000E+00 0. -1.
</event>
<event>
 7    1  0.3056346E-009  0.9869585E+02  0.7561462E-02  0.1283063E+00
         -2   -1    0    0    0  501 -0.00000000000E+00  0.00000000000E+00  0.45984724658E+02  0.45984724658E+02  0.00000000000E+00 0.  1.
          2   -1    0    0  501    0  0.00000000000E+00 -0.00000000000E+00 -0.34440817528E+03  0.34440817528E+03  0.00000000000E+00 0. -1.
         25    2    1    2    0    0 -0.54000919261E+02 -0.46805913066E+01 -0.11468131055E+03  0.17814995036E+03  0.12509034578E+03 0.  0.
          5    1    3    3  502    0 -0.53661624431E+02 -0.46933460153E+02 -0.11537037265E+03  0.13568387857E+03  0.41800000000E+01 0. -1.
         -5    1    3    3    0  502 -0.33929482963E+00  0.42252868847E+02  0.68906209841E+00  0.42466071791E+02  0.41800000000E+01 0. -1.
        -11    1    1    2    0    0  0.38081927417E+02  0.33418564234E+02 -0.16863803137E+03  0.17608469341E+03  0.00000000000E+00 0. -1.
         11    1    1    2    0    0  0.15918991843E+02 -0.28737972927E+02 -0.15104108709E+02  0.36158256169E+02  0.00000000000E+00 0.  1.
</event>
<event>
 7    1  0.3056346E-009  0.8332222E+02  0.7561462E-02  0.1319879E+00
         -1   -1    0    0    0  501 -0.00000000000E+00  0.00000000000E+00  0.22192015548E+02  0.22192015548E+02  0.00000000000E+00 0.  1.
          1   -1    0    0  501    0  0.00000000000E+00 -0.00000000000E+00 -0.72271816462E+03  0.72271816462E+03  0.00000000000E+00 0. -1.
         25    2    1    2    0    0 -0.11449394209E+02  0.89814555258E+01 -0.57876295682E+03  0.59230520344E+03  0.12508852329E+03 0.  0.
          5    1    3    3  502    0  0.26665625944E+02 -0.14068297458E+02 -0.33705702157E+02  0.45414968438E+02  0.41800000000E+01 0. -1.
         -5    1    3    3    0  502 -0.38115020153E+02  0.23049752984E+02 -0.54505725467E+03  0.54689023500E+03  0.41800000000E+01 0. -1.
        -11    1    1    2    0    0  0.49112070867E+01  0.40883171885E+02 -0.46817076345E+02  0.62348956174E+02  0.00000000000E+00 0. -1.
         11    1    1    2    0    0  0.65381871225E+01 -0.49864627411E+02 -0.74946115906E+02  0.90256020559E+02  0.00000000000E+00 0.  1.
</event>
<event>
 7    1  0.3056346E-009  0.7275905E+02  0.7561462E-02  0.1350954E+00
          2   -1    0    0  501    0  0.00000000000E+00  0.00000000000E+00  0.13078564374E+03  0.13078564374E+03  0.00000000000E+00 0. -1.
         -2   -1    0    0    0  501 -0.00000000000E+00 -0.00000000000E+00 -0.13421319161E+03  0.13421319161E+03  0.00000000000E+00 0.  1.
         25    2    1    2    0    0 -0.10622184197E+02  0.13513467657E+02  0.75642532906E+02  0.14718855665E+03  0.12508890367E+03 0.  0.
          5    1    3    3  502    0  0.23541225466E+02  0.35088221026E+02  0.93596020979E+02  0.10277674880E+03  0.41800000000E+01 0.  1.
         -5    1    3    3    0  502 -0.34163409663E+02 -0.21574753369E+02 -0.17953488073E+02  0.44411807852E+02  0.41800000000E+01 0.  1.
        -11    1    1    2    0    0  0.14220669626E+02 -0.36499005902E+02 -0.85180566726E+02  0.93755713555E+02  0.00000000000E+00 0.  1.
         11    1    1    2    0    0 -0.35984854290E+01  0.22985538244E+02  0.61104859524E+01  0.24054565146E+02  0.00000000000E+00 0. -1.
</event>
<event>
 6    1  0.3056346E-009  0.3247297E+03  0.7561462E-02  0.1073493E+00
          2   -1    0    0  501    0  0.00000000000E+00  0.00000000000E+00  0.18199260774E+04  0.18199260774E+04  0.00000000000E+00 0. -1.
         -2   -1    0    0    0  501 -0.00000000000E+00 -0.00000000000E+00 -0.61115554147E+02  0.61115554147E+02  0.00000000000E+00 0.  1.
          5    1    1    2  502    0 -0.43596915877E+01  0.14878816805E+02  0.10325486068E+02  0.19091206426E+02  0.41800000000E+01 0. -1.
         -5    1    1    2    0  502  0.26060756778E+03  0.16808146713E+03  0.93903124459E+03  0.98892104573E+03  0.41800000000E+01 0. -1.
        -11    1    1    2    0    0 -0.15712330978E+03 -0.67275588667E+02  0.49360982906E+03  0.52236424327E+03  0.00000000000E+00 0. -1.
         11    1    1    2    0    0 -0.99124566410E+02 -0.11568469527E+03  0.31584396357E+03  0.35066513615E+03  0.00000000000E+00 0.  1.
</event>
<event>
 7    1  0.3056346E-009  0.5543576E+02  0.7561462E-02  0.1418049E+00
          1   -1    0    0  501    0  0.00000000000E+00  0.00000000000E+00  0.54343768470E+03  0.54343768470E+03  0.00000000000E+00 0. -1.
         -1   -1    0    0    0  501 -0.00000000000E+00 -0.00000000000E+00 -0.52935972406E+02  0.52935972406E+02  0.00000000000E+00 0.  1.
         25    2    1    2    0    0 -0.39172393879E+02  0.18030836089E+02  0.47912971027E+03  0.49706501318E+03  0.12509500619E+03 0.  0.
          5    1    3    3  502    0 -0.19581323125E+02 -0.41830333553E+01  0.38119152169E+01  0.20806947902E+02  0.41800000000E+01 0. -1.
         -5    1    3    3    0  502 -0.19591070754E+02  0.22213869444E+02  0.47531779505E+03  0.47625806528E+03  0.41800000000E+01 0. -1.
        -11    1    1    2    0    0  0.44476211446E+02 -0.30135501513E+01 -0.30830577305E+02  0.54200916653E+02  0.00000000000E+00 0.  1.
         11    1    1    2    0    0 -0.53038175666E+01 -0.15017285937E+02  0.42202579332E+02  0.45107727276E+02  0.00000000000E+00 0. -1.
</event>
<event>
 7    1  0.3056346E-009  0.1252707E+03  0.7561462E-02  0.1234647E+00
         -1   -1    0    0    0  501 -0.00000000000E+00  0.00000000000E+00  0.14644128344E+02  0.14644128344E+02  0.00000000000E+00 0.  1.
          1   -1    0    0  501    0  0.00000000000E+00 -0.00000000000E+00 -0.12253543637E+04  0.12253543637E+04  0.00000000000E+00 0. -1.
         25    2    1    2    0    0  0.15695421606E+02  0.67173227121E+02 -0.83179626640E+03  0.84397410842E+03  0.12509467689E+03 0.  0.
          5    1    3    3  502    0 -0.31382858840E+02  0.86161575182E+02 -0.55163545451E+03  0.55922075063E+03  0.41800000000E+01 0. -1.
         -5    1    3    3    0  502  0.47078280447E+02 -0.18988348061E+02 -0.28016081189E+03  0.28475335778E+03  0.41800000000E+01 0. -1.
        -11    1    1    2    0    0 -0.12986952103E+02 -0.86917727791E+02 -0.35028890806E+03  0.36114494519E+03  0.00000000000E+00 0. -1.
         11    1    1    2    0    0 -0.27084695033E+01  0.19744500670E+02 -0.28625060891E+02  0.34879438424E+02  0.00000000000E+00 0.  1.
</event>
<event>
 7    1  0.3056346E-009  0.1407683E+03  0.7561462E-02  0.1212299E+00
          3   -1    0    0  501    0  0.00000000000E+00  0.00000000000E+00  0.14748703834E+03  0.14748703834E+03  0.00000000000E+00 0. -1.
         -3   -1    0    0    0  501 -0.00000000000E+00 -0.00000000000E+00 -0.21655491176E+03  0.21655491176E+03  0.00000000000E+00 0.  1.
         25    2    1    2    0    0 -0.11687058516E+03  0.33980869973E+02  0.36312341355E+02  0.17825248784E+03  0.12506770201E+03 0.  0.
          5    1    3    3  502    0 -0.12001137685E+03  0.88398066919E+01  0.67353231055E+02  0.13796667311E+03  0.41800000000E+01 0.  1.
         -5    1    3    3    0  502  0.31407916867E+01  0.25141063281E+02 -0.31040889700E+02  0.40285814733E+02  0.41800000000E+01 0.  1.
        -11    1    1    2    0    0  0.88143969633E+02 -0.51220913739E+02 -0.34904251011E+02  0.10775550160E+03  0.00000000000E+00 0. -1.
         11    1    1    2    0    0  0.28726615526E+02  0.17240043766E+02 -0.70475963756E+02  0.78033960658E+02  0.00000000000E+00 0.  1.
</event>
<event>
 7    1  0.3056346E-009  0.9253438E+02  0.7561462E-02  0.1296828E+00
         -1   -1    0    0    0  501 -0.00000000000E+00  0.00000000000E+00  0.35955623816E+03  0.35955623816E+03  0.00000000000E+00 0.  1.
          1   -1    0    0  501    0  0.00000000000E+00 -0.00000000000E+00 -0.61951396144E+02  0.61951396144E+02  0.00000000000E+00 0. -1.
         25    2    1    2    0    0  0.78109134407E+02 -0.40049203025E+02  0.86206329415E+02  0.17545395585E+03  0.12509030279E+03 0.  0.
          5    1    3    3  502    0  0.48574792992E+02 -0.18139938332E+01  0.11081040998E+03  0.12107526770E+03  0.41800000000E+01 0.  1.
         -5    1    3    3    0  502  0.29534341415E+02 -0.38235209192E+02 -0.24604080566E+02  0.54378688153E+02  0.41800000000E+01 0.  1.
        -11    1    1    2    0    0 -0.44366288564E+02  0.22063767687E+02  0.20015651170E+03  0.20619846406E+03  0.00000000000E+00 0.  1.
         11    1    1    2    0    0 -0.33742845844E+02  0.17985435338E+02  0.11242000901E+02  0.39855214392E+02  0.00000000000E+00 0. -1.
</event>
<event>
 7    1  0.3056346E-009  0.5640241E+02  0.7561462E-02  0.1413581E+00
         -2   -1    0    0    0  501 -0.00000000000E+00  0.00000000000E+00  0.45707423648E+02  0.45707423648E+02  0.00000000000E+00 0.  1.
          2   -1    0    0  501    0  0.00000000000E+00 -0.00000000000E+00 -0.23427244114E+03  0.23427244114E+03  0.00000000000E+00 0. -1.
         25    2    1    2    0    0 -0.20259384256E+02 -0.22832691799E+02 -0.73582153632E+02  0.14830850790E+03  0.12509718509E+03 0.  0.
          5    1    3    3  502    0  0.35773212874E+01 -0.24169420251E+02  0.31717996032E+02  0.40254959634E+02  0.41800000000E+01 0. -1.
         -5    1    3    3    0  502 -0.23836705544E+02  0.13367284521E+01 -0.10530014966E+03  0.10805354827E+03  0.41800000000E+01 0. -1.
        -11    1    1    2    0    0  0.65058255570E+01  0.40708625163E+02 -0.80954917812E+02  0.90847215955E+02  0.00000000000E+00 0. -1.
         11    1    1    2    0    0  0.13753558699E+02 -0.17875933364E+02 -0.34027946048E+02  0.40824140931E+02  0.00000000000E+00 0.  1.
</event>
<event>
 7    1  0.3056346E-009  0.8167070E+02  0.7561462E-02  0.1324376E+00
         -4   -1    0    0    0  501 -0.00000000000E+00  0.00000000000E+00  0.17164939653E+03  0.17164939653E+03  0.00000000000E+00 0.  1.
          4   -1    0    0  501    0  0.00000000000E+00 -0.00000000000E+00 -0.15077524693E+03  0.15077524693E+03  0.00000000000E+00 0. -1.
         25    2    1    2    0    0 -0.47917664228E+01  0.58286946095E+02  0.12091658864E+03  0.18355500618E+03  0.12510511490E+03 0.  0.
          5    1    3    3  502    0  0.23682353219E+02  0.44258900486E+02  0.13825540138E+03  0.14714527698E+03  0.41800000000E+01 0. -1.
         -5    1    3    3    0  502 -0.28474119642E+02  0.14028045609E+02 -0.17338812743E+02  0.36409729199E+02  0.41800000000E+01 0. -1.
        -11    1    1    2    0    0 -0.25694560121E+02 -0.26780208872E+02 -0.84608892304E+02  0.92390771531E+02  0.00000000000E+00 0. -1.
         11    1    1    2    0    0  0.30486326544E+02 -0.31506737223E+02 -0.15433546740E+02  0.46478865751E+02  0.00000000000E+00 0.  1.
</event>
<event>
 7    1  0.3056346E-009  0.1521054E+03  0.7561462E-02  0.1197910E+00
         -2   -1    0    0    0  501 -0.00000000000E+00  0.00000000000E+00  0.88117476896E+02  0.88117476896E+02  0.00000000000E+00 0.  1.
          2   -1    0    0  501    0  0.00000000000E+00 -0.00000000000E+00 -0.34944388642E+03  0.34944388642E+03  0.00000000000E+00 0. -1.
         25    2    1    2    0    0 -0.40529619526E+02  0.11257620522E+03 -0.22200876370E+03  0.28151302992E+03  0.12508254400E+03 0.  0.
          5    1    3    3  502    0 -0.36163118144E+02 -0.92823052170E+01 -0.10868462409E+03  0.11499457473E+03  0.41800000000E+01 0.  1.
         -5    1    3    3    0  502 -0.43665013818E+01  0.12185851043E+03 -0.11332413961E+03  0.16651845519E+03  0.41800000000E+01 0.  1.
        -11    1    1    2    0    0 -0.11003408787E+02  0.79353321851E+01  0.90868185187E+01  0.16328342617E+02  0.00000000000E+00 0.  1.
         11    1    1    2    0    0  0.51533028313E+02 -0.12051153740E+03 -0.48404464336E+02  0.13971999077E+03  0.00000000000E+00 0. -1.
</event>
<event>
 7    1  0.3056346E-009  0.9939052E+02  0.7561462E-02  0.1281583E+00
          1   -1    0    0  501    0  0.00000000000E+00  0.00000000000E+00  0.57987639802E+02  0.57987639802E+02  0.00000000000E+00 0. -1.
         -1   -1    0    0    0  501 -0.00000000000E+00 -0.00000000000E+00 -0.25599130476E+03  0.25599130476E+03  0.00000000000E+00 0.  1.
         25    2    1    2    0    0  0.22116228316E+02 -0.49455650363E+02 -0.89784289297E+02  0.16322938817E+03  0.12509046986E+03 0.  0.
          5    1    3    3  502    0  0.57492416774E+02 -0.69920838757E+02 -0.80273538844E+02  0.12106037798E+03  0.41800000000E+01 0. -1.
         -5    1    3    3    0  502 -0.35376188458E+02  0.20465188394E+02 -0.95107504537E+01  0.42169010185E+02  0.41800000000E+01 0. -1.
        -11    1    1    2    0    0  0.63298964831E+01  0.34239355197E+02 -0.11290382169E+03  0.11815106427E+03  0.00000000000E+00 0.  1.
         11    1    1    2    0    0 -0.28446124799E+02  0.15216295166E+02  0.46844460305E+01  0.32598492132E+02  0.00000000000E+00 0. -1.
</event>
<event>
 7    1  0.3056346E-009  0.9816550E+02  0.7561462E-02  0.1284202E+00
          2   -1    0    0  501    0  0.00000000000E+00  0.00000000000E+00  0.86800565885E+03  0.86800565885E+03  0.00000000000E+00 0. -1.
         -2   -1    0    0    0  501 -0.00000000000E+00 -0.00000000000E+00 -0.18705183280E+02  0.18705183280E+02  0.00000000000E+00 0.  1.
         25    2    1    2    0    0 -0.90139814440E+01  0.49679983685E+02  0.59277299921E+03  0.60792755109E+03  0.12508687440E+03 0.  0.
          5    1    3    3  502    0 -0.90546611770E+01  0.70587340934E+02  0.16647302029E+03  0.18109472238E+03  0.41800000000E+01 0. -1.
         -5    1    3    3    0  502  0.40679732942E-01 -0.20907357249E+02  0.42629997892E+03  0.42683282872E+03  0.41800000000E+01 0. -1.
        -11    1    1    2    0    0  0.50016016731E+02 -0.25938358215E+02  0.18153811367E+03  0.19008021221E+03  0.00000000000E+00 0.  1.
         11    1    1    2    0    0 -0.41002035287E+02 -0.23741625470E+02  0.74989362692E+02  0.88703078833E+02  0.00000000000E+00 0. -1.
</event>
<event>
 7    1  0.3056346E-009  0.1405349E+03  0.7561462E-02  0.1212611E+00
         -1   -1    0    0    0  501 -0.00000000000E+00  0.00000000000E+00  0.25137139272E+03  0.25137139272E+03  0.00000000000E+00 0.  1.
          1   -1    0    0  501    0  0.00000000000E+00 -0.00000000000E+00 -0.17068995205E+03  0.17068995205E+03  0.00000000000E+00 0. -1.
         25    2    1    2    0    0 -0.50779102473E+02 -0.11641634146E+03 -0.82549786179E+02  0.19645351069E+03  0.12509289692E+03 0.  0.
          5    1    3    3  502    0  0.19909468880E+02 -0.38317254654E+02 -0.79993822015E+02  0.91000455581E+02  0.41800000000E+01 0. -1.
         -5    1    3    3    0  502 -0.70688571352E+02 -0.78099086805E+02 -0.25559641635E+01  0.10545305511E+03  0.41800000000E+01 0. -1.
        -11    1    1    2    0    0  0.22376754006E+02  0.14981922066E+02  0.98175981606E+02  0.10180226163E+03  0.00000000000E+00 0.  1.
         11    1    1    2    0    0  0.28402348467E+02  0.10143441939E+03  0.65055245241E+02  0.12380557245E+03  0.00000000000E+00 0. -1.
</event>
<event>
 7    1  0.3056346E-009  0.1222150E+03  0.7561462E-02  0.1239487E+00
         -1   -1    0    0    0  501 -0.00000000000E+00  0.00000000000E+00  0.41897847695E+02  0.41897847695E+02  0.00000000000E+00 0.  1.
          1   -1    0    0  501    0  0.00000000000E+00 -0.00000000000E+00 -0.44241056163E+03  0.44241056163E+03  0.00000000000E+00 0. -1.
         25    2    1    2    0    0  0.49859073012E+02  0.66150372684E+02 -0.20698165494E+03  0.25563246568E+03  0.12507898728E+03 0.  0.
          5    1    3    3  502    0  0.53781322194E+02  0.88905134842E+02 -0.93802071759E+02  0.14004590206E+03  0.41800000000E+01 0.  1.
         -5    1    3    3    0  502 -0.39222491813E+01 -0.22754762159E+02 -0.11317958318E+03  0.11558656362E+03  0.41800000000E+01 0.  1.
        -11    1    1    2    0    0  0.18483225490E+02  0.41345471891E+01 -0.60697363517E+02  0.63583756124E+02  0.00000000000E+00 0. -1.
         11    1    1    2    0    0 -0.68342298502E+02 -0.70284919873E+02 -0.13283369547E+03  0.16509218752E+03  0.00000000000E+00 0.  1.
</event>
<event>
 7    1  0.3056346E-009  0.2766695E+03  0.7561462E-02  0.1097522E+00
         -1   -1    0    0    0  501 -0.00000000000E+00  0.00000000000E+00  0.92597565939E+02  0.92597565939E+02  0.00000000000E+00 0.  1.
          1   -1    0    0  501    0  0.00000000000E+00 -0.00000000000E+00 -0.97636484068E+03  0.97636484068E+03  0.00000000000E+00 0. -1.
         25    2    1    2    0    0 -0.20885934883E+03  0.17984277759E+03 -0.54963634965E+03  0.62746557456E+03  0.12508908089E+03 0.  0.
          5    1    3    3  502    0 -0.16450734556E+03  0.13026838152E+03 -0.28126343339E+03  0.35094032161E+03  0.41800000000E+01 0.  1.
         -5    1    3    3    0  502 -0.44352003269E+02  0.49574396069E+02 -0.26837291626E+03  0.27652525295E+03  0.41800000000E+01 0.  1.
        -11    1    1    2    0    0  0.12683130213E+03 -0.92449280984E+02 -0.12578492973E+03  0.20113402820E+03  0.00000000000E+00 0.  1.
         11    1    1    2    0    0  0.82028046702E+02 -0.87393496605E+02 -0.20834599537E+03  0.24036280386E+03  0.00000000000E+00 0. -1.
</event>
<event>
 7    1  0.3056346E-009  0.1647905E+03  0.7561462E-02  0.1183392E+00
         -2   -1    0    0    0  501 -0.00000000000E+00  0.00000000000E+00  0.10332976577E+03  0.10332976577E+03  0.00000000000E+00 0.  1.
          2   -1    0    0  501    0  0.00000000000E+00 -0.00000000000E+00 -0.40784228022E+03  0.40784228022E+03  0.00000000000E+00 0. -1.
         25    2    1    2    0    0 -0.13538405108E+03  0.66570434521E+02 -0.51490211385E+02  0.20263077123E+03  0.12509006172E+03 0.  0.
          5    1    3    3  502    0 -0.13469224249E+03  0.77591038169E+02 -0.77739424994E+02  0.17384838219E+03  0.41800000000E+01 0.  1.
         -5    1    3    3    0  502 -0.69180859308E+00 -0.11020603647E+02  0.26249213609E+02  0.28782389043E+02  0.41800000000E+01 0.  1.
        -11    1    1    2    0    0  0.11499706464E+03 -0.27551552399E+02 -0.23056365819E+03  0.25911968932E+03  0.00000000000E+00 0. -1.
         11    1    1    2    0    0  0.20386986443E+02 -0.39018882123E+02 -0.22458644868E+02  0.49421585442E+02  0.00000000000E+00 0.  1.
</event>
<event>
 7    1  0.3056346E-009  0.1346356E+03  0.7561462E-02  0.1220735E+00
          2   -1    0    0  501    0  0.00000000000E+00  0.00000000000E+00  0.40632531166E+03  0.40632531166E+03  0.00000000000E+00 0. -1.
         -2   -1    0    0    0  501 -0.00000000000E+00 -0.00000000000E+00 -0.53820921650E+02  0.53820921650E+02  0.00000000000E+00 0.  1.
         25    2    1    2    0    0 -0.89490564996E+01 -0.96869378903E+02  0.15029012883E+03  0.21839949560E+03  0.12508978646E+03 0.  0.
          5    1    3    3  502    0 -0.62109475502E+02 -0.42769415945E+02  0.10699073254E+03  0.13096296857E+03  0.41800000000E+01 0. -1.
         -5    1    3    3    0  502  0.53160419003E+02 -0.54099962958E+02  0.43299396284E+02  0.87436527031E+02  0.41800000000E+01 0. -1.
        -11    1    1    2    0    0  0.32131063000E+02  0.20841809479E+02  0.20568873848E+02  0.43472575301E+02  0.00000000000E+00 0.  1.
         11    1    1    2    0    0 -0.23182006501E+02  0.76027569423E+02  0.18164538734E+03  0.19827416241E+03  0.00000000000E+00 0. -1.
</event>
<event>
 7    1  0.3056346E-009  0.1360232E+03  0.7561462E-02  0.1218782E+00
         -2   -1    0    0    0  501 -0.00000000000E+00  0.00000000000E+00  0.16361024884E+03  0.16361024884E+03  0.00000000000E+00 0.  1.
          2   -1    0    0  501    0  0.00000000000E+00 -0.00000000000E+00 -0.14688795348E+03  0.14688795348E+03  0.00000000000E+00 0. -1.
         25    2    1    2    0    0 -0.10239524277E+03  0.11177967001E+02 -0.34370647733E+02  0.16564397433E+03  0.12508737793E+03 0.  0.
          5    1    3    3  502    0 -0.10379651277E+03  0.37101217410E+02  0.13396109429E+02  0.11111770581E+03  0.41800000000E+01 0. -1.
         -5    1    3    3    0  502  0.14012699965E+01 -0.25923250409E+02 -0.47766757162E+02  0.54526268524E+02  0.41800000000E+01 0. -1.
        -11    1    1    2    0    0  0.11714183100E+03 -0.19123801031E+02  0.46584746639E+02  0.12750712512E+03  0.00000000000E+00 0. -1.
         11    1    1    2    0    0 -0.14746588232E+02  0.79458340307E+01  0.45081964558E+01  0.17347102877E+02  0.00000000000E+00 0.  1.
</event>
<event>
 7    1  0.3056346E-009  0.9336605E+02  0.7561462E-02  0.1294899E+00
          1   -1    0    0  501    0  0.00000000000E+00  0.00000000000E+00  0.62925214820E+03  0.62925214820E+03  0.00000000000E+00 0. -1.
         -1   -1    0    0    0  501 -0.00000000000E+00 -0.00000000000E+00 -0.20783073326E+02  0.20783073326E+02  0.00000000000E+00 0.  1.
         25    2    1    2    0    0 -0.28332569394E+02  0.18421857987E+02  0.36381717149E+03  0.38620280367E+03  0.12509025523E+03 0.  0.
          5    1    3    3  502    0  0.34214694518E+02 -0.65981432713E+01  0.26010384849E+03  0.26246078796E+03  0.41800000000E+01 0.  1.
         -5    1    3    3    0  502 -0.62547263912E+02  0.25020001259E+02  0.10371332299E+03  0.12374201571E+03  0.41800000000E+01 0.  1.
        -11    1    1    2    0    0  0.43839167200E+02  0.15776888897E+02  0.20064021390E+03  0.20597882959E+03  0.00000000000E+00 0. -1.
         11    1    1    2    0    0 -0.15506597806E+02 -0.34198746885E+02  0.44011689488E+02  0.57853588269E+02  0.00000000000E+00 0.  1.
</event>
<event>
 7    1  0.3056346E-009  0.1004556E+03  0.7561462E-02  0.1279341E+00
         -2   -1    0    0    0  501 -0.00000000000E+00  0.00000000000E+00  0.83735992823E+01  0.83735992823E+01  0.00000000000E+00 0.  1.
          2   -1    0    0  501    0  0.00000000000E+00 -0.00000000000E+00 -0.21490628179E+04  0.21490628179E+04  0.00000000000E+00 0. -1.
         25    2    1    2    0    0 -0.33841159440E+02  0.56499458219E+02 -0.15200728716E+04  0.15266322999E+04  0.12508889352E+03 0.  0.
          5    1    3    3  502    0  0.11907943346E+02 -0.29792276142E+01 -0.10876419359E+04  0.10877192321E+04  0.41800000000E+01 0.  1.
         -5    1    3    3    0  502 -0.45749102786E+02  0.59478685833E+02 -0.43243093579E+03  0.43891306782E+03  0.41800000000E+01 0.  1.
        -11    1    1    2    0    0  0.62466409679E+02 -0.56405576947E+02 -0.47556476919E+03  0.48295495768E+03  0.00000000000E+00 0. -1.
         11    1    1    2    0    0 -0.28625250239E+02 -0.93881272374E-01 -0.14505157778E+03  0.14784915956E+03  0.00000000000E+00 0.  1.
</event>
<event>
 7    1  0.3056346E-009  0.9602261E+02  0.7561462E-02  0.1288889E+00
         -1   -1    0    0    0  501 -0.00000000000E+00  0.00000000000E+00  0.31458866871E+02  0.31458866871E+02  0.00000000000E+00 0.  1.
          1   -1    0    0  501    0  0.00000000000E+00 -0.00000000000E+00 -0.52136372433E+03  0.52136372433E+03  0.00000000000E+00 0. -1.
         25    2    1    2    0    0  0.27751839065E+02  0.74920290194E+01 -0.40767367366E+03  0.42739888394E+03  0.12508271951E+03 0.  0.
          5    1    3    3  502    0  0.44359981003E+02  0.56543321273E+02 -0.17977461761E+03  0.19365262877E+03  0.41800000000E+01 0.  1.
         -5    1    3    3    0  502 -0.16608141938E+02 -0.49051292254E+02 -0.22789905606E+03  0.23374625516E+03  0.41800000000E+01 0.  1.
        -11    1    1    2    0    0 -0.42356244851E+02 -0.21816202090E+02 -0.91348844155E+02  0.10302722689E+03  0.00000000000E+00 0. -1.
         11    1    1    2    0    0  0.14604405787E+02  0.14324173071E+02  0.91176603659E+01  0.22396480373E+02  0.00000000000E+00 0.  1.
</event>
<event>
 7    1  0.3056346E-009  0.1214309E+03  0.7561462E-02  0.1240755E+00
         -2   -1    0    0    0  501 -0.00000000000E+00  0.00000000000E+00  0.24555090548E+02  0.24555090548E+02  0.00000000000E+00 0.  1.
          2   -1    0    0  501    0  0.00000000000E+00 -0.00000000000E+00 -0.64538859459E+03  0.64538859459E+03  0.00000000000E+00 0. -1.
         25    2    1    2    0    0 -0.61110960634E+02 -0.38449708904E+01 -0.29638855184E+03  0.32748003919E+03  0.12509064350E+03 0.  0.
          5    1    3    3  502    0 -0.65736196876E+02 -0.56024189467E+02 -0.17470016359E+03  0.19492967179E+03  0.41800000000E+01 0.  1.
         -5    1    3    3    0  502  0.46252362421E+01  0.52179218576E+02 -0.12168838826E+03  0.13255036740E+03  0.41800000000E+01 0.  1.
        -11    1    1    2    0    0  0.52148534934E+02 -0.35760765797E+02 -0.14024285540E+03  0.15383874855E+03  0.00000000000E+00 0.  1.
         11    1    1    2    0    0  0.89624257003E+01  0.39605736688E+02 -0.18420209680E+03  0.18862489739E+03  0.00000000000E+00 0. -1.
</event>
<event>
 7    1  0.3056346E-009  0.1096858E+03  0.7561462E-02  0.1261153E+00
          1   -1    0    0  501    0  0.00000000000E+00  0.00000000000E+00  0.32841079622E+03  0.32841079622E+03  0.00000000000E+00 0. -1.
         -1   -1    0    0    0  501 -0.00000000000E+00 -0.00000000000E+00 -0.37530034478E+02  0.37530034478E+02  0.00000000000E+00 0.  1.
         25    2    1    2    0    0 -0.26413802360E+02  0.14424280682E+01  0.16773977492E+03  0.21091093298E+03  0.12508804902E+03 0.  0.
          5    1    3    3  502    0  0.41048354201E+02 -0.31193478634E+02  0.82087487084E+02  0.97024885610E+02  0.41800000000E+01 0. -1.
         -5    1    3    3    0  502 -0.67462156561E+02  0.32635906703E+02  0.85652287835E+02  0.11388604737E+03  0.41800000000E+01 0. -1.
        -11    1    1    2    0    0 -0.19778574721E+02 -0.31703033817E+02  0.64044314060E+02  0.74148152604E+02  0.00000000000E+00 0.  1.
         11    1    1    2    0    0  0.46192377081E+02  0.30260605749E+02  0.59096672758E+02  0.80881745108E+02  0.00000000000E+00 0. -1.
</event>
<event>
 7    1  0.3056346E-009  0.9993055E+02  0.7561462E-02  0.1280442E+00
         -2   -1    0    0    0  501 -0.00000000000E+00  0.00000000000E+00  0.21952901302E+02  0.21952901302E+02  0.00000000000E+00 0.  1.
          2   -1    0    0  501    0  0.00000000000E+00 -0.00000000000E+00 -0.77590887674E+03  0.77590887674E+03  0.00000000000E+00 0. -1.
         25    2    1    2    0    0  0.62528730941E+02  0.30853345547E+02 -0.48203055834E+03  0.50285706200E+03  0.12509993804E+03 0.  0.
          5    1    3    3  502    0  0.84531051467E+01  0.46762378562E+02 -0.40233278995E+03  0.40515098581E+03  0.41800000000E+01 0.  1.
         -5    1    3    3    0  502  0.54075625794E+02 -0.15909033016E+02 -0.79697768398E+02  0.97706076188E+02  0.41800000000E+01 0.  1.
        -11    1    1    2    0    0  0.93255278414E+01 -0.21168112576E+02 -0.13900513486E+02  0.26986639930E+02  0.00000000000E+00 0.  1.
         11    1    1    2    0    0 -0.71854258782E+02 -0.96852329710E+01 -0.25802490361E+03  0.26801807611E+03  0.00000000000E+00 0. -1.
</event>
<event>
 7    1  0.3056346E-009  0.1305196E+03  0.7561462E-02  0.1226687E+00
          2   -1    0    0  501    0  0.00000000000E+00  0.00000000000E+00  0.20402758983E+03  0.20402758983E+03  0.00000000000E+00 0. -1.
         -2   -1    0    0    0  501 -0.00000000000E+00 -0.00000000000E+00 -0.14911775560E+03  0.14911775560E+03  0.00000000000E+00 0.  1.
         25    2    1    2    0    0 -0.66521785737E+02 -0.95365149150E+02  0.10070823332E+03  0.19826590686E+03  0.12509021510E+03 0.  0.
          5    1    3    3  502    0 -0.17850382211E+02 -0.34254569011E+02  0.11261535765E+03  0.11912893360E+03  0.41800000000E+01 0. -1.
         -5    1    3    3    0  502 -0.48671403526E+02 -0.61110580139E+02 -0.11907124328E+02  0.79136973255E+02  0.41800000000E+01 0. -1.
        -11    1    1    2    0    0  0.82542947921E+02  0.51596575867E+02 -0.47344183688E+02  0.10824516905E+03  0.00000000000E+00 0.  1.
         11    1    1    2    0    0 -0.16021162183E+02  0.43768573283E+02  0.15457845958E+01  0.46634269534E+02  0.00000000000E+00 0. -1.
</event>
<event>
 7    1  0.3056346E-009  0.9572631E+02  0.7561462E-02  0.1289549E+00
          1   -1    0    0  501    0  0.00000000000E+00  0.00000000000E+00  0.10061788221E+03  0.10061788221E+03  0.00000000000E+00 0. -1.
         -1   -1    0    0    0  501 -0.00000000000E+00 -0.00000000000E+00 -0.13917548663E+03  0.13917548663E+03  0.00000000000E+00 0.  1.
         25    2    1    2    0    0 -0.28785365585E+02 -0.12782282218E+02  0.13008769271E+02  0.12964496905E+03  0.12508639379E+03 0.  0.
          5    1    3    3  502    0  0.43771406730E+02  0.96979535956E+01 -0.16630855354E+02  0.48000459382E+02  0.41800000000E+01 0. -1.
         -5    1    3    3    0  502 -0.72556772315E+02 -0.22480235814E+02  0.29639624625E+02  0.81644509668E+02  0.41800000000E+01 0. -1.
        -11    1    1    2    0    0 -0.15206468467E+01  0.33567552993E+02 -0.63220726663E+02  0.71595762867E+02  0.00000000000E+00 0. -1.
         11    1    1    2    0    0  0.30306012432E+02 -0.20785270775E+02  0.11654352975E+02  0.38552636926E+02  0.00000000000E+00 0.  1.
</event>
<event>
 7    1  0.3056346E-009  0.1209001E+03  0.7561462E-02  0.1241620E+00
          1   -1    0    0  501    0  0.00000000000E+00  0.00000000000E+00  0.47933424289E+02  0.47933424289E+02  0.00000000000E+00 0. -1.
         -1   -1    0    0    0  501 -0.00000000000E+00 -0.00000000000E+00 -0.60694479942E+03  0.60694479942E+03  0.00000000000E+00 0.  1.
         25    2    1    2    0    0 -0.27554132208E+02 -0.11665401598E+03 -0.19324849382E+03  0.25953793226E+03  0.12509024052E+03 0.  0.
          5    1    3    3  502    0 -0.62047256471E+01 -0.60263359152E+02 -0.18948663857E+03  0.19897947048E+03  0.41800000000E+01 0. -1.
         -5    1    3    3    0  502 -0.21349406561E+02 -0.56390656824E+02 -0.37618552446E+01  0.60558461774E+02  0.41800000000E+01 0. -1.
        -11    1    1    2    0    0  0.83358280722E+01  0.64760183249E+02 -0.75360757207E+02  0.99712642583E+02  0.00000000000E+00 0.  1.
         11    1    1    2    0    0  0.19218304136E+02  0.51893832727E+02 -0.29040212411E+03  0.29562764887E+03  0.00000000000E+00 0. -1.
</event>
<event>
 7    1  0.3056346E-009  0.2278018E+03  0.7561462E-02  0.1128197E+00
          2   -1    0    0  501    0  0.00000000000E+00  0.00000000000E+00  0.29170395663E+03  0.29170395663E+03  0.00000000000E+00 0.  1.
         -2   -1    0    0    0  501 -0.00000000000E+00 -0.00000000000E+00 -0.23069066839E+03  0.23069066839E+03  0.00000000000E+00 0. -1.
         25    2    1    2    0    0  0.69363075979E+02  0.20374110056E+03 -0.64078109235E+02  0.25705270698E+03  0.12509363580E+03 0.  0.
          5    1    3    3  502    0  0.29017763211E+02  0.24316196309E+02  0.31795021273E+02  0.49615559681E+02  0.41800000000E+01 0.  1.
         -5    1    3    3    0  502  0.40345312768E+02  0.17942490425E+03 -0.95873130508E+02  0.20743714730E+03  0.41800000000E+01 0.  1.
        -11    1    1    2    0    0 -0.22751711989E+02  0.17803086746E+01  0.75492479327E+01  0.24037492418E+02  0.00000000000E+00 0. -1.
         11    1    1    2    0    0 -0.46611363990E+02 -0.20552140923E+03  0.11754214954E+03  0.24130442562E+03  0.00000000000E+00 0.  1.
</event>
<event>
 7    1  0.3056346E-009  0.9986239E+02  0.7561462E-02  0.1280586E+00
         -1   -1    0    0    0  501 -0.00000000000E+00  0.00000000000E+00  0.27551129157E+02  0.27551129157E+02  0.00000000000E+00 0.  1.
          1   -1    0    0  501    0  0.00000000000E+00 -0.00000000000E+00 -0.55050892486E+03  0.55050892486E+03  0.00000000000E+00 0. -1.
         25    2    1    2    0    0 -0.23538329190E+02 -0.56553402889E+02 -0.32730545181E+03  0.35570883068E+03  0.12509025989E+03 0.  0.
          5    1    3    3  502    0 -0.56517507603E+02 -0.45970892945E+01 -0.25215865664E+03  0.25848950156E+03  0.41800000000E+01 0.  1.
         -5    1    3    3    0  502  0.32979178413E+02 -0.51956313594E+02 -0.75146795163E+02  0.97219329120E+02  0.41800000000E+01 0.  1.
        -11    1    1    2    0    0 -0.17307479816E+02  0.18984658612E+02 -0.83690746157E+01  0.27018651523E+02  0.00000000000E+00 0.  1.
         11    1    1    2    0    0  0.40845809005E+02  0.37568744277E+02 -0.18728326928E+03  0.19533257182E+03  0.00000000000E+00 0. -1.
</event>
<event>
 7    1  0.3056346E-009  0.7771432E+02  0.7561462E-02  0.1335666E+00
          4   -1    0    0  501    0  0.00000000000E+00  0.00000000000E+00  0.82078058865E+02  0.82078058865E+02  0.00000000000E+00 0. -1.
         -4   -1    0    0    0  501 -0.00000000000E+00 -0.00000000000E+00 -0.17919533153E+03  0.17919533153E+03  0.00000000000E+00 0.  1.
         25    2    1    2    0    0  0.53711042627E+02  0.10552355456E+01 -0.65488356044E+02  0.15106565122E+03  0.12508443780E+03 0.  0.
          5    1    3    3  502    0  0.57814996905E+02  0.17473264978E+02  0.20044804435E+02  0.63774253746E+02  0.41800000000E+01 0. -1.
         -5    1    3    3    0  502 -0.41039542779E+01 -0.16418029432E+02 -0.85533160479E+02  0.87291397473E+02  0.41800000000E+01 0. -1.
        -11    1    1    2    0    0 -0.31626711026E+02 -0.28260872848E+02 -0.53976769309E+02  0.68647049532E+02  0.00000000000E+00 0.  1.
         11    1    1    2    0    0 -0.22084331601E+02  0.27205637303E+02  0.22347852692E+02  0.41560689639E+02  0.00000000000E+00 0. -1.
</event>
<event>
 7    1  0.3671360E-009  0.9105207E+02  0.7561462E-02  0.1300324E+00
         -2   -1    0    0    0  501 -0.00000000000E+00  0.00000000000E+00  0.42602346496E+03  0.42602346496E+03  0.00000000000E+00 0. -1.
          2   -1    0    0  501    0  0.00000000000E+00 -0.00000000000E+00 -0.33409541843E+02  0.33409541843E+02  0.00000000000E+00 0.  1.
         25    2    1    2    0    0 -0.12110302401E+02  0.48590539985E+02  0.22113148282E+03  0.25894850108E+03  0.12508994171E+03 0.  0.
          5    1    3    3  502    0 -0.53114015210E+02  0.66411660900E+02  0.11009632997E+03  0.13917715901E+03  0.41800000000E+01 0. -1.
         -5    1    3    3    0  502  0.41003712809E+02 -0.17821120915E+02  0.11103515284E+03  0.11977134207E+03  0.41800000000E+01 0. -1.
        -11    1    1    2    0    0 -0.19629077326E+01 -0.20948555601E+02 -0.47278556621E+01  0.21564962502E+02  0.00000000000E+00 0.  1.
         11    1    1    2    0    0  0.14073210134E+02 -0.27641984384E+02  0.17621029597E+03  0.17891954323E+03  0.00000000000E+00 0. -1.
</event>
<event>
 7    1  0.3056346E-009  0.1059435E+03  0.7561462E-02  0.1268272E+00
         -2   -1    0    0    0  501 -0.00000000000E+00  0.00000000000E+00  0.98607262942E+03  0.98607262942E+03  0.00000000000E+00 0.  1.
          2   -1    0    0  501    0  0.00000000000E+00 -0.00000000000E+00 -0.16887849798E+02  0.16887849798E+02  0.00000000000E+00 0. -1.
         25    2    1    2    0    0 -0.30878666558E+01 -0.33206833880E+01  0.79034748271E+03  0.80019799684E+03  0.12508848417E+03 0.  0.
          5    1    3    3  502    0 -0.54289733230E+01  0.56923884893E+02  0.52146257402E+03  0.52460508092E+03  0.41800000000E+01 0. -1.
         -5    1    3    3    0  502  0.23411066671E+01 -0.60244568281E+02  0.26888490868E+03  0.27559291592E+03  0.41800000000E+01 0. -1.
        -11    1    1    2    0    0 -0.39694515082E+02 -0.20998109629E+02  0.67977217801E+02  0.81470714220E+02  0.00000000000E+00 0.  1.
         11    1    1    2    0    0  0.42782381738E+02  0.24318793017E+02  0.11086007912E+03  0.12129176816E+03  0.00000000000E+00 0. -1.
</event>
<event>
 7    1  0.3056346E-009  0.1601639E+03  0.7561462E-02  0.1188512E+00
         -2   -1    0    0    0  501 -0.00000000000E+00  0.00000000000E+00  0.52311886119E+02  0.52311886119E+02  0.00000000000E+00 0.  1.
          2   -1    0    0  501    0  0.00000000000E+00 -0.00000000000E+00 -0.88827807053E+03  0.88827807053E+03  0.00000000000E+00 0. -1.
         25    2    1    2    0    0  0.86602157031E+02 -0.11188479310E+03 -0.69825461623E+03  0.72334306104E+03  0.12509010490E+03 0.  0.
          5    1    3    3  502    0 -0.19861505402E+02 -0.48400956931E+02 -0.10648953020E+03  0.11872078365E+03  0.41800000000E+01 0. -1.
         -5    1    3    3    0  502  0.10646366243E+03 -0.63483836168E+02 -0.59176508603E+03  0.60462227739E+03  0.41800000000E+01 0. -1.
        -11    1    1    2    0    0 -0.86489490333E+02  0.10115972000E+03 -0.15026734616E+03  0.20073364494E+03  0.00000000000E+00 0. -1.
         11    1    1    2    0    0 -0.11266669793E+00  0.10725073095E+02  0.12555777983E+02  0.16513250662E+02  0.00000000000E+00 0.  1.
</event>
<event>
 7    1  0.3056346E-009  0.9447073E+02  0.7561462E-02  0.1292373E+00
         -1   -1    0    0    0  501 -0.00000000000E+00  0.00000000000E+00  0.44866681294E+02  0.44866681294E+02  0.00000000000E+00 0. -1.
          1   -1    0    0  501    0  0.00000000000E+00 -0.00000000000E+00 -0.32389242658E+03  0.32389242658E+03  0.00000000000E+00 0.  1.
         25    2    1    2    0    0 -0.18086740427E+02 -0.29700247149E+02 -0.22401485314E+03  0.25892279420E+03  0.12509645905E+03 0.  0.
          5    1    3    3  502    0  0.39647311045E+02  0.25663504664E+02 -0.60697832260E+02  0.77020932128E+02  0.41800000000E+01 0.  1.
         -5    1    3    3    0  502 -0.57734051473E+02 -0.55363751814E+02 -0.16331702088E+03  0.18190186207E+03  0.41800000000E+01 0.  1.
        -11    1    1    2    0    0 -0.22692163192E+01  0.38988563500E+02 -0.71886899039E+02  0.81810657496E+02  0.00000000000E+00 0.  1.
         11    1    1    2    0    0  0.20355956747E+02 -0.92883163505E+01  0.16876006895E+02  0.28025656182E+02  0.00000000000E+00 0. -1.
</event>
<event>
 7    1  0.3056346E-009  0.1225784E+03  0.7561462E-02  0.1238903E+00
         -1   -1    0    0    0  501 -0.00000000000E+00  0.00000000000E+00  0.39942387597E+02  0.39942387597E+02  0.00000000000E+00 0.  1.
          1   -1    0    0  501    0  0.00000000000E+00 -0.00000000000E+00 -0.42134545674E+03  0.42134545674E+03  0.00000000000E+00 0. -1.
         25    2    1    2    0    0 -0.46652629660E+02 -0.48486100723E+02 -0.16787809477E+03  0.21991901213E+03  0.12511573593E+03 0.  0.
          5    1    3    3  502    0 -0.58747572086E+01  0.39640600972E+02 -0.26033438852E+02  0.47969806714E+02  0.41800000000E+01 0.  1.
         -5    1    3    3    0  502 -0.40777872451E+02 -0.88126701695E+02 -0.14184465591E+03  0.17194920542E+03  0.41800000000E+01 0.  1.
        -11    1    1    2    0    0  0.32312699609E+02 -0.19799938272E+02 -0.11151339808E+03  0.11777684859E+03  0.00000000000E+00 0.  1.
         11    1    1    2    0    0  0.14339930050E+02  0.68286038995E+02 -0.10201157629E+03  0.12359198361E+03  0.00000000000E+00 0. -1.
</event>
<event>
 7    1  0.3056346E-009  0.2866654E+03  0.7561462E-02  0.1092103E+00
          2   -1    0    0  501    0  0.00000000000E+00  0.00000000000E+00  0.57505281217E+03  0.57505281217E+03  0.00000000000E+00 0. -1.
         -2   -1    0    0    0  501 -0.00000000000E+00 -0.00000000000E+00 -0.16314190199E+03  0.16314190199E+03  0.00000000000E+00 0.  1.
         25    2    1    2    0    0 -0.26274344089E+03 -0.83441029204E+02  0.30246179095E+03  0.42793388717E+03  0.12509098973E+03 0.  0.
          5    1    3    3  502    0 -0.19159556402E+03 -0.11034783308E+03  0.18700866181E+03  0.28961218277E+03  0.41800000000E+01 0. -1.
         -5    1    3    3    0  502 -0.71147876875E+02  0.26906803874E+02  0.11545312915E+03  0.13832170440E+03  0.41800000000E+01 0. -1.
        -11    1    1    2    0    0  0.13118090436E+03  0.48796841947E+02  0.73357963294E+01  0.14015482639E+03  0.00000000000E+00 0.  1.
         11    1    1    2    0    0  0.13156253653E+03  0.34644187257E+02  0.10211332290E+03  0.17010600060E+03  0.00000000000E+00 0. -1.
</event>
<event>
 7    1  0.3056346E-009  0.1298918E+03  0.7561462E-02  0.1227616E+00
          1   -1    0    0  501    0  0.00000000000E+00  0.00000000000E+00  0.38872920124E+03  0.38872920124E+03  0.00000000000E+00 0. -1.
         -1   -1    0    0    0  501 -0.00000000000E+00 -0.00000000000E+00 -0.56111781029E+02  0.56111781029E+02  0.00000000000E+00 0.  1.
         25    2    1    2    0    0  0.87818552173E+02  0.11096197250E+02  0.10799874306E+03  0.18746452146E+03  0.12507595534E+03 0.  0.
          5    1    3    3  502    0  0.15277666571E+01  0.42818015540E+02 -0.31451371359E+01  0.43163419853E+02  0.41800000000E+01 0.  1.
         -5    1    3    3    0  502  0.86290785515E+02 -0.31721818291E+02  0.11114388019E+03  0.14430110161E+03  0.41800000000E+01 0.  1.
        -11    1    1    2    0    0 -0.55795925846E+02  0.36980168751E+02  0.10468098012E+03  0.12425307168E+03  0.00000000000E+00 0. -1.
         11    1    1    2    0    0 -0.32022626326E+02 -0.48076366001E+02  0.11993769703E+03  0.13312338913E+03  0.00000000000E+00 0.  1.
</event>
<event>
 7    1  0.3056346E-009  0.7804853E+02  0.7561462E-02  0.1334682E+00
         -1   -1    0    0    0  501 -0.00000000000E+00  0.00000000000E+00  0.41031046450E+02  0.41031046450E+02  0.00000000000E+00 0.  1.
          1   -1    0    0  501    0  0.00000000000E+00 -0.00000000000E+00 -0.35591941719E+03  0.35591941719E+03  0.00000000000E+00 0. -1.
         25    2    1    2    0    0  0.18451327684E+02 -0.32975129324E+02 -0.11475216388E+03  0.17390693953E+03  0.12509098231E+03 0.  0.
          5    1    3    3  502    0 -0.18669436732E+02 -0.51838505472E+02 -0.11963088824E+03  0.13177556806E+03  0.41800000000E+01 0.  1.
         -5    1    3    3    0  502  0.37120764415E+02  0.18863376148E+02  0.48787243581E+01  0.42131371469E+02  0.41800000000E+01 0.  1.
        -11    1    1    2    0    0 -0.33111684051E+02  0.16687295554E+02 -0.19752445205E+03  0.20097452230E+03  0.00000000000E+00 0. -1.
         11    1    1    2    0    0  0.14660356367E+02  0.16287833770E+02 -0.26117548032E+01  0.22069001810E+02  0.00000000000E+00 0.  1.
</event>
<event>
 7    1  0.3056346E-009  0.1355016E+03  0.7561462E-02  0.1219513E+00
         -1   -1    0    0    0  501 -0.00000000000E+00  0.00000000000E+00  0.13387811718E+02  0.13387811718E+02  0.00000000000E+00 0.  1.
          1   -1    0    0  501    0  0.00000000000E+00 -0.00000000000E+00 -0.14845395758E+04  0.14845395758E+04  0.00000000000E+00 0. -1.
         25    2    1    2    0    0 -0.53501459463E+02  0.34572234104E+02 -0.84032771095E+03  0.85197181054E+03  0.12509060162E+03 0.  0.
          5    1    3    3  502    0 -0.92515265815E+02  0.22632256524E+02 -0.67150095966E+03  0.67823469733E+03  0.41800000000E+01 0.  1.
         -5    1    3    3    0  502  0.39013806353E+02  0.11939977580E+02 -0.16882675130E+03  0.17373711321E+03  0.41800000000E+01 0.  1.
        -11    1    1    2    0    0 -0.20647943501E+02 -0.54159284008E+02 -0.19488193522E+03  0.20331879965E+03  0.00000000000E+00 0.  1.
         11    1    1    2    0    0  0.74149402964E+02  0.19587049904E+02 -0.43594211792E+03  0.44263677735E+03  0.00000000000E+00 0. -1.
</event>
<event>
 7    1  0.3056346E-009  0.1147407E+03  0.7561462E-02  0.1252034E+00
         -1   -1    0    0    0  501 -0.00000000000E+00  0.00000000000E+00  0.25111336738E+02  0.25111336738E+02  0.00000000000E+00 0.  1.
          1   -1    0    0  501    0  0.00000000000E+00 -0.00000000000E+00 -0.78031320899E+03  0.78031320899E+03  0.00000000000E+00 0. -1.
         25    2    1    2    0    0  0.55095970001E+02 -0.65221308636E+02 -0.34518702219E+03  0.37695095872E+03  0.12509420442E+03 0.  0.
          5    1    3    3  502    0  0.66847033543E+02 -0.42186936857E+02 -0.87719302051E+02  0.11815418692E+03  0.41800000000E+01 0. -1.
         -5    1    3    3    0  502 -0.11751063542E+02 -0.23034371779E+02 -0.25746772014E+03  0.25879677180E+03  0.41800000000E+01 0. -1.
        -11    1    1    2    0    0 -0.36665064221E+02  0.87703564752E+02 -0.30137427258E+03  0.31601059219E+03  0.00000000000E+00 0.  1.
         11    1    1    2    0    0 -0.18430905780E+02 -0.22482256116E+02 -0.10864057748E+03  0.11246299482E+03  0.00000000000E+00 0. -1.
</event>
<event>
 7    1  0.3056346E-009  0.8461504E+02  0.7561462E-02  0.1316442E+00
          2   -1    0    0  501    0  0.00000000000E+00  0.00000000000E+00  0.11640086736E+03  0.11640086736E+03  0.00000000000E+00 0. -1.
         -2   -1    0    0    0  501 -0.00000000000E+00 -0.00000000000E+00 -0.13316404878E+03  0.13316404878E+03  0.00000000000E+00 0.  1.
         25    2    1    2    0    0  0.15707606914E+02 -0.61912064674E+01 -0.59613292571E+02  0.13959323925E+03  0.12508983908E+03 0.  0.
          5    1    3    3  502    0  0.47555681477E+02  0.23468986000E+02  0.13066007535E+02  0.54777085515E+02  0.41800000000E+01 0.  1.
         -5    1    3    3    0  502 -0.31848074563E+02 -0.29660192467E+02 -0.72679300106E+02  0.84816153735E+02  0.41800000000E+01 0.  1.
        -11    1    1    2    0    0 -0.38684474560E+02 -0.14578785741E+02  0.61287078630E+02  0.73926555261E+02  0.00000000000E+00 0. -1.
         11    1    1    2    0    0  0.22976867646E+02  0.20769992208E+02 -0.18436967485E+02  0.36045121628E+02  0.00000000000E+00 0.  1.
</event>
<event>
 7    1  0.3056346E-009  0.1288807E+03  0.7561462E-02  0.1229126E+00
         -1   -1    0    0    0  501 -0.00000000000E+00  0.00000000000E+00  0.61336116111E+02  0.61336116111E+02  0.00000000000E+00 0.  1.
          1   -1    0    0  501    0  0.00000000000E+00 -0.00000000000E+00 -0.66801447697E+03  0.66801447697E+03  0.00000000000E+00 0. -1.
         25    2    1    2    0    0 -0.55610204876E+02 -0.10865933999E+03 -0.52804729754E+03  0.55622067839E+03  0.12509255604E+03 0.  0.
          5    1    3    3  502    0 -0.22855865688E+02 -0.23645100737E+02 -0.17297199909E+02  0.37391802710E+02  0.41800000000E+01 0.  1.
         -5    1    3    3    0  502 -0.32754339188E+02 -0.85014239251E+02 -0.51075009763E+03  0.51882887568E+03  0.41800000000E+01 0.  1.
        -11    1    1    2    0    0  0.60942552462E+02  0.63782945473E+02 -0.70783501391E+01  0.88500632057E+02  0.00000000000E+00 0.  1.
         11    1    1    2    0    0 -0.53323475862E+01  0.44876394516E+02 -0.71552713184E+02  0.84629282636E+02  0.00000000000E+00 0. -1.
</event>
<event>
 7    1  0.3056346E-009  0.1952991E+03  0.7561462E-02  0.1153767E+00
          1   -1    0    0  501    0  0.00000000000E+00  0.00000000000E+00  0.11337284341E+03  0.11337284341E+03  0.00000000000E+00 0. -1.
         -1   -1    0    0    0  501 -0.00000000000E+00 -0.00000000000E+00 -0.42577715756E+03  0.42577715756E+03  0.00000000000E+00 0.  1.
         25    2    1    2    0    0 -0.97658636588E+01  0.17576648967E+03 -0.25248594127E+03  0.33224008086E+03  0.12508033342E+03 0.  0.
          5    1    3    3  502    0 -0.60298188486E+02  0.49630236846E+02 -0.72170758009E+02  0.10641955955E+03  0.41800000000E+01 0. -1.
         -5    1    3    3    0  502  0.50532324827E+02  0.12613625282E+03 -0.18031518326E+03  0.22582052130E+03  0.41800000000E+01 0. -1.
        -11    1    1    2    0    0  0.36309401635E+00 -0.11079927494E+03 -0.81790149900E+02  0.13771797190E+03  0.00000000000E+00 0.  1.
         11    1    1    2    0    0  0.94027696425E+01 -0.64967214734E+02  0.21871777012E+02  0.69191948209E+02  0.00000000000E+00 0. -1.
</event>
<event>
 7    1  0.3056346E-009  0.7150538E+02  0.7561462E-02  0.1355047E+00
          1   -1    0    0  501    0  0.00000000000E+00  0.00000000000E+00  0.12884229125E+03  0.12884229125E+03  0.00000000000E+00 0. -1.
         -1   -1    0    0    0  501 -0.00000000000E+00 -0.00000000000E+00 -0.15128649027E+03  0.15128649027E+03  0.00000000000E+00 0.  1.
         25    2    1    2    0    0 -0.15855112393E+02 -0.17717545100E+02  0.71232783732E+02  0.14589952735E+03  0.12508903473E+03 0.  0.
          5    1    3    3  502    0 -0.66213488168E+01 -0.33618727393E+02  0.10318072777E+03  0.10880163636E+03  0.41800000000E+01 0.  1.
         -5    1    3    3    0  502 -0.92337635759E+01  0.15901182293E+02 -0.31947944036E+02  0.37097890994E+02  0.41800000000E+01 0.  1.
        -11    1    1    2    0    0 -0.29417814559E+02 -0.15718435672E+02 -0.59983644291E+02  0.68633188880E+02  0.00000000000E+00 0.  1.
         11    1    1    2    0    0  0.45272926952E+02  0.33435980771E+02 -0.33693338455E+02  0.65596065287E+02  0.00000000000E+00 0. -1.
</event>
<event>
 7    1  0.3056346E-009  0.1036100E+03  0.7561462E-02  0.1272883E+00
          1   -1    0    0  501    0  0.00000000000E+00  0.00000000000E+00  0.27250301610E+03  0.27250301610E+03  0.00000000000E+00 0. -1.
         -1   -1    0    0    0  501 -0.00000000000E+00 -0.00000000000E+00 -0.42479267055E+02  0.42479267055E+02  0.00000000000E+00 0.  1.
         25    2    1    2    0    0 -0.51437250193E+01 -0.35682461725E+01  0.13966135387E+03  0.18759581697E+03  0.12509079300E+03 0.  0.
          5    1    3    3  502    0  0.41130544031E+02 -0.40842784830E+02  0.10117488822E+03  0.11667769766E+03  0.41800000000E+01 0.  1.
         -5    1    3    3    0  502 -0.46274269050E+02  0.37274538657E+02  0.38486465651E+02  0.70918119311E+02  0.41800000000E+01 0.  1.
        -11    1    1    2    0    0  0.26559363060E+02 -0.35887023070E+02  0.40311739273E+02  0.60152427334E+02  0.00000000000E+00 0.  1.
         11    1    1    2    0    0 -0.21415638041E+02  0.39455269243E+02  0.50050655893E+02  0.67234038842E+02  0.00000000000E+00 0. -1.
</event>
<event>
 7    1  0.3056346E-009  0.1175433E+03  0.7561462E-02  0.1247206E+00
         -3   -1    0    0    0  501 -0.00000000000E+00  0.00000000000E+00  0.14119966923E+03  0.14119966923E+03  0.00000000000E+00 0.  1.
          3   -1    0    0  501    0  0.00000000000E+00 -0.00000000000E+00 -0.12892002428E+03  0.12892002428E+03  0.00000000000E+00 0. -1.
         25    2    1    2    0    0 -0.51477403021E+02 -0.49207139963E+02 -0.30934306554E+02  0.14722858926E+03  0.12509220811E+03 0.  0.
          5    1    3    3  502    0 -0.17749123082E+02 -0.76627321382E+02  0.18865184218E+02  0.80994724075E+02  0.41800000000E+01 0.  1.
         -5    1    3    3    0  502 -0.33728279940E+02  0.27420181420E+02 -0.49799490772E+02  0.66233865189E+02  0.41800000000E+01 0.  1.
        -11    1    1    2    0    0  0.47009676261E+02 -0.14183871180E+02  0.65856602896E+01  0.49542535111E+02  0.00000000000E+00 0. -1.
         11    1    1    2    0    0  0.44677267608E+01  0.63391011143E+02  0.36628291213E+02  0.73348569129E+02  0.00000000000E+00 0.  1.
</event>
<event>
 7    1  0.3056346E-009  0.1022831E+03  0.7561462E-02  0.1275567E+00
         -4   -1    0    0    0  501 -0.00000000000E+00  0.00000000000E+00  0.24827841135E+02  0.24827841135E+02  0.00000000000E+00 0.  1.
          4   -1    0    0  501    0  0.00000000000E+00 -0.00000000000E+00 -0.61777877723E+03  0.61777877723E+03  0.00000000000E+00 0. -1.
         25    2    1    2    0    0  0.20807220616E+01 -0.58511079543E+02 -0.31688236004E+03  0.34567435795E+03  0.12509378804E+03 0.  0.
          5    1    3    3  502    0  0.24940197034E+01 -0.87830037680E+02 -0.13323487672E+03  0.15965381433E+03  0.41800000000E+01 0.  1.
         -5    1    3    3    0  502 -0.41329764185E+00  0.29318958137E+02 -0.18364748332E+03  0.18602054363E+03  0.41800000000E+01 0.  1.
        -11    1    1    2    0    0 -0.19595508996E+02  0.65316444645E+02 -0.26790046368E+03  0.27644326788E+03  0.00000000000E+00 0. -1.
         11    1    1    2    0    0  0.17514786935E+02 -0.68053651025E+01 -0.81681123748E+01  0.20488992540E+02  0.00000000000E+00 0.  1.
</event>
<event>
 7    1  0.3056346E-009  0.1875028E+03  0.7561462E-02  0.1160733E+00
          2   -1    0    0  501    0  0.00000000000E+00  0.00000000000E+00  0.10368684850E+04  0.10368684850E+04  0.00000000000E+00 0. -1.
         -2   -1    0    0    0  501 -0.00000000000E+00 -0.00000000000E+00 -0.45502901149E+02  0.45502901149E+02  0.00000000000E+00 0.  1.
         25    2    1    2    0    0  0.12781648007E+03  0.13313518629E+03  0.59212877420E+03  0.63271343304E+03  0.12509105765E+03 0.  0.
          5    1    3    3  502    0  0.11434234632E+03  0.10624300225E+03  0.57890409537E+03  0.59959083693E+03  0.41800000000E+01 0.  1.
         -5    1    3    3    0  502  0.13474133756E+02  0.26892184042E+02  0.13224678826E+02  0.33122596110E+02  0.41800000000E+01 0.  1.
        -11    1    1    2    0    0 -0.11021166728E+03 -0.91320334366E+02  0.20389635650E+03  0.24911792242E+03  0.00000000000E+00 0.  1.
         11    1    1    2    0    0 -0.17604812794E+02 -0.41814851924E+02  0.19534045310E+03  0.20054003065E+03  0.00000000000E+00 0. -1.
</event>
<event>
 6    1  0.3056346E-009  0.1831609E+03  0.7561462E-02  0.1164779E+00
         -2   -1    0    0    0  501 -0.00000000000E+00  0.00000000000E+00  0.47744928254E+02  0.47744928254E+02  0.00000000000E+00 0.  1.
          2   -1    0    0  501    0  0.00000000000E+00 -0.00000000000E+00 -0.85417453139E+03  0.85417453139E+03  0.00000000000E+00 0. -1.
          5    1    1    2  502    0  0.29352971301E+02  0.55582629574E+02 -0.56937784138E+02  0.84914128960E+02  0.41800000000E+01 0.  1.
         -5    1    1    2    0  502  0.13237841982E+03 -0.77945625751E+01 -0.32136978632E+03  0.34767918143E+03  0.41800000000E+01 0.  1.
        -11    1    1    2    0    0 -0.45384123542E+02 -0.14220001914E+01 -0.36789661185E+02  0.58439882994E+02  0.00000000000E+00 0. -1.
         11    1    1    2    0    0 -0.11634726758E+03 -0.46366066807E+02 -0.39133237149E+03  0.41088626626E+03  0.00000000000E+00 0.  1.
</event>
<event>
 7    1  0.3056346E-009  0.8685202E+02  0.7561462E-02  0.1310659E+00
         -3   -1    0    0    0  501 -0.00000000000E+00  0.00000000000E+00  0.28119212311E+03  0.28119212311E+03  0.00000000000E+00 0.  1.
          3   -1    0    0  501    0  0.00000000000E+00 -0.00000000000E+00 -0.83365418887E+02  0.83365418887E+02  0.00000000000E+00 0. -1.
         25    2    1    2    0    0 -0.95080878467E+01  0.80222214054E+02  0.23816032709E+02  0.15079773796E+03  0.12508695774E+03 0.  0.
          5    1    3    3  502    0  0.40944091602E+01  0.21449852569E+02 -0.50387583329E+02  0.55074870089E+02  0.41800000000E+01 0. -1.
         -5    1    3    3    0  502 -0.13602497007E+02  0.58772361485E+02  0.74203616038E+02  0.95722867866E+02  0.41800000000E+01 0. -1.
        -11    1    1    2    0    0 -0.12102493247E+02 -0.60643097690E+02  0.17393290545E+03  0.18459878450E+03  0.00000000000E+00 0.  1.
         11    1    1    2    0    0  0.21610581094E+02 -0.19579116364E+02  0.77766055414E-01  0.29161019535E+02  0.00000000000E+00 0. -1.
</event>
<event>
 7    1  0.3056346E-009  0.1816550E+03  0.7561462E-02  0.1166211E+00
          1   -1    0    0  501    0  0.00000000000E+00  0.00000000000E+00  0.33222384538E+03  0.33222384538E+03  0.00000000000E+00 0. -1.
         -1   -1    0    0    0  501 -0.00000000000E+00 -0.00000000000E+00 -0.11604677497E+03  0.11604677497E+03  0.00000000000E+00 0.  1.
         25    2    1    2    0    0  0.14754084909E+03  0.67872225098E+02  0.11899203432E+03  0.23702702762E+03  0.12509103286E+03 0.  0.
          5    1    3    3  502    0  0.19818231172E+02 -0.14463091236E+02 -0.19317547725E+02  0.31505290746E+02  0.41800000000E+01 0. -1.
         -5    1    3    3    0  502  0.12772261792E+03  0.82335316334E+02  0.13830958204E+03  0.20552173688E+03  0.41800000000E+01 0. -1.
        -11    1    1    2    0    0 -0.60928667763E+02 -0.78248190827E+02  0.63356851195E+02  0.11768250727E+03  0.00000000000E+00 0.  1.
         11    1    1    2    0    0 -0.86612181328E+02  0.10375965729E+02  0.33828184899E+02  0.93561085461E+02  0.00000000000E+00 0. -1.
</event>
<event>
 7    1  0.3056346E-009  0.1213646E+03  0.7561462E-02  0.1240863E+00
         -1   -1    0    0    0  501 -0.00000000000E+00  0.00000000000E+00  0.37035754902E+02  0.37035754902E+02  0.00000000000E+00 0.  1.
          1   -1    0    0  501    0  0.00000000000E+00 -0.00000000000E+00 -0.43811910457E+03  0.43811910457E+03  0.00000000000E+00 0. -1.
         25    2    1    2    0    0 -0.58709416695E+02 -0.37474946362E+02 -0.21736493479E+03  0.26028265756E+03  0.12509348400E+03 0.  0.
          5    1    3    3  502    0 -0.79431111622E+02  0.19645316021E+02 -0.11574934231E+03  0.14181192679E+03  0.41800000000E+01 0. -1.
         -5    1    3    3    0  502  0.20721694927E+02 -0.57120262383E+02 -0.10161559247E+03  0.11847073077E+03  0.41800000000E+01 0. -1.
        -11    1    1    2    0    0  0.75130497012E+02  0.24700042693E+02 -0.17551132870E+03  0.19250690947E+03  0.00000000000E+00 0. -1.
         11    1    1    2    0    0 -0.16421080317E+02  0.12774903669E+02 -0.82070861848E+01  0.22365292446E+02  0.00000000000E+00 0.  1.
</event>
<event>
 7    1  0.3056346E-009  0.1046957E+03  0.7561462E-02  0.1270720E+00
          3   -1    0    0  501    0  0.00000000000E+00  0.00000000000E+00  0.71331966803E+02  0.71331966803E+02  0.00000000000E+00 0. -1.
         -3   -1    0    0    0  501 -0.00000000000E+00 -0.00000000000E+00 -0.19150264557E+03  0.19150264557E+03  0.00000000000E+00 0.  1.
         25    2    1    2    0    0  0.35395717151E+02 -0.19087277408E+02 -0.43470662112E+02  0.13839427594E+03  0.12508435632E+03 0.  0.
          5    1    3    3  502    0  0.20178524398E+02  0.45073375638E+02 -0.51927437289E+02  0.71782401615E+02  0.41800000000E+01 0. -1.
         -5    1    3    3    0  502  0.15217192753E+02 -0.64160653046E+02  0.84567751771E+01  0.66611874324E+02  0.41800000000E+01 0. -1.
        -11    1    1    2    0    0 -0.18278961704E+02  0.52840415312E+02 -0.62897993540E+02  0.84156922012E+02  0.00000000000E+00 0.  1.
         11    1    1    2    0    0 -0.17116755447E+02 -0.33753137904E+02 -0.13802023117E+02  0.40283414422E+02  0.00000000000E+00 0. -1.
</event>
<event>
 7    1  0.3056346E-009  0.7468023E+02  0.7561462E-02  0.1344864E+00
          1   -1    0    0  501    0  0.00000000000E+00  0.00000000000E+00  0.61785727305E+02  0.61785727305E+02  0.00000000000E+00 0. -1.
         -1   -1    0    0    0  501 -0.00000000000E+00 -0.00000000000E+00 -0.19385865627E+03  0.19385865627E+03  0.00000000000E+00 0.  1.
         25    2    1    2    0    0 -0.15943455772E+02  0.13488893645E+02 -0.83727187916E+02  0.15196607586E+03  0.12508917692E+03 0.  0.
          5    1    3    3  502    0  0.14047124221E+02 -0.15998414006E+02 -0.10318139132E+03  0.10543786258E+03  0.41800000000E+01 0.  1.
         -5    1    3    3    0  502 -0.29990579993E+02  0.29487307650E+02  0.19454203408E+02  0.46528213280E+02  0.41800000000E+01 0.  1.
        -11    1    1    2    0    0 -0.28505827923E+02 -0.26668581281E+02 -0.41222377250E+02  0.56772174868E+02  0.00000000000E+00 0.  1.
         11    1    1    2    0    0  0.44449283695E+02  0.13179687636E+02 -0.71233638024E+01  0.46906132851E+02  0.00000000000E+00 0. -1.
</event>
<event>
 7    1  0.3384134E-009  0.1454719E+03  0.7561462E-02  0.1206150E+00
         -1   -1    0    0    0  501 -0.00000000000E+00  0.00000000000E+00  0.17651055188E+03  0.17651055188E+03  0.00000000000E+00 0.  1.
          1   -1    0    0  501    0  0.00000000000E+00 -0.00000000000E+00 -0.13907344190E+03  0.13907344190E+03  0.00000000000E+00 0. -1.
         25    2    1    2    0    0 -0.90102616990E+02 -0.65337961071E+02  0.26072079591E+01  0.16745718886E+03  0.12509029468E+03 0.  0.
          5    1    3    3  502    0 -0.77559257391E+02 -0.10185229927E+03  0.75403205887E+01  0.12831078718E+03  0.41800000000E+01 0. -1.
         -5    1    3    3    0  502 -0.12543359599E+02  0.36514338197E+02 -0.49331126296E+01  0.39146401676E+02  0.41800000000E+01 0. -1.
        -11    1    1    2    0    0  0.21811041338E+02 -0.85313177181E+01  0.41128840800E+02  0.47329551570E+02  0.00000000000E+00 0.  1.
         11    1    1    2    0    0  0.68291575652E+02  0.73869278789E+02 -0.62989387781E+01  0.10079725335E+03  0.00000000000E+00 0. -1.
</event>
<event>
 7    1  0.3056346E-009  0.8185310E+02  0.7561462E-02  0.1323873E+00
          2   -1    0    0  501    0  0.00000000000E+00  0.00000000000E+00  0.26220202206E+03  0.26220202206E+03  0.00000000000E+00 0.  1.
         -2   -1    0    0    0  501 -0.00000000000E+00 -0.00000000000E+00 -0.54535358413E+02  0.54535358413E+02  0.00000000000E+00 0. -1.
         25    2    1    2    0    0  0.19178222899E+02  0.43797379824E+01  0.18100732712E+03  0.22089428806E+03  0.12507456851E+03 0.  0.
          5    1    3    3  502    0  0.48407192545E+02 -0.26359113838E+02  0.27810171693E+02  0.61878406751E+02  0.41800000000E+01 0.  1.
         -5    1    3    3    0  502 -0.29228969646E+02  0.30738851820E+02  0.15319715543E+03  0.15901588131E+03  0.41800000000E+01 0.  1.
        -11    1    1    2    0    0 -0.40375303030E+02 -0.13720482657E+02  0.48098977305E+02  0.64280077449E+02  0.00000000000E+00 0.  1.
         11    1    1    2    0    0  0.21197080132E+02  0.93407446743E+01 -0.21439640775E+02  0.31563014966E+02  0.00000000000E+00 0. -1.
</event>
<event>
 7    1  0.3056346E-009  0.1003873E+03  0.7561462E-02  0.1279484E+00
         -2   -1    0    0    0  501 -0.00000000000E+00  0.00000000000E+00  0.17754998533E+02  0.17754998533E+02  0.00000000000E+00 0.  1.
          2   -1    0    0  501    0  0.00000000000E+00 -0.00000000000E+00 -0.78336968701E+03  0.78336968701E+03  0.00000000000E+00 0. -1.
         25    2    1    2    0    0 -0.97370314470E+00  0.46353546920E+02 -0.43853132199E+03  0.45837260356E+03  0.12508446713E+03 0.  0.
          5    1    3    3  502    0  0.44802164781E+02 -0.54194259845E+01 -0.69977269301E+02  0.83372026279E+02  0.41800000000E+01 0. -1.
         -5    1    3    3    0  502 -0.45775867925E+02  0.51772972905E+02 -0.36855405268E+03  0.37500057728E+03  0.41800000000E+01 0. -1.
        -11    1    1    2    0    0 -0.32604987297E+02 -0.50593780034E+01 -0.45624744317E+02  0.56305415338E+02  0.00000000000E+00 0.  1.
         11    1    1    2    0    0  0.33578690442E+02 -0.41294168917E+02 -0.28145862218E+03  0.28644666665E+03  0.00000000000E+00 0. -1.
</event>
<event>
 7    1  0.3056346E-009  0.1671121E+03  0.7561462E-02  0.1180893E+00
          1   -1    0    0  501    0  0.00000000000E+00  0.00000000000E+00  0.29714689741E+03  0.29714689741E+03  0.00000000000E+00 0. -1.
         -1   -1    0    0    0  501 -0.00000000000E+00 -0.00000000000E+00 -0.12926632448E+03  0.12926632448E+03  0.00000000000E+00 0.  1.
         25    2    1    2    0    0  0.12813526686E+03 -0.72023276533E+02 -0.50237439996E+01  0.19307704634E+03  0.12509000297E+03 0.  0.
          5    1    3    3  502    0  0.12856061452E+03 -0.19228991432E+02  0.24644245493E+02  0.13237219101E+03  0.41800000000E+01 0.  1.
         -5    1    3    3    0  502 -0.42534765719E+00 -0.52794285101E+02 -0.29667989492E+02  0.60704855329E+02  0.41800000000E+01 0.  1.
        -11    1    1    2    0    0 -0.85997335793E+02  0.28428849688E+02  0.72377873555E+02  0.11594092392E+03  0.00000000000E+00 0.  1.
         11    1    1    2    0    0 -0.42137931072E+02  0.43594426845E+02  0.10052644337E+03  0.11739525163E+03  0.00000000000E+00 0. -1.
</event>
<event>
 7    1  0.3056346E-009  0.2359427E+03  0.7561462E-02  0.1122526E+00
         -1   -1    0    0    0  501 -0.00000000000E+00  0.00000000000E+00  0.74940533885E+02  0.74940533885E+02  0.00000000000E+00 0.  1.
          1   -1    0    0  501    0  0.00000000000E+00 -0.00000000000E+00 -0.85705763269E+03  0.85705763269E+03  0.00000000000E+00 0. -1.
         25    2    1    2    0    0  0.13953312374E+03  0.17972805135E+03 -0.44390260611E+03  0.51426546360E+03  0.12509107992E+03 0.  0.
          5    1    3    3  502    0  0.28296186371E+02  0.49747641295E+02 -0.24613213959E+03  0.25273306970E+03  0.41800000000E+01 0.  1.
         -5    1    3    3    0  502  0.11123693737E+03  0.12998041006E+03 -0.19777046652E+03  0.26153239390E+03  0.41800000000E+01 0.  1.
        -11    1    1    2    0    0 -0.47072450300E+02 -0.13026593679E+03 -0.16707239005E+03  0.21702122795E+03  0.00000000000E+00 0. -1.
         11    1    1    2    0    0 -0.92460673439E+02 -0.49462114562E+02 -0.17114210265E+03  0.20071147503E+03  0.00000000000E+00 0.  1.
</event>
<event>
 7    1  0.3056346E-009  0.1101739E+03  0.7561462E-02  0.1260248E+00
          2   -1    0    0  501    0  0.00000000000E+00  0.00000000000E+00  0.65369068520E+03  0.65369068520E+03  0.00000000000E+00 0. -1.
         -2   -1    0    0    0  501 -0.00000000000E+00 -0.00000000000E+00 -0.28654470825E+02  0.28654470825E+02  0.00000000000E+00 0.  1.
         25    2    1    2    0    0  0.80003363078E+02 -0.42521431032E+02  0.33724272471E+03  0.37092998339E+03  0.12509111484E+03 0.  0.
          5    1    3    3  502    0  0.12355829344E+02  0.15099473853E+02 -0.21531028133E+01  0.20069102649E+02  0.41800000000E+01 0. -1.
         -5    1    3    3    0  502  0.67647533733E+02 -0.57620904885E+02  0.33939582752E+03  0.35086088075E+03  0.41800000000E+01 0. -1.
        -11    1    1    2    0    0 -0.94278908283E+01  0.39698817178E+02  0.16290201690E+03  0.16793435718E+03  0.00000000000E+00 0.  1.
         11    1    1    2    0    0 -0.70575472249E+02  0.28226138538E+01  0.12489147277E+03  0.14348081545E+03  0.00000000000E+00 0. -1.
</event>
<event>
 7    1  0.3056346E-009  0.1316138E+03  0.7561462E-02  0.1225081E+00
         -2   -1    0    0    0  501 -0.00000000000E+00  0.00000000000E+00  0.10571622504E+03  0.10571622504E+03  0.00000000000E+00 0.  1.
          2   -1    0    0  501    0  0.00000000000E+00 -0.00000000000E+00 -0.21751176986E+03  0.21751176986E+03  0.00000000000E+00 0. -1.
         25    2    1    2    0    0  0.10086759396E+03 -0.24201601749E+02 -0.40332932034E+02  0.16742979406E+03  0.12508397776E+03 0.  0.
          5    1    3    3  502    0  0.11010244559E+03 -0.35214957676E+02 -0.69286507856E+02  0.13483595344E+03  0.41800000000E+01 0.  1.
         -5    1    3    3    0  502 -0.92348516250E+01  0.11013355927E+02  0.28953575822E+02  0.32593840617E+02  0.41800000000E+01 0.  1.
        -11    1    1    2    0    0 -0.11228698933E+03  0.34230577267E+02 -0.76112940152E+02  0.13990453906E+03  0.00000000000E+00 0. -1.
         11    1    1    2    0    0  0.11419395363E+02 -0.10028975518E+02  0.46503273640E+01  0.15893661786E+02  0.00000000000E+00 0.  1.
</event>
<event>
 7    1  0.3056346E-009  0.1174402E+03  0.7561462E-02  0.1247381E+00
         -1   -1    0    0    0  501 -0.00000000000E+00  0.00000000000E+00  0.68640886085E+02  0.68640886085E+02  0.00000000000E+00 0. -1.
          1   -1    0    0  501    0  0.00000000000E+00 -0.00000000000E+00 -0.22478685057E+03  0.22478685057E+03  0.00000000000E+00 0.  1.
         25    2    1    2    0    0 -0.43012821620E+02 -0.38703694895E+02 -0.10933711765E+03  0.17592302280E+03  0.12508487451E+03 0.  0.
          5    1    3    3  502    0  0.31487626833E+02 -0.41704874846E+02 -0.80090775767E+02  0.95722369342E+02  0.41800000000E+01 0.  1.
         -5    1    3    3    0  502 -0.74500448454E+02  0.30011799502E+01 -0.29246341888E+02  0.80200653456E+02  0.41800000000E+01 0.  1.
        -11    1    1    2    0    0  0.34196081043E+02 -0.25698481999E+02 -0.18621863602E+02  0.46653593000E+02  0.00000000000E+00 0.  1.
         11    1    1    2    0    0  0.88167405775E+01  0.64402176895E+02 -0.28186983226E+02  0.70851120856E+02  0.00000000000E+00 0. -1.
</event>
<event>
 7    1  0.3056346E-009  0.8876929E+02  0.7561462E-02  0.1305860E+00
         -1   -1    0    0    0  501 -0.00000000000E+00  0.00000000000E+00  0.22575516391E+03  0.22575516391E+03  0.00000000000E+00 0.  1.
          1   -1    0    0  501    0  0.00000000000E+00 -0.00000000000E+00 -0.54554779750E+02  0.54554779750E+02  0.00000000000E+00 0. -1.
         25    2    1    2    0    0  0.14273086660E+02 -0.20036285648E+02  0.11258407085E+03  0.17008107974E+03  0.12508887613E+03 0.  0.
          5    1    3    3  502    0 -0.76680466937E+01 -0.50295596204E+02  0.12118688951E+03  0.13149973584E+03  0.41800000000E+01 0.  1.
         -5    1    3    3    0  502  0.21941133353E+02  0.30259310555E+02 -0.86028186607E+01  0.38581343899E+02  0.41800000000E+01 0.  1.
        -11    1    1    2    0    0 -0.46544809953E+02 -0.66328491489E+01  0.47674582881E+02  0.66957298888E+02  0.00000000000E+00 0.  1.
         11    1    1    2    0    0  0.32271723294E+02  0.26669134797E+02  0.10941730426E+02  0.43271565027E+02  0.00000000000E+00 0. -1.
</event>
<event>
 7    1  0.3056346E-009  0.8156185E+02  0.7561462E-02  0.1324677E+00
         -1   -1    0    0    0  501 -0.00000000000E+00  0.00000000000E+00  0.37591162399E+02  0.37591162399E+02  0.00000000000E+00 0.  1.
          1   -1    0    0  501    0  0.00000000000E+00 -0.00000000000E+00 -0.32642591764E+03  0.32642591764E+03  0.00000000000E+00 0. -1.
         25    2    1    2    0    0  0.26225104474E+02 -0.52285093546E+01 -0.17089715430E+03  0.21346467430E+03  0.12508491680E+03 0.  0.
          5    1    3    3  502    0 -0.24751750333E+02  0.37750441623E+02 -0.22262301989E+02  0.50505717272E+02  0.41800000000E+01 0.  1.
         -5    1    3    3    0  502  0.50976854808E+02 -0.42978950977E+02 -0.14863485231E+03  0.16295895703E+03  0.41800000000E+01 0.  1.
        -11    1    1    2    0    0  0.90272741568E+00  0.20048789713E+02  0.74525084496E+01  0.21408147233E+02  0.00000000000E+00 0.  1.
         11    1    1    2    0    0 -0.27127831890E+02 -0.14820280359E+02 -0.12539010939E+03  0.12914425851E+03  0.00000000000E+00 0. -1.
</event>
<event>
 7    1  0.3056346E-009  0.1607281E+03  0.7561462E-02  0.1187877E+00
          2   -1    0    0  501    0  0.00000000000E+00  0.00000000000E+00  0.31497941851E+03  0.31497941851E+03  0.00000000000E+00 0.  1.
         -2   -1    0    0    0  501 -0.00000000000E+00 -0.00000000000E+00 -0.10587254304E+03  0.10587254304E+03  0.00000000000E+00 0. -1.
         25    2    1    2    0    0  0.11645768860E+03 -0.69132721980E+02  0.17369117831E+03  0.25329457690E+03  0.12509112990E+03 0.  0.
          5    1    3    3  502    0  0.58205270034E+02 -0.91566251712E+02  0.15257042924E+03  0.18726302409E+03  0.41800000000E+01 0.  1.
         -5    1    3    3    0  502  0.58252418566E+02  0.22433529733E+02  0.21120749070E+02  0.66031552809E+02  0.41800000000E+01 0.  1.
        -11    1    1    2    0    0 -0.40161933241E+02 -0.89464905891E+01 -0.19297728187E+02  0.45446923864E+02  0.00000000000E+00 0. -1.
         11    1    1    2    0    0 -0.76295755358E+02  0.78079212569E+02  0.54713425342E+02  0.12211046079E+03  0.00000000000E+00 0.  1.
</event>
<event>
 7    1  0.3056346E-009  0.2381026E+03  0.7561462E-02  0.1121063E+00
          2   -1    0    0  501    0  0.00000000000E+00  0.00000000000E+00  0.27701896433E+03  0.27701896433E+03  0.00000000000E+00 0. -1.
         -2   -1    0    0    0  501 -0.00000000000E+00 -0.00000000000E+00 -0.22269419728E+03  0.22269419728E+03  0.00000000000E+00 0.  1.
         25    2    1    2    0    0 -0.22091771574E+03 -0.24408120956E+02  0.85970462888E+01  0.25518276374E+03  0.12507573790E+03 0.  0.
          5    1    3    3  502    0 -0.23015501870E+03 -0.41239436654E+02  0.15462896931E+02  0.23436850759E+03  0.41800000000E+01 0.  1.
         -5    1    3    3    0  502  0.92373029622E+01  0.16831315698E+02 -0.68658506421E+01  0.20814256153E+02  0.41800000000E+01 0.  1.
        -11    1    1    2    0    0  0.10589460590E+02  0.42341765297E+01  0.30646015230E+02  0.32699284028E+02  0.00000000000E+00 0. -1.
         11    1    1    2    0    0  0.21032825515E+03  0.20173944426E+02  0.15081705536E+02  0.21183111384E+03  0.00000000000E+00 0.  1.
</event>
<event>
 7    1  0.3056346E-009  0.1947779E+03  0.7561462E-02  0.1154221E+00
          2   -1    0    0  501    0  0.00000000000E+00  0.00000000000E+00  0.88742935136E+03  0.88742935136E+03  0.00000000000E+00 0. -1.
         -2   -1    0    0    0  501 -0.00000000000E+00 -0.00000000000E+00 -0.51742287176E+02  0.51742287176E+02  0.00000000000E+00 0.  1.
         25    2    1    2    0    0  0.45801989720E+02  0.16790046591E+03  0.30056031591E+03  0.36916523678E+03  0.12513224935E+03 0.  0.
          5    1    3    3  502    0  0.56702987810E+02  0.31185090800E+02  0.16044235023E+03  0.17305189644E+03  0.41800000000E+01 0.  1.
         -5    1    3    3    0  502 -0.10900998090E+02  0.13671537511E+03  0.14011796568E+03  0.19611334033E+03  0.41800000000E+01 0.  1.
        -11    1    1    2    0    0 -0.50383925251E+02 -0.55334449396E+02  0.13537552420E+03  0.15468346313E+03  0.00000000000E+00 0.  1.
         11    1    1    2    0    0  0.45819355307E+01 -0.11256601651E+03  0.39975122407E+03  0.41532293863E+03  0.00000000000E+00 0. -1.
</event>
<event>
 7    1  0.3056346E-009  0.1240637E+03  0.7561462E-02  0.1236540E+00
          2   -1    0    0  501    0  0.00000000000E+00  0.00000000000E+00  0.52287570832E+03  0.52287570832E+03  0.00000000000E+00 0. -1.
         -2   -1    0    0    0  501 -0.00000000000E+00 -0.00000000000E+00 -0.43519202819E+02  0.43519202819E+02  0.00000000000E+00 0.  1.
         25    2    1    2    0    0  0.71261718666E+02  0.89693330813E+01  0.11498113198E+03  0.18446228537E+03  0.12508793918E+03 0.  0.
          5    1    3    3  502    0  0.85375552272E+02 -0.34298796072E+02  0.10095346832E+03  0.13665455537E+03  0.41800000000E+01 0.  1.
         -5    1    3    3    0  502 -0.14113833607E+02  0.43268129154E+02  0.14027663656E+02  0.47807729994E+02  0.41800000000E+01 0.  1.
        -11    1    1    2    0    0 -0.89158142135E+02 -0.16901409434E+02  0.25146198262E+03  0.26733492225E+03  0.00000000000E+00 0. -1.
         11    1    1    2    0    0  0.17896423469E+02  0.79320763522E+01  0.11291339090E+03  0.11459770353E+03  0.00000000000E+00 0.  1.
</event>
<event>
 7    1  0.3056346E-009  0.1249136E+03  0.7561462E-02  0.1235204E+00
          2   -1    0    0  501    0  0.00000000000E+00  0.00000000000E+00  0.44374697868E+03  0.44374697868E+03  0.00000000000E+00 0.  1.
         -2   -1    0    0    0  501 -0.00000000000E+00 -0.00000000000E+00 -0.60336730901E+02  0.60336730901E+02  0.00000000000E+00 0. -1.
         25    2    1    2    0    0  0.11069887245E+03 -0.36076225681E+02  0.14955033319E+03  0.22708671653E+03  0.12508932906E+03 0.  0.
          5    1    3    3  502    0  0.43634204031E+02  0.13917640821E+02 -0.98403768323E+01  0.47031371484E+02  0.41800000000E+01 0.  1.
         -5    1    3    3    0  502  0.67064668419E+02 -0.49993866502E+02  0.15939071002E+03  0.18005534504E+03  0.41800000000E+01 0.  1.
        -11    1    1    2    0    0 -0.80562040907E+02  0.39552064130E+02  0.22940417857E+03  0.24633490487E+03  0.00000000000E+00 0.  1.
         11    1    1    2    0    0 -0.30136831544E+02 -0.34758384494E+01  0.44557360239E+01  0.30662088186E+02  0.00000000000E+00 0. -1.
</event>
<event>
 7    1  0.3056346E-009  0.1207401E+03  0.7561462E-02  0.1241881E+00
         -2   -1    0    0    0  501 -0.00000000000E+00  0.00000000000E+00  0.95407766720E+01  0.95407766720E+01  0.00000000000E+00 0.  1.
          2   -1    0    0  501    0  0.00000000000E+00 -0.00000000000E+00 -0.22911415169E+04  0.22911415169E+04  0.00000000000E+00 0. -1.
         25    2    1    2    0    0 -0.40733805000E+02 -0.67986753576E+02 -0.17340392148E+04  0.17403507386E+04  0.12508898271E+03 0.  0.
          5    1    3    3  502    0 -0.66317908271E+02 -0.70178210711E+02 -0.16380455780E+04  0.16408942179E+04  0.41800000000E+01 0. -1.
         -5    1    3    3    0  502  0.25584103270E+02  0.21914571346E+01 -0.95993636757E+02  0.99456520763E+02  0.41800000000E+01 0. -1.
        -11    1    1    2    0    0  0.69087862506E+02  0.48627573853E+02 -0.40081705364E+03  0.40962432078E+03  0.00000000000E+00 0. -1.
         11    1    1    2    0    0 -0.28354057505E+02  0.19359179724E+02 -0.14674447179E+03  0.15070723412E+03  0.00000000000E+00 0.  1.
</event>
<event>
 7    1  0.3056346E-009  0.1469324E+03  0.7561462E-02  0.1204294E+00
          2   -1    0    0  501    0  0.00000000000E+00  0.00000000000E+00  0.88676049441E+03  0.88676049441E+03  0.00000000000E+00 0. -1.
         -2   -1    0    0    0  501 -0.00000000000E+00 -0.00000000000E+00 -0.40467388538E+02  0.40467388538E+02  0.00000000000E+00 0.  1.
         25    2    1    2    0    0  0.22431317347E+02 -0.13009177662E+03  0.60786314596E+03  0.63448596952E+03  0.12509119461E+03 0.  0.
          5    1    3    3  502    0  0.22338663719E+00 -0.12856813310E+03  0.59435155845E+03  0.60811270517E+03  0.41800000000E+01 0.  1.
         -5    1    3    3    0  502  0.22207930710E+02 -0.15236435234E+01  0.13511587503E+02  0.26373264357E+02  0.41800000000E+01 0.  1.
        -11    1    1    2    0    0  0.16884424776E+02  0.23255393870E+02  0.13791323777E+03  0.14087568383E+03  0.00000000000E+00 0. -1.
         11    1    1    2    0    0 -0.39315742123E+02  0.10683638275E+03  0.10051672214E+03  0.15186622958E+03  0.00000000000E+00 0.  1.
</event>
<event>
 7    1  0.3056346E-009  0.1458155E+03  0.7561462E-02  0.1205711E+00
         -4   -1    0    0    0  501 -0.00000000000E+00  0.00000000000E+00  0.15246852845E+04  0.15246852845E+04  0.00000000000E+00 0.  1.
          4   -1    0    0  501    0  0.00000000000E+00 -0.00000000000E+00 -0.18913168676E+02  0.18913168676E+02  0.00000000000E+00 0. -1.
         25    2    1    2    0    0  0.11377951600E+03 -0.39377735637E+02  0.10277583242E+04  0.10423200506E+04  0.12509008988E+03 0.  0.
          5    1    3    3  502    0 -0.23754380956E+02 -0.11028734653E+01  0.28038309698E+03  0.28142075335E+03  0.41800000000E+01 0.  1.
         -5    1    3    3    0  502  0.13753389695E+03 -0.38274862172E+02  0.74737522725E+03  0.76089929727E+03  0.41800000000E+01 0.  1.
        -11    1    1    2    0    0 -0.54775426427E+02  0.19878222233E+01  0.78732455846E+02  0.95932780535E+02  0.00000000000E+00 0. -1.
         11    1    1    2    0    0 -0.59004089571E+02  0.37389913414E+02  0.39928133573E+03  0.40534562199E+03  0.00000000000E+00 0.  1.
</event>
<event>
 7    1  0.3056346E-009  0.1711606E+03  0.7561462E-02  0.1176643E+00
          2   -1    0    0  501    0  0.00000000000E+00  0.00000000000E+00  0.61972022681E+02  0.61972022681E+02  0.00000000000E+00 0. -1.
         -2   -1    0    0    0  501 -0.00000000000E+00 -0.00000000000E+00 -0.73222143267E+03  0.73222143267E+03  0.00000000000E+00 0.  1.
         25    2    1    2    0    0 -0.13797970161E+03  0.88059383401E+02 -0.19416913244E+03  0.28309073376E+03  0.12508340612E+03 0.  0.
          5    1    3    3  502    0 -0.80046644234E+02  0.76826305785E+02 -0.19446712838E+03  0.22393008492E+03  0.41800000000E+01 0. -1.
         -5    1    3    3    0  502 -0.57933057377E+02  0.11233077616E+02  0.29799593555E+00  0.59160648841E+02  0.41800000000E+01 0. -1.
        -11    1    1    2    0    0  0.50131957852E+02 -0.63525517273E+02 -0.12936444926E+03  0.15259051502E+03  0.00000000000E+00 0. -1.
         11    1    1    2    0    0  0.87847743759E+02 -0.24533866128E+02 -0.34671582828E+03  0.35851220656E+03  0.00000000000E+00 0.  1.
</event>
<event>
 7    1  0.3056346E-009  0.1610114E+03  0.7561462E-02  0.1187560E+00
         -3   -1    0    0    0  501 -0.00000000000E+00  0.00000000000E+00  0.63799435428E+02  0.63799435428E+02  0.00000000000E+00 0.  1.
          3   -1    0    0  501    0  0.00000000000E+00 -0.00000000000E+00 -0.52430971551E+03  0.52430971551E+03  0.00000000000E+00 0. -1.
         25    2    1    2    0    0  0.11961215196E+03  0.81609037695E+02 -0.20577146521E+03  0.28099093535E+03  0.12508760100E+03 0.  0.
          5    1    3    3  502    0  0.62834295281E+02  0.78011267434E+02 -0.19991543833E+03  0.22364606277E+03  0.41800000000E+01 0.  1.
         -5    1    3    3    0  502  0.56777856679E+02  0.35977702611E+01 -0.58560268753E+01  0.57344872576E+02  0.41800000000E+01 0.  1.
        -11    1    1    2    0    0 -0.52590119664E+02 -0.82332513326E+02 -0.10702723799E+03  0.14491098339E+03  0.00000000000E+00 0.  1.
         11    1    1    2    0    0 -0.67022032297E+02  0.72347563100E+00 -0.14771157689E+03  0.16220723220E+03  0.00000000000E+00 0. -1.
</event>
<event>
 7    1  0.3056346E-009  0.1978321E+03  0.7561462E-02  0.1151581E+00
         -1   -1    0    0    0  501 -0.00000000000E+00  0.00000000000E+00  0.92683970359E+02  0.92683970359E+02  0.00000000000E+00 0.  1.
          1   -1    0    0  501    0  0.00000000000E+00 -0.00000000000E+00 -0.78896192453E+03  0.78896192453E+03  0.00000000000E+00 0. -1.
         25    2    1    2    0    0  0.17947479350E+03 -0.38685188576E+02 -0.62678183240E+03  0.66498906151E+03  0.12508893313E+03 0.  0.
          5    1    3    3  502    0  0.38265599927E+02  0.13676626000E+02 -0.32634180157E+03  0.32888865911E+03  0.41800000000E+01 0.  1.
         -5    1    3    3    0  502  0.14120919357E+03 -0.52361814576E+02 -0.30044003083E+03  0.33610040241E+03  0.41800000000E+01 0.  1.
        -11    1    1    2    0    0 -0.16245392648E+03  0.63193286670E+02 -0.66885938520E+02  0.18670403981E+03  0.00000000000E+00 0.  1.
         11    1    1    2    0    0 -0.17020867019E+02 -0.24508098094E+02 -0.26101832575E+01  0.29952793574E+02  0.00000000000E+00 0. -1.
</event>
<event>
 7    1  0.3056346E-009  0.1545765E+03  0.7561462E-02  0.1194960E+00
         -2   -1    0    0    0  501 -0.00000000000E+00  0.00000000000E+00  0.12304589794E+03  0.12304589794E+03  0.00000000000E+00 0.  1.
          2   -1    0    0  501    0  0.00000000000E+00 -0.00000000000E+00 -0.25008297211E+03  0.25008297211E+03  0.00000000000E+00 0. -1.
         25    2    1    2    0    0  0.62503219728E+02 -0.96015405998E+02 -0.14772286453E+03  0.22490958510E+03  0.12504665569E+03 0.  0.
          5    1    3    3  502    0  0.10382078222E+02 -0.10823229874E+03 -0.66435340675E+02  0.12748782267E+03  0.41800000000E+01 0.  1.
         -5    1    3    3    0  502  0.52121141506E+02  0.12216892744E+02 -0.81287523857E+02  0.97421762430E+02  0.41800000000E+01 0.  1.
        -11    1    1    2    0    0 -0.85608750982E+02  0.86370872028E+02  0.14868337559E+02  0.12251470622E+03  0.00000000000E+00 0.  1.
         11    1    1    2    0    0  0.23105531254E+02  0.96445339702E+01  0.58174528062E+01  0.25704578720E+02  0.00000000000E+00 0. -1.
</event>
<event>
 7    1  0.3056346E-009  0.1571581E+03  0.7561462E-02  0.1191943E+00
         -1   -1    0    0    0  501 -0.00000000000E+00  0.00000000000E+00  0.28914883599E+02  0.28914883599E+02  0.00000000000E+00 0.  1.
          1   -1    0    0  501    0  0.00000000000E+00 -0.00000000000E+00 -0.10078605730E+04  0.10078605730E+04  0.00000000000E+00 0. -1.
         25    2    1    2    0    0  0.10604475256E+03 -0.61592384338E+02 -0.67965551769E+03  0.70186780406E+03  0.12509068833E+03 0.  0.
          5    1    3    3  502    0  0.13328604184E+03 -0.46437864544E+02 -0.59589469398E+03  0.61239660590E+03  0.41800000000E+01 0. -1.
         -5    1    3    3    0  502 -0.27241289281E+02 -0.15154519794E+02 -0.83760823709E+02  0.89471198161E+02  0.41800000000E+01 0. -1.
        -11    1    1    2    0    0 -0.61129550158E+01  0.38645351733E+02 -0.39416223429E+02  0.55538005896E+02  0.00000000000E+00 0.  1.
         11    1    1    2    0    0 -0.99931797543E+02  0.22947032605E+02 -0.25987394832E+03  0.27936964667E+03  0.00000000000E+00 0. -1.
</event>
<event>
 7    1  0.3056346E-009  0.1608988E+03  0.7561462E-02  0.1187686E+00
          4   -1    0    0  501    0  0.00000000000E+00  0.00000000000E+00  0.23864742190E+04  0.23864742190E+04  0.00000000000E+00 0.  1.
         -4   -1    0    0    0  501 -0.00000000000E+00 -0.00000000000E+00 -0.16252603391E+02  0.16252603391E+02  0.00000000000E+00 0. -1.
         25    2    1    2    0    0 -0.59893826136E+02 -0.12128116998E+03  0.18027215364E+04  0.18121115416E+04  0.12508760506E+03 0.  0.
          5    1    3    3  502    0  0.25948604380E+02 -0.87612206353E+02  0.83305521132E+03  0.83806186303E+03  0.41800000000E+01 0. -1.
         -5    1    3    3    0  502 -0.85842430516E+02 -0.33668963629E+02  0.96966632505E+03  0.97404967857E+03  0.41800000000E+01 0. -1.
        -11    1    1    2    0    0  0.44918655946E+02  0.11131356065E+03  0.55699748892E+03  0.56978469364E+03  0.00000000000E+00 0.  1.
         11    1    1    2    0    0  0.14975170189E+02  0.99676093311E+01  0.10502590343E+02  0.20830587171E+02  0.00000000000E+00 0. -1.
</event>
<event>
 7    1  0.3056346E-009  0.9967630E+02  0.7561462E-02  0.1280978E+00
         -1   -1    0    0    0  501 -0.00000000000E+00  0.00000000000E+00  0.24593492940E+02  0.24593492940E+02  0.00000000000E+00 0. -1.
          1   -1    0    0  501    0  0.00000000000E+00 -0.00000000000E+00 -0.49112789428E+03  0.49112789428E+03  0.00000000000E+00 0.  1.
         25    2    1    2    0    0  0.37419525800E+01  0.29293856081E+01 -0.22718249365E+03  0.25938684290E+03  0.12508823021E+03 0.  0.
          5    1    3    3  502    0  0.31696772469E+02 -0.50765629937E+02 -0.14746700076E+03  0.15920371629E+03  0.41800000000E+01 0.  1.
         -5    1    3    3    0  502 -0.27954819889E+02  0.53695015545E+02 -0.79715492892E+02  0.10018312661E+03  0.41800000000E+01 0.  1.
        -11    1    1    2    0    0  0.27721489065E+02 -0.27279398293E+02 -0.18460879301E+03  0.18866121218E+03  0.00000000000E+00 0.  1.
         11    1    1    2    0    0 -0.31463441644E+02  0.24350012685E+02 -0.54743114687E+02  0.67673332144E+02  0.00000000000E+00 0. -1.
</event>
<event>
 7    1  0.3056346E-009  0.1125227E+03  0.7561462E-02  0.1255968E+00
          2   -1    0    0  501    0  0.00000000000E+00  0.00000000000E+00  0.40864254355E+03  0.40864254355E+03  0.00000000000E+00 0. -1.
         -2   -1    0    0    0  501 -0.00000000000E+00 -0.00000000000E+00 -0.49004593470E+02  0.49004593470E+02  0.00000000000E+00 0.  1.
         25    2    1    2    0    0  0.54635999843E+02  0.39894444142E+02  0.28286717396E+03  0.31660496204E+03  0.12509278449E+03 0.  0.
          5    1    3    3  502    0 -0.31202537489E+02  0.46272039862E+02  0.10649008780E+03  0.12030091944E+03  0.41800000000E+01 0. -1.
         -5    1    3    3    0  502  0.85838537333E+02 -0.63775957197E+01  0.17637708616E+03  0.19630404260E+03  0.41800000000E+01 0. -1.
        -11    1    1    2    0    0 -0.32471808392E+02  0.49817989638E+01  0.84256267126E+02  0.90434259057E+02  0.00000000000E+00 0. -1.
         11    1    1    2    0    0 -0.22164191451E+02 -0.44876243106E+02 -0.74854910090E+01  0.50607915919E+02  0.00000000000E+00 0.  1.
</event>
<event>
 7    1  0.3056346E-009  0.1378676E+03  0.7561462E-02  0.1216227E+00
          3   -1    0    0  501    0  0.00000000000E+00  0.00000000000E+00  0.72940729502E+03  0.72940729502E+03  0.00000000000E+00 0. -1.
         -3   -1    0    0    0  501 -0.00000000000E+00 -0.00000000000E+00 -0.71206099209E+02  0.71206099209E+02  0.00000000000E+00 0.  1.
         25    2    1    2    0    0 -0.11056597101E+03  0.77835119692E+01  0.63394935351E+03  0.65561051970E+03  0.12509178119E+03 0.  0.
          5    1    3    3  502    0 -0.13668098338E+03 -0.17598478363E+01  0.56105544240E+03  0.57748200849E+03  0.41800000000E+01 0.  1.
         -5    1    3    3    0  502  0.26115012366E+02  0.95433598055E+01  0.72893911116E+02  0.78128511217E+02  0.41800000000E+01 0.  1.
        -11    1    1    2    0    0  0.75956530144E+02 -0.63932507527E+01  0.58657388445E+02  0.96181897183E+02  0.00000000000E+00 0. -1.
         11    1    1    2    0    0  0.34609440871E+02 -0.13902612165E+01 -0.34405546142E+02  0.48820977346E+02  0.00000000000E+00 0.  1.
</event>
<event>
 7    1  0.3056346E-009  0.3247402E+03  0.7561462E-02  0.1073488E+00
         -2   -1    0    0    0  501 -0.00000000000E+00  0.00000000000E+00  0.38587925186E+03  0.38587925186E+03  0.00000000000E+00 0.  1.
          2   -1    0    0  501    0  0.00000000000E+00 -0.00000000000E+00 -0.40659255335E+03  0.40659255335E+03  0.00000000000E+00 0. -1.
         25    2    1    2    0    0 -0.20926174664E+03  0.23320501572E+03 -0.22830975478E+03  0.40736682994E+03  0.12508929626E+03 0.  0.
          5    1    3    3  502    0 -0.10493989114E+03  0.19919393693E+03 -0.17563982231E+03  0.28558260599E+03  0.41800000000E+01 0. -1.
         -5    1    3    3    0  502 -0.10432185550E+03  0.34011078790E+02 -0.52669932470E+02  0.12178422395E+03  0.41800000000E+01 0. -1.
        -11    1    1    2    0    0  0.58238512296E+02 -0.83820871600E+02  0.11388461133E+03  0.15292928931E+03  0.00000000000E+00 0.  1.
         11    1    1    2    0    0  0.15102323435E+03 -0.14938414412E+03  0.93711841960E+02  0.23217568596E+03  0.00000000000E+00 0. -1.
</event>
<event>
 7    1  0.3056346E-009  0.1294372E+03  0.7561462E-02  0.1228293E+00
         -1   -1    0    0    0  501 -0.00000000000E+00  0.00000000000E+00  0.20848189814E+03  0.20848189814E+03  0.00000000000E+00 0.  1.
          1   -1    0    0  501    0  0.00000000000E+00 -0.00000000000E+00 -0.11836503609E+03  0.11836503609E+03  0.00000000000E+00 0. -1.
         25    2    1    2    0    0 -0.41629450223E+02 -0.84221660866E+02 -0.16651006329E+02  0.15732668289E+03  0.12509248520E+03 0.  0.
          5    1    3    3  502    0 -0.26353264399E+02 -0.11348740876E+03  0.65416968987E+01  0.11676537453E+03  0.41800000000E+01 0. -1.
         -5    1    3    3    0  502 -0.15276185824E+02  0.29265747893E+02 -0.23192703228E+02  0.40561308362E+02  0.41800000000E+01 0. -1.
        -11    1    1    2    0    0  0.52287133486E+02  0.47025510523E+02  0.17857042383E+02  0.72554923546E+02  0.00000000000E+00 0. -1.
         11    1    1    2    0    0 -0.10657683263E+02  0.37196150344E+02  0.88910825999E+02  0.96965327786E+02  0.00000000000E+00 0.  1.
</event>
<event>
 7    1  0.3056346E-009  0.1060093E+03  0.7561462E-02  0.1268144E+00
         -1   -1    0    0    0  501 -0.00000000000E+00  0.00000000000E+00  0.62433338701E+02  0.62433338701E+02  0.00000000000E+00 0.  1.
          1   -1    0    0  501    0  0.00000000000E+00 -0.00000000000E+00 -0.31150079354E+03  0.31150079354E+03  0.00000000000E+00 0. -1.
         25    2    1    2    0    0  0.18745667713E+02  0.79138233221E+02 -0.18098678457E+03  0.23455944663E+03  0.12509059836E+03 0.  0.
          5    1    3    3  502    0  0.49708300995E+02  0.40587881279E+02 -0.21936552553E+02  0.67948333552E+02  0.41800000000E+01 0.  1.
         -5    1    3    3    0  502 -0.30962633283E+02  0.38550351942E+02 -0.15905023202E+03  0.16661111308E+03  0.41800000000E+01 0.  1.
        -11    1    1    2    0    0  0.92346401197E+01 -0.66922351586E+02 -0.31565103489E+01  0.67630195013E+02  0.00000000000E+00 0.  1.
         11    1    1    2    0    0 -0.27980307833E+02 -0.12215881636E+02 -0.64924159920E+02  0.71744490603E+02  0.00000000000E+00 0. -1.
</event>
<event>
 7    1  0.3056346E-009  0.8680888E+02  0.7561462E-02  0.1310769E+00
         -1   -1    0    0    0  501 -0.00000000000E+00  0.00000000000E+00  0.15839642929E+03  0.15839642929E+03  0.00000000000E+00 0.  1.
          1   -1    0    0  501    0  0.00000000000E+00 -0.00000000000E+00 -0.83486854291E+02  0.83486854291E+02  0.00000000000E+00 0. -1.
         25    2    1    2    0    0 -0.14514689068E+02  0.39276407543E+02  0.46158769476E+02  0.13975463078E+03  0.12508961762E+03 0.  0.
          5    1    3    3  502    0  0.37327718052E+02  0.51596921732E+01 -0.24867753851E+02  0.45341576284E+02  0.41800000000E+01 0. -1.
         -5    1    3    3    0  502 -0.51842407121E+02  0.34116715370E+02  0.71026523327E+02  0.94413054498E+02  0.41800000000E+01 0. -1.
        -11    1    1    2    0    0  0.33033485245E+02 -0.35017060956E+01  0.47283954707E+02  0.57786204804E+02  0.00000000000E+00 0.  1.
         11    1    1    2    0    0 -0.18518796176E+02 -0.35774701447E+02 -0.18533149184E+02  0.44342447994E+02  0.00000000000E+00 0. -1.
</event>
<event>
 7    1  0.3056346E-009  0.9349919E+02  0.7561462E-02  0.1294593E+00
         -2   -1    0    0    0  501 -0.00000000000E+00  0.00000000000E+00  0.50334172609E+02  0.50334172609E+02  0.00000000000E+00 0.  1.
          2   -1    0    0  501    0  0.00000000000E+00 -0.00000000000E+00 -0.29173890044E+03  0.29173890044E+03  0.00000000000E+00 0. -1.
         25    2    1    2    0    0 -0.23069753396E+02 -0.42779777759E+02 -0.17284355469E+03  0.21882579636E+03  0.12509001498E+03 0.  0.
          5    1    3    3  502    0 -0.34852397678E+02  0.32777659965E+02 -0.29658739550E+02  0.56446238567E+02  0.41800000000E+01 0. -1.
         -5    1    3    3    0  502  0.11782644282E+02 -0.75557437724E+02 -0.14318481514E+03  0.16237955779E+03  0.41800000000E+01 0. -1.
        -11    1    1    2    0    0  0.32115832621E+02  0.19893619919E+02 -0.85430966276E+02  0.93411095793E+02  0.00000000000E+00 0. -1.
         11    1    1    2    0    0 -0.90460792249E+01  0.22886157840E+02  0.16869793136E+02  0.29836180896E+02  0.00000000000E+00 0.  1.
</event>
<event>
 7    1  0.3056346E-009  0.1017664E+03  0.7561462E-02  0.1276625E+00
          2   -1    0    0  501    0  0.00000000000E+00  0.00000000000E+00  0.84072539657E+03  0.84072539657E+03  0.00000000000E+00 0. -1.
         -2   -1    0    0    0  501 -0.00000000000E+00 -0.00000000000E+00 -0.24727918900E+02  0.24727918900E+02  0.00000000000E+00 0.  1.
         25    2    1    2    0    0  0.19040868045E+02  0.89190642194E+02  0.52711618052E+03  0.54937811897E+03  0.12508926622E+03 0.  0.
          5    1    3    3  502    0 -0.24707533117E+01  0.89234699654E+02  0.51798536409E+03  0.52563794198E+03  0.41800000000E+01 0.  1.
         -5    1    3    3    0  502  0.21511621356E+02 -0.44057460307E-01  0.91308164328E+01  0.23740176983E+02  0.41800000000E+01 0.  1.
        -11    1    1    2    0    0 -0.56869738258E+00 -0.34906792068E+02  0.18168195609E+02  0.39355951022E+02  0.00000000000E+00 0.  1.
         11    1    1    2    0    0 -0.18472170662E+02 -0.54283850126E+02  0.27071310154E+03  0.27671924548E+03  0.00000000000E+00 0. -1.
</event>
<event>
 7    1  0.3056346E-009  0.9411692E+02  0.7561462E-02  0.1293177E+00
         -2   -1    0    0    0  501 -0.00000000000E+00  0.00000000000E+00  0.32734549169E+03  0.32734549169E+03  0.00000000000E+00 0.  1.
          2   -1    0    0  501    0  0.00000000000E+00 -0.00000000000E+00 -0.70985296193E+02  0.70985296193E+02  0.00000000000E+00 0. -1.
         25    2    1    2    0    0 -0.67637496709E+02  0.16662640921E+02  0.24456131622E+03  0.28338025578E+03  0.12506661191E+03 0.  0.
          5    1    3    3  502    0 -0.73478361538E+02 -0.14259956597E+02  0.59755581845E+02  0.95867710613E+02  0.41800000000E+01 0. -1.
         -5    1    3    3    0  502  0.58408648296E+01  0.30922597518E+02  0.18480573437E+03  0.18751254517E+03  0.41800000000E+01 0. -1.
        -11    1    1    2    0    0  0.34409203486E+02 -0.30064284734E+02 -0.33889473259E+02  0.56888934767E+02  0.00000000000E+00 0. -1.
         11    1    1    2    0    0  0.33228293222E+02  0.13401643814E+02  0.45688352542E+02  0.58061597338E+02  0.00000000000E+00 0.  1.
</event>
<event>
 7    1  0.3056346E-009  0.1177781E+03  0.7561462E-02  0.1246808E+00
         -2   -1    0    0    0  501 -0.00000000000E+00  0.00000000000E+00  0.37523319252E+02  0.37523319252E+02  0.00000000000E+00 0.  1.
          2   -1    0    0  501    0  0.00000000000E+00 -0.00000000000E+00 -0.50953607167E+03  0.50953607167E+03  0.00000000000E+00 0. -1.
         25    2    1    2    0    0 -0.81598918582E+02  0.15671387857E+02 -0.29612831899E+03  0.33203178847E+03  0.12509656805E+03 0.  0.
          5    1    3    3  502    0 -0.97143419529E+02  0.26080564747E+02 -0.12814872185E+03  0.16296198062E+03  0.41800000000E+01 0. -1.
         -5    1    3    3    0  502  0.15544500947E+02 -0.10409176889E+02 -0.16797959714E+03  0.16906980786E+03  0.41800000000E+01 0. -1.
        -11    1    1    2    0    0  0.83599057574E+02  0.15039252009E+02 -0.89804879878E+02  0.12361188445E+03  0.00000000000E+00 0.  1.
         11    1    1    2    0    0 -0.20001389917E+01 -0.30710639866E+02 -0.86079553551E+02  0.91415717995E+02  0.00000000000E+00 0. -1.
</event>
<event>
 7    1  0.3056346E-009  0.1396963E+03  0.7561462E-02  0.1213738E+00
         -1   -1    0    0    0  501 -0.00000000000E+00  0.00000000000E+00  0.87961661530E+03  0.87961661530E+03  0.00000000000E+00 0.  1.
          1   -1    0    0  501    0  0.00000000000E+00 -0.00000000000E+00 -0.31252757031E+02  0.31252757031E+02  0.00000000000E+00 0. -1.
         25    2    1    2    0    0 -0.78604633699E+02 -0.97219738323E+02  0.49110282363E+03  0.52197668405E+03  0.12508920559E+03 0.  0.
          5    1    3    3  502    0 -0.61000569910E+02 -0.27224350920E+02  0.40055133688E+03  0.40610476566E+03  0.41800000000E+01 0. -1.
         -5    1    3    3    0  502 -0.17604063789E+02 -0.69995387403E+02  0.90551486749E+02  0.11587191839E+03  0.41800000000E+01 0. -1.
        -11    1    1    2    0    0  0.72532062080E+02  0.40403869558E+02  0.12762692676E+03  0.15225637964E+03  0.00000000000E+00 0. -1.
         11    1    1    2    0    0  0.60725716187E+01  0.56815868764E+02  0.22963410787E+03  0.23663630864E+03  0.00000000000E+00 0.  1.
</event>
<event>
 7    1  0.3056346E-009  0.8599328E+02  0.7561462E-02  0.1312855E+00
         -2   -1    0    0    0  501 -0.00000000000E+00  0.00000000000E+00  0.80582035867E+02  0.80582035867E+02  0.00000000000E+00 0.  1.
          2   -1    0    0  501    0  0.00000000000E+00 -0.00000000000E+00 -0.17402928876E+03  0.17402928876E+03  0.00000000000E+00 0. -1.
         25    2    1    2    0    0 -0.12191600187E+01 -0.39333700863E+02 -0.25930014318E+02  0.13367332336E+03  0.12509022888E+03 0.  0.
          5    1    3    3  502    0 -0.19015549880E+02 -0.77385065455E+02 -0.39888023288E+02  0.89210796961E+02  0.41800000000E+01 0.  1.
         -5    1    3    3    0  502  0.17796389861E+02  0.38051364592E+02  0.13958008970E+02  0.44462526399E+02  0.41800000000E+01 0.  1.
        -11    1    1    2    0    0 -0.13757711779E+02  0.98980108336E+01 -0.82821351916E+02  0.84537693280E+02  0.00000000000E+00 0. -1.
         11    1    1    2    0    0  0.14976871798E+02  0.29435690029E+02  0.15304113341E+02  0.36400307986E+02  0.00000000000E+00 0.  1.
</event>
<event>
 7    1  0.3056346E-009  0.1068709E+03  0.7561462E-02  0.1266477E+00
          1   -1    0    0  501    0  0.00000000000E+00  0.00000000000E+00  0.15791668604E+03  0.15791668604E+03  0.00000000000E+00 0. -1.
         -1   -1    0    0    0  501 -0.00000000000E+00 -0.00000000000E+00 -0.85480808401E+02  0.85480808401E+02  0.00000000000E+00 0.  1.
         25    2    1    2    0    0 -0.20538898082E+02  0.62353128913E+01  0.57346350784E+01  0.12704567675E+03  0.12508793898E+03 0.  0.
          5    1    3    3  502    0 -0.72564016508E+02 -0.63406116074E+01  0.73901604610E+01  0.73333667022E+02  0.41800000000E+01 0. -1.
         -5    1    3    3    0  502  0.52025118426E+02  0.12575924499E+02 -0.16555253826E+01  0.53712009724E+02  0.41800000000E+01 0. -1.
        -11    1    1    2    0    0  0.34361310641E+02  0.31681236501E+02  0.11783865423E+02  0.48200206426E+02  0.00000000000E+00 0.  1.
         11    1    1    2    0    0 -0.13822412560E+02 -0.37916549392E+02  0.54917377137E+02  0.68151611267E+02  0.00000000000E+00 0. -1.
</event>
<event>
 7    1  0.3056346E-009  0.9502036E+02  0.7561462E-02  0.1291130E+00
          1   -1    0    0  501    0  0.00000000000E+00  0.00000000000E+00  0.42950442615E+03  0.42950442615E+03  0.00000000000E+00 0. -1.
         -1   -1    0    0    0  501 -0.00000000000E+00 -0.00000000000E+00 -0.38631037791E+02  0.38631037791E+02  0.00000000000E+00 0.  1.
         25    2    1    2    0    0 -0.66926147172E+02 -0.38384882684E+01  0.18518574455E+03  0.23331255096E+03  0.12508854177E+03 0.  0.
          5    1    3    3  502    0  0.72299977278E+01 -0.25938824041E+02 -0.52165249399E+01  0.27744909302E+02  0.41800000000E+01 0. -1.
         -5    1    3    3    0  502 -0.74156144900E+02  0.22100335772E+02  0.19040226949E+03  0.20556764165E+03  0.41800000000E+01 0. -1.
        -11    1    1    2    0    0  0.20179003012E+02 -0.23633819594E+02  0.16266265009E+03  0.16560461143E+03  0.00000000000E+00 0. -1.
         11    1    1    2    0    0  0.46747144160E+02  0.27472307863E+02  0.43024993717E+02  0.69218301559E+02  0.00000000000E+00 0.  1.
</event>
<event>
 7    1  0.3056346E-009  0.1091715E+03  0.7561462E-02  0.1262112E+00
          2   -1    0    0  501    0  0.00000000000E+00  0.00000000000E+00  0.71075617871E+03  0.71075617871E+03  0.00000000000E+00 0. -1.
         -2   -1    0    0    0  501 -0.00000000000E+00 -0.00000000000E+00 -0.18422321745E+02  0.18422321745E+02  0.00000000000E+00 0.  1.
         25    2    1    2    0    0  0.19157775182E+02  0.21855956400E+02  0.32557130141E+03  0.34998434216E+03  0.12509062425E+03 0.  0.
          5    1    3    3  502    0  0.43881405216E+02 -0.37968206376E+02  0.20470685112E+03  0.21281336827E+03  0.41800000000E+01 0. -1.
         -5    1    3    3    0  502 -0.24723630034E+02  0.59824162776E+02  0.12086445029E+03  0.13717097389E+03  0.41800000000E+01 0. -1.
        -11    1    1    2    0    0 -0.43838147297E+02  0.18831033987E+02  0.15636509198E+03  0.16348221000E+03  0.00000000000E+00 0.  1.
         11    1    1    2    0    0  0.24680372115E+02 -0.40686990387E+02  0.21039746357E+03  0.21571194829E+03  0.00000000000E+00 0. -1.
</event>
<event>
 7    1  0.3056346E-009  0.4093632E+03  0.7561462E-02  0.1040585E+00
          2   -1    0    0  501    0  0.00000000000E+00  0.00000000000E+00  0.10834581535E+04  0.10834581535E+04  0.00000000000E+00 0. -1.
         -2   -1    0    0    0  501 -0.00000000000E+00 -0.00000000000E+00 -0.23917919019E+03  0.23917919019E+03  0.00000000000E+00 0.  1.
         25    2    1    2    0    0  0.45591643170E+01  0.39548039056E+03  0.33737864049E+02  0.41618361847E+03  0.12508011639E+03 0.  0.
          5    1    3    3  502    0 -0.52290716084E+02  0.28226095021E+03  0.10324246810E+02  0.28727969903E+03  0.41800000000E+01 0. -1.
         -5    1    3    3    0  502  0.56849880401E+02  0.11321944035E+03  0.23413617239E+02  0.12890391944E+03  0.41800000000E+01 0. -1.
        -11    1    1    2    0    0 -0.26433778310E+02 -0.35665221952E+02  0.10963766559E+03  0.11828427794E+03  0.00000000000E+00 0.  1.
         11    1    1    2    0    0  0.21874613993E+02 -0.35981516861E+03  0.70090343366E+03  0.78816944727E+03  0.00000000000E+00 0. -1.
</event>
<event>
 7    1  0.3056346E-009  0.1125086E+03  0.7561462E-02  0.1255994E+00
          1   -1    0    0  501    0  0.00000000000E+00  0.00000000000E+00  0.45605213224E+02  0.45605213224E+02  0.00000000000E+00 0. -1.
         -1   -1    0    0    0  501 -0.00000000000E+00 -0.00000000000E+00 -0.31650964951E+03  0.31650964951E+03  0.00000000000E+00 0.  1.
         25    2    1    2    0    0  0.10958937139E+02 -0.46362244158E+02 -0.12434332075E+03  0.18269801224E+03  0.12509095201E+03 0.  0.
          5    1    3    3  502    0 -0.44905499724E+02  0.12003163704E+02 -0.73763843709E+02  0.87287781980E+02  0.41800000000E+01 0.  1.
         -5    1    3    3    0  502  0.55864436863E+02 -0.58365407861E+02 -0.50579477040E+02  0.95410230261E+02  0.41800000000E+01 0.  1.
        -11    1    1    2    0    0  0.31115530937E+02  0.45799263074E+02 -0.11209762421E+03  0.12502650166E+03  0.00000000000E+00 0.  1.
         11    1    1    2    0    0 -0.42074468076E+02  0.56298108414E+00 -0.34463491326E+02  0.54390348831E+02  0.00000000000E+00 0. -1.
</event>
<event>
 7    1  0.3056346E-009  0.1137090E+03  0.7561462E-02  0.1253852E+00
          2   -1    0    0  501    0  0.00000000000E+00  0.00000000000E+00  0.14163066097E+03  0.14163066097E+03  0.00000000000E+00 0. -1.
         -2   -1    0    0    0  501 -0.00000000000E+00 -0.00000000000E+00 -0.17751192303E+03  0.17751192303E+03  0.00000000000E+00 0.  1.
         25    2    1    2    0    0 -0.63453824526E+02 -0.48970255473E+02  0.64507171429E+02  0.16197416101E+03  0.12509987970E+03 0.  0.
          5    1    3    3  502    0  0.56424423783E+01 -0.72711721626E+02  0.46554601296E+02  0.86623524055E+02  0.41800000000E+01 0. -1.
         -5    1    3    3    0  502 -0.69096266905E+02  0.23741466153E+02  0.17952570133E+02  0.75350636956E+02  0.41800000000E+01 0. -1.
        -11    1    1    2    0    0  0.49256229424E+02  0.30665843135E+02 -0.11567696328E+03  0.12941302062E+03  0.00000000000E+00 0.  1.
         11    1    1    2    0    0  0.14197595103E+02  0.18304412338E+02  0.15288529793E+02  0.27755402374E+02  0.00000000000E+00 0. -1.
</event>
<event>
 7    1  0.3056346E-009  0.1863816E+03  0.7561462E-02  0.1161766E+00
          2   -1    0    0  501    0  0.00000000000E+00  0.00000000000E+00  0.67850007667E+03  0.67850007667E+03  0.00000000000E+00 0. -1.
         -2   -1    0    0    0  501 -0.00000000000E+00 -0.00000000000E+00 -0.61413845910E+02  0.61413845910E+02  0.00000000000E+00 0.  1.
         25    2    1    2    0    0 -0.92361132721E+01 -0.16877795987E+03  0.39022899621E+03  0.44328037583E+03  0.12509003391E+03 0.  0.
          5    1    3    3  502    0  0.25914473807E+02 -0.38153945525E+02  0.22492216750E+03  0.22964045233E+03  0.41800000000E+01 0.  1.
         -5    1    3    3    0  502 -0.35150587079E+02 -0.13062401434E+03  0.16530682871E+03  0.21363992350E+03  0.41800000000E+01 0.  1.
        -11    1    1    2    0    0  0.49421647749E+02  0.96428820987E+02  0.12758479708E+03  0.16738846206E+03  0.00000000000E+00 0.  1.
         11    1    1    2    0    0 -0.40185534477E+02  0.72349138878E+02  0.99272437463E+02  0.12924508469E+03  0.00000000000E+00 0. -1.
</event>
<event>
 7    1  0.3056346E-009  0.1361887E+03  0.7561462E-02  0.1218551E+00
         -2   -1    0    0    0  501 -0.00000000000E+00  0.00000000000E+00  0.56298412651E+03  0.56298412651E+03  0.00000000000E+00 0.  1.
          2   -1    0    0  501    0  0.00000000000E+00 -0.00000000000E+00 -0.59564444710E+02  0.59564444710E+02  0.00000000000E+00 0. -1.
         25    2    1    2    0    0 -0.73153900762E+02 -0.31077778961E+02  0.47112048142E+03  0.49388091340E+03  0.12508607862E+03 0.  0.
          5    1    3    3  502    0 -0.27353408859E+02 -0.77732144559E+02  0.27462974503E+03  0.28675680380E+03  0.41800000000E+01 0. -1.
         -5    1    3    3    0  502 -0.45800491903E+02  0.46654365599E+02  0.19649073640E+03  0.20712410960E+03  0.41800000000E+01 0. -1.
        -11    1    1    2    0    0  0.71991408207E+02 -0.18846439528E+02  0.22824883848E+02  0.77839106246E+02  0.00000000000E+00 0. -1.
         11    1    1    2    0    0  0.11624925553E+01  0.49924218489E+02  0.94743165241E+01  0.50828551566E+02  0.00000000000E+00 0.  1.
</event>
<event>
 7    1  0.3056346E-009  0.1183258E+03  0.7561462E-02  0.1245885E+00
          2   -1    0    0  501    0  0.00000000000E+00  0.00000000000E+00  0.18489943343E+03  0.18489943343E+03  0.00000000000E+00 0. -1.
         -2   -1    0    0    0  501 -0.00000000000E+00 -0.00000000000E+00 -0.83169343469E+02  0.83169343469E+02  0.00000000000E+00 0.  1.
         25    2    1    2    0    0  0.96923176403E+00  0.56244172684E+02  0.80580781834E+02  0.15907427288E+03  0.12508803109E+03 0.  0.
          5    1    3    3  502    0  0.55565026874E+02  0.58975569033E+02  0.58233537143E+02  0.99870952747E+02  0.41800000000E+01 0.  1.
         -5    1    3    3    0  502 -0.54595795110E+02 -0.27313963491E+01  0.22347244691E+02  0.59203320135E+02  0.41800000000E+01 0.  1.
        -11    1    1    2    0    0  0.40882255215E+01 -0.78126114889E+02  0.31409808882E+02  0.84302903328E+02  0.00000000000E+00 0. -1.
         11    1    1    2    0    0 -0.50574572856E+01  0.21881942205E+02 -0.10260500756E+02  0.24691600689E+02  0.00000000000E+00 0.  1.
</event>
<event>
 7    1  0.3056346E-009  0.1728587E+03  0.7561462E-02  0.1174899E+00
          2   -1    0    0  501    0  0.00000000000E+00  0.00000000000E+00  0.83454825665E+02  0.83454825665E+02  0.00000000000E+00 0. -1.
         -2   -1    0    0    0  501 -0.00000000000E+00 -0.00000000000E+00 -0.50487012051E+03  0.50487012051E+03  0.00000000000E+00 0.  1.
         25    2    1    2    0    0  0.11166446198E+02  0.17091999515E+03 -0.17852801679E+03  0.27723169308E+03  0.12508726795E+03 0.  0.
          5    1    3    3  502    0  0.20923804561E+02  0.85541388492E+02 -0.16907206925E+03  0.19067766451E+03  0.41800000000E+01 0. -1.
         -5    1    3    3    0  502 -0.97573583627E+01  0.85378606656E+02 -0.94559475392E+01  0.86554028563E+02  0.41800000000E+01 0. -1.
        -11    1    1    2    0    0  0.99121415752E+00 -0.45577293967E+02 -0.10505263978E+02  0.46782825931E+02  0.00000000000E+00 0. -1.
         11    1    1    2    0    0 -0.12157660356E+02 -0.12534270118E+03 -0.23238201407E+03  0.26431042717E+03  0.00000000000E+00 0.  1.
</event>
<event>
 7    1  0.3056346E-009  0.1701554E+03  0.7561462E-02  0.1177686E+00
          2   -1    0    0  501    0  0.00000000000E+00  0.00000000000E+00  0.58858402337E+02  0.58858402337E+02  0.00000000000E+00 0. -1.
         -2   -1    0    0    0  501 -0.00000000000E+00 -0.00000000000E+00 -0.53037029876E+03  0.53037029876E+03  0.00000000000E+00 0.  1.
         25    2    1    2    0    0 -0.13399732304E+03  0.10445394972E+02 -0.19016696408E+03  0.26433987469E+03  0.12509079210E+03 0.  0.
          5    1    3    3  502    0 -0.46765927433E+02  0.63860013765E+02 -0.64069714718E+02  0.10191935082E+03  0.41800000000E+01 0. -1.
         -5    1    3    3    0  502 -0.87231395608E+02 -0.53414618793E+02 -0.12609724936E+03  0.16242052388E+03  0.41800000000E+01 0. -1.
        -11    1    1    2    0    0  0.83324911824E+02  0.35220687977E+02 -0.12489902688E+03  0.15421836696E+03  0.00000000000E+00 0. -1.
         11    1    1    2    0    0  0.50672411216E+02 -0.45666082949E+02 -0.15644590546E+03  0.17067045944E+03  0.00000000000E+00 0.  1.
</event>
<event>
 7    1  0.3056346E-009  0.1128202E+03  0.7561462E-02  0.1255435E+00
          1   -1    0    0  501    0  0.00000000000E+00  0.00000000000E+00  0.16491087486E+03  0.16491087486E+03  0.00000000000E+00 0. -1.
         -1   -1    0    0    0  501 -0.00000000000E+00 -0.00000000000E+00 -0.10972798934E+03  0.10972798934E+03  0.00000000000E+00 0.  1.
         25    2    1    2    0    0 -0.40241958522E+02 -0.67591674528E+02  0.28917557041E+02  0.15057299226E+03  0.12509177112E+03 0.  0.
          5    1    3    3  502    0  0.13540407733E+02 -0.46737675209E+02 -0.38178791358E+02  0.61990688293E+02  0.41800000000E+01 0.  1.
         -5    1    3    3    0  502 -0.53782366255E+02 -0.20853999318E+02  0.67096348399E+02  0.88582303966E+02  0.41800000000E+01 0.  1.
        -11    1    1    2    0    0  0.22308155616E+02 -0.19754953982E+02  0.17279631038E+02  0.34445575371E+02  0.00000000000E+00 0. -1.
         11    1    1    2    0    0  0.17933802906E+02  0.87346628510E+02  0.89856974451E+01  0.89620296570E+02  0.00000000000E+00 0.  1.
</event>
<event>
 7    1  0.3056346E-009  0.1784654E+03  0.7561462E-02  0.1169297E+00
          1   -1    0    0  501    0  0.00000000000E+00  0.00000000000E+00  0.59002748761E+02  0.59002748761E+02  0.00000000000E+00 0. -1.
         -1   -1    0    0    0  501 -0.00000000000E+00 -0.00000000000E+00 -0.72898722645E+03  0.72898722645E+03  0.00000000000E+00 0.  1.
         25    2    1    2    0    0  0.30622579784E+02  0.16460991057E+03 -0.45462902524E+03  0.50036690060E+03  0.12508125189E+03 0.  0.
          5    1    3    3  502    0  0.24154945831E+02  0.15981670083E+03 -0.26437993575E+03  0.30990169748E+03  0.41800000000E+01 0.  1.
         -5    1    3    3    0  502  0.64676339536E+01  0.47932097363E+01 -0.19024908949E+03  0.19046520312E+03  0.41800000000E+01 0.  1.
        -11    1    1    2    0    0  0.28148056112E+02 -0.50245780521E+02 -0.97291365829E+02  0.11305999022E+03  0.00000000000E+00 0. -1.
         11    1    1    2    0    0 -0.58770635897E+02 -0.11436413004E+03 -0.11806408662E+03  0.17456308440E+03  0.00000000000E+00 0.  1.
</event>
<event>
 7    1  0.3056346E-009  0.1396671E+03  0.7561462E-02  0.1213778E+00
         -2   -1    0    0    0  501 -0.00000000000E+00  0.00000000000E+00  0.32193923151E+03  0.32193923151E+03  0.00000000000E+00 0. -1.
          2   -1    0    0  501    0  0.00000000000E+00 -0.00000000000E+00 -0.94738502780E+02  0.94738502780E+02  0.00000000000E+00 0.  1.
         25    2    1    2    0    0  0.25145105856E+01 -0.12949054453E+03  0.73011443687E+02  0.19429668775E+03  0.12508560299E+03 0.  0.
          5    1    3    3  502    0 -0.33291204565E+02 -0.45370755999E+02 -0.23648734821E+02  0.61184514871E+02  0.41800000000E+01 0. -1.
         -5    1    3    3    0  502  0.35805715151E+02 -0.84119788529E+02  0.96660178508E+02  0.13311217288E+03  0.41800000000E+01 0. -1.
        -11    1    1    2    0    0  0.66834091483E+01  0.13828061046E+02  0.86913451024E+02  0.88260020388E+02  0.00000000000E+00 0. -1.
         11    1    1    2    0    0 -0.91979197339E+01  0.11566248348E+03  0.67275834020E+02  0.13412102615E+03  0.00000000000E+00 0.  1.
</event>
<event>
 7    1  0.3056346E-009  0.9674376E+02  0.7561462E-02  0.1287296E+00
         -1   -1    0    0    0  501 -0.00000000000E+00  0.00000000000E+00  0.13010778384E+03  0.13010778384E+03  0.00000000000E+00 0.  1.
          1   -1    0    0  501    0  0.00000000000E+00 -0.00000000000E+00 -0.10526350759E+03  0.10526350759E+03  0.00000000000E+00 0. -1.
         25    2    1    2    0    0  0.20749817014E+02 -0.30764968201E+02  0.37342664600E+02  0.13572031446E+03  0.12509392865E+03 0.  0.
          5    1    3    3  502    0 -0.10174083610E+01  0.48085053455E+02  0.18304142678E+02  0.51630625841E+02  0.41800000000E+01 0.  1.
         -5    1    3    3    0  502  0.21767225375E+02 -0.78850021656E+02  0.19038521922E+02  0.84089688623E+02  0.41800000000E+01 0.  1.
        -11    1    1    2    0    0 -0.31042063613E+02  0.18908514686E+00  0.32068751071E+02  0.44632390277E+02  0.00000000000E+00 0.  1.
         11    1    1    2    0    0  0.10292246598E+02  0.30575883054E+02 -0.44567139421E+02  0.55018586685E+02  0.00000000000E+00 0. -1.
</event>
<event>
 7    1  0.3056346E-009  0.1847438E+03  0.7561462E-02  0.1163289E+00
          1   -1    0    0  501    0  0.00000000000E+00  0.00000000000E+00  0.16387428913E+03  0.16387428913E+03  0.00000000000E+00 0. -1.
         -1   -1    0    0    0  501 -0.00000000000E+00 -0.00000000000E+00 -0.23186563299E+03  0.23186563299E+03  0.00000000000E+00 0.  1.
         25    2    1    2    0    0 -0.27096593448E+02  0.15886158357E+03 -0.43713536685E+02  0.20863346704E+03  0.12508326095E+03 0.  0.
          5    1    3    3  502    0  0.36605379961E+02  0.10027615434E+03  0.90046836385E+01  0.10720922394E+03  0.41800000000E+01 0. -1.
         -5    1    3    3    0  502 -0.63701973409E+02  0.58585429238E+02 -0.52718220323E+02  0.10142424310E+03  0.41800000000E+01 0. -1.
        -11    1    1    2    0    0  0.31778817761E+02 -0.21047663385E+02  0.18988274692E+02  0.42584644745E+02  0.00000000000E+00 0.  1.
         11    1    1    2    0    0 -0.46822243133E+01 -0.13781392019E+03 -0.43266081866E+02  0.14452181033E+03  0.00000000000E+00 0. -1.
</event>
<event>
 6    1  0.3056346E-009  0.1117976E+03  0.7561462E-02  0.1257277E+00
          1   -1    0    0  501    0  0.00000000000E+00  0.00000000000E+00  0.14478687256E+04  0.14478687256E+04  0.00000000000E+00 0. -1.
         -1   -1    0    0    0  501 -0.00000000000E+00 -0.00000000000E+00 -0.12836105026E+02  0.12836105026E+02  0.00000000000E+00 0.  1.
          5    1    1    2  502    0 -0.58287818104E+02  0.41401437159E+02  0.23808949640E+03  0.24862749131E+03  0.41800000000E+01 0.  1.
         -5    1    1    2    0  502 -0.16927353422E+02 -0.28087958556E+02  0.71073400261E+03  0.71150246913E+03  0.41800000000E+01 0.  1.
        -11    1    1    2    0    0 -0.10490906697E+02  0.23427392771E+02  0.11542398903E+03  0.11824381209E+03  0.00000000000E+00 0.  1.
         11    1    1    2    0    0  0.85706078223E+02 -0.36740871374E+02  0.37078513251E+03  0.38233105807E+03  0.00000000000E+00 0. -1.
</event>
<event>
 7    1  0.3056346E-009  0.6267612E+02  0.7561462E-02  0.1386932E+00
         -1   -1    0    0    0  501 -0.00000000000E+00  0.00000000000E+00  0.40051457055E+02  0.40051457055E+02  0.00000000000E+00 0.  1.
          1   -1    0    0  501    0  0.00000000000E+00 -0.00000000000E+00 -0.40263281708E+03  0.40263281708E+03  0.00000000000E+00 0. -1.
         25    2    1    2    0    0 -0.58826641663E+02  0.79113826689E+01 -0.25477338936E+03  0.28996619432E+03  0.12509096760E+03 0.  0.
          5    1    3    3  502    0 -0.91161214879E+01  0.87248745065E+00  0.13591408453E+02  0.16913417427E+02  0.41800000000E+01 0.  1.
         -5    1    3    3    0  502 -0.49710520175E+02  0.70388952182E+01 -0.26836479782E+03  0.27305277689E+03  0.41800000000E+01 0.  1.
        -11    1    1    2    0    0  0.31872230957E+02 -0.17421206066E+02 -0.11714647468E+03  0.12264841645E+03  0.00000000000E+00 0. -1.
         11    1    1    2    0    0  0.26954410706E+02  0.95098233967E+01  0.93385040218E+01  0.30069663365E+02  0.00000000000E+00 0.  1.
</event>
<event>
 7    1  0.3056346E-009  0.8287541E+02  0.7561462E-02  0.1321084E+00
          1   -1    0    0  501    0  0.00000000000E+00  0.00000000000E+00  0.86863920725E+02  0.86863920725E+02  0.00000000000E+00 0.  1.
         -1   -1    0    0    0  501 -0.00000000000E+00 -0.00000000000E+00 -0.17646043724E+03  0.17646043724E+03  0.00000000000E+00 0. -1.
         25    2    1    2    0    0  0.28920763625E+02 -0.21628396587E+02 -0.90191587039E+02  0.15838671714E+03  0.12509049399E+03 0.  0.
          5    1    3    3  502    0  0.41926087252E+02 -0.21662630845E+02 -0.11813612724E+03  0.12728190495E+03  0.41800000000E+01 0. -1.
         -5    1    3    3    0  502 -0.13005323628E+02  0.34234257923E-01  0.27944540201E+02  0.31104812195E+02  0.41800000000E+01 0. -1.
        -11    1    1    2    0    0  0.36554668705E+02  0.12347466296E+02 -0.30741327022E+01  0.38705994625E+02  0.00000000000E+00 0.  1.
         11    1    1    2    0    0 -0.65475432330E+02  0.92809302910E+01  0.36692032259E+01  0.66231646198E+02  0.00000000000E+00 0. -1.
</event>
<event>
 7    1  0.3056346E-009  0.9378700E+02  0.7561462E-02  0.1293932E+00
          2   -1    0    0  501    0  0.00000000000E+00  0.00000000000E+00  0.21599618729E+03  0.21599618729E+03  0.00000000000E+00 0. -1.
         -2   -1    0    0    0  501 -0.00000000000E+00 -0.00000000000E+00 -0.86133617648E+02  0.86133617648E+02  0.00000000000E+00 0.  1.
         25    2    1    2    0    0  0.68840212725E+02 -0.29519868548E+02  0.10819027061E+03  0.18155687919E+03  0.12508944081E+03 0.  0.
          5    1    3    3  502    0  0.54225234905E+01  0.26803052645E+02  0.90737970900E+02  0.94861262669E+02  0.41800000000E+01 0.  1.
         -5    1    3    3    0  502  0.63417689235E+02 -0.56322921193E+02  0.17452299706E+02  0.86695616525E+02  0.41800000000E+01 0.  1.
        -11    1    1    2    0    0 -0.20541600260E+02  0.70280937625E+01 -0.36010844063E+02  0.42049165667E+02  0.00000000000E+00 0.  1.
         11    1    1    2    0    0 -0.48298612465E+02  0.22491774785E+02  0.57683143102E+02  0.78523760081E+02  0.00000000000E+00 0. -1.
</event>
<event>
 7    1  0.3056346E-009  0.1465469E+03  0.7561462E-02  0.1204781E+00
         -1   -1    0    0    0  501 -0.00000000000E+00  0.00000000000E+00  0.62836404421E+02  0.62836404421E+02  0.00000000000E+00 0.  1.
          1   -1    0    0  501    0  0.00000000000E+00 -0.00000000000E+00 -0.54164380762E+03  0.54164380762E+03  0.00000000000E+00 0. -1.
         25    2    1    2    0    0 -0.84478638325E+01 -0.14601195280E+03 -0.29819397783E+03  0.35490511469E+03  0.12508850968E+03 0.  0.
          5    1    3    3  502    0 -0.71041841557E+01 -0.11974510565E+03 -0.30470156459E+03  0.32749026799E+03  0.41800000000E+01 0. -1.
         -5    1    3    3    0  502 -0.13436796767E+01 -0.26266847153E+02  0.65075867622E+01  0.27414846706E+02  0.41800000000E+01 0. -1.
        -11    1    1    2    0    0  0.10778603315E+01  0.80778864112E+02 -0.16250065922E+03  0.18147410536E+03  0.00000000000E+00 0. -1.
         11    1    1    2    0    0  0.73700035010E+01  0.65233088692E+02 -0.18112766148E+02  0.68100991986E+02  0.00000000000E+00 0.  1.
</event>
<event>
 7    1  0.3056346E-009  0.1019109E+03  0.7561462E-02  0.1276328E+00
         -1   -1    0    0    0  501 -0.00000000000E+00  0.00000000000E+00  0.12945482332E+03  0.12945482332E+03  0.00000000000E+00 0.  1.
          1   -1    0    0  501    0  0.00000000000E+00 -0.00000000000E+00 -0.11733235953E+03  0.11733235953E+03  0.00000000000E+00 0. -1.
         25    2    1    2    0    0  0.63803853865E+01  0.41004055960E+02  0.49619684481E+02  0.14082456259E+03  0.12508957758E+03 0.  0.
          5    1    3    3  502    0 -0.27617837966E+02 -0.29387138937E+02 -0.10775628334E+02  0.41951584890E+02  0.41800000000E+01 0.  1.
         -5    1    3    3    0  502  0.33998223353E+02  0.70391194897E+02  0.60395312814E+02  0.98872977704E+02  0.41800000000E+01 0.  1.
        -11    1    1    2    0    0 -0.39984043989E+02 -0.28662557130E+02  0.60758506751E+01  0.49569969904E+02  0.00000000000E+00 0.  1.
         11    1    1    2    0    0  0.33603658602E+02 -0.12341498830E+02 -0.43573071369E+02  0.56392650349E+02  0.00000000000E+00 0. -1.
</event>
<event>
 7    1  0.3056346E-009  0.1547610E+03  0.7561462E-02  0.1194742E+00
         -2   -1    0    0    0  501 -0.00000000000E+00  0.00000000000E+00  0.30041911738E+02  0.30041911738E+02  0.00000000000E+00 0.  1.
          2   -1    0    0  501    0  0.00000000000E+00 -0.00000000000E+00 -0.11157427997E+04  0.11157427997E+04  0.00000000000E+00 0. -1.
         25    2    1    2    0    0  0.65902857235E-01 -0.14238697206E+03 -0.69412882572E+03  0.71953972960E+03  0.12509413106E+03 0.  0.
          5    1    3    3  502    0  0.12035943598E+02 -0.71425901722E+02 -0.11522099539E+03  0.13616120429E+03  0.41800000000E+01 0.  1.
         -5    1    3    3    0  502 -0.11970040741E+02 -0.70961070341E+02 -0.57890783033E+03  0.58337852531E+03  0.41800000000E+01 0.  1.
        -11    1    1    2    0    0 -0.40891107817E+02  0.56046488086E+02 -0.12328403216E+03  0.14146463908E+03  0.00000000000E+00 0.  1.
         11    1    1    2    0    0  0.40825204960E+02  0.86340483977E+02 -0.26828803012E+03  0.28478034279E+03  0.00000000000E+00 0. -1.
</event>
<event>
 7    1  0.3056346E-009  0.1029211E+03  0.7561462E-02  0.1274271E+00
         -2   -1    0    0    0  501 -0.00000000000E+00  0.00000000000E+00  0.74695710267E+02  0.74695710267E+02  0.00000000000E+00 0.  1.
          2   -1    0    0  501    0  0.00000000000E+00 -0.00000000000E+00 -0.19523751893E+03  0.19523751893E+03  0.00000000000E+00 0. -1.
         25    2    1    2    0    0 -0.39826513175E+02 -0.30198350606E+02 -0.51171131457E+02  0.14409958712E+03  0.12509242496E+03 0.  0.
          5    1    3    3  502    0 -0.52805291900E+02  0.23457809298E+02  0.12974450637E+02  0.59367301092E+02  0.41800000000E+01 0. -1.
         -5    1    3    3    0  502  0.12978778724E+02 -0.53656159903E+02 -0.64145582093E+02  0.84732286024E+02  0.41800000000E+01 0. -1.
        -11    1    1    2    0    0  0.10770694382E+01 -0.25045961597E+02  0.48385528376E+01  0.25531781458E+02  0.00000000000E+00 0.  1.
         11    1    1    2    0    0  0.38749443737E+02  0.55244312202E+02 -0.74209230043E+02  0.10030186062E+03  0.00000000000E+00 0. -1.
</event>
<event>
 7    1  0.3056346E-009  0.1381544E+03  0.7561462E-02  0.1215834E+00
          1   -1    0    0  501    0  0.00000000000E+00  0.00000000000E+00  0.39320825817E+03  0.39320825817E+03  0.00000000000E+00 0. -1.
         -1   -1    0    0    0  501 -0.00000000000E+00 -0.00000000000E+00 -0.49216584084E+02  0.49216584084E+02  0.00000000000E+00 0.  1.
         25    2    1    2    0    0 -0.82749976328E+02  0.16088590653E+02  0.21023449495E+03  0.25875476825E+03  0.12509630646E+03 0.  0.
          5    1    3    3  502    0 -0.11578835141E+03  0.17390285650E+02  0.17082759736E+03  0.20714464699E+03  0.41800000000E+01 0.  1.
         -5    1    3    3    0  502  0.33038375083E+02 -0.13016949972E+01  0.39406897594E+02  0.51610121255E+02  0.41800000000E+01 0.  1.
        -11    1    1    2    0    0  0.33454292910E+02 -0.54074590305E+02  0.70231800455E+02  0.94740470898E+02  0.00000000000E+00 0.  1.
         11    1    1    2    0    0  0.49295683417E+02  0.37985999652E+02  0.63525378673E+02  0.88929603107E+02  0.00000000000E+00 0. -1.
</event>
<event>
 7    1  0.3056346E-009  0.1497211E+03  0.7561462E-02  0.1200816E+00
          1   -1    0    0  501    0  0.00000000000E+00  0.00000000000E+00  0.36160608630E+03  0.36160608630E+03  0.00000000000E+00 0. -1.
         -1   -1    0    0    0  501 -0.00000000000E+00 -0.00000000000E+00 -0.15908634140E+03  0.15908634140E+03  0.00000000000E+00 0.  1.
         25    2    1    2    0    0  0.12296376898E+03 -0.84302549022E+02  0.27053146732E+03  0.33325968668E+03  0.12509090976E+03 0.  0.
          5    1    3    3  502    0  0.11722477950E+03 -0.80026179640E+02  0.13010630606E+03  0.19259013898E+03  0.41800000000E+01 0. -1.
         -5    1    3    3    0  502  0.57389894819E+01 -0.42763693821E+01  0.14042516126E+03  0.14066954770E+03  0.41800000000E+01 0. -1.
        -11    1    1    2    0    0 -0.62263156121E+02  0.39937081925E+02 -0.82562333866E+02  0.11085219933E+03  0.00000000000E+00 0. -1.
         11    1    1    2    0    0 -0.60700612857E+02  0.44365467096E+02  0.14550611446E+02  0.76580541689E+02  0.00000000000E+00 0.  1.
</event>
<event>
 7    1  0.3056346E-009  0.1335860E+03  0.7561462E-02  0.1222230E+00
         -1   -1    0    0    0  501 -0.00000000000E+00  0.00000000000E+00  0.92744507416E+02  0.92744507416E+02  0.00000000000E+00 0.  1.
          1   -1    0    0  501    0  0.00000000000E+00 -0.00000000000E+00 -0.29046219216E+03  0.29046219216E+03  0.00000000000E+00 0. -1.
         25    2    1    2    0    0 -0.11221529041E+03  0.37930164716E+02 -0.66231978421E+02  0.18456966076E+03  0.12509322888E+03 0.  0.
          5    1    3    3  502    0 -0.10214270484E+03 -0.27676201582E+01 -0.89970270991E+02  0.13620908169E+03  0.41800000000E+01 0. -1.
         -5    1    3    3    0  502 -0.10072585569E+02  0.40697784874E+02  0.23738292570E+02  0.48360579068E+02  0.41800000000E+01 0. -1.
        -11    1    1    2    0    0  0.28896773792E+02 -0.25486329991E+02  0.43750745152E+01  0.38777800724E+02  0.00000000000E+00 0.  1.
         11    1    1    2    0    0  0.83318516614E+02 -0.12443834725E+02 -0.13586078084E+03  0.15985923809E+03  0.00000000000E+00 0. -1.
</event>
<event>
 7    1  0.3056346E-009  0.1114034E+03  0.7561462E-02  0.1257993E+00
         -1   -1    0    0    0  501 -0.00000000000E+00  0.00000000000E+00  0.29317055779E+02  0.29317055779E+02  0.00000000000E+00 0.  1.
          1   -1    0    0  501    0  0.00000000000E+00 -0.00000000000E+00 -0.70543486732E+03  0.70543486732E+03  0.00000000000E+00 0. -1.
         25    2    1    2    0    0 -0.58696506507E+02 -0.16972432737E+02 -0.55235919045E+03  0.56963249981E+03  0.12508863345E+03 0.  0.
          5    1    3    3  502    0  0.11046161648E+02 -0.48850838698E+02 -0.11385465962E+03  0.12445391937E+03  0.41800000000E+01 0.  1.
         -5    1    3    3    0  502 -0.69742668155E+02  0.31878405962E+02 -0.43850453083E+03  0.44517858045E+03  0.41800000000E+01 0.  1.
        -11    1    1    2    0    0  0.14533655754E+02  0.42379312501E+02 -0.98589924328E+02  0.10829222713E+03  0.00000000000E+00 0. -1.
         11    1    1    2    0    0  0.44162850753E+02 -0.25406879764E+02 -0.25168696757E+02  0.56827196152E+02  0.00000000000E+00 0.  1.
</event>
<event>
 7    1  0.3056346E-009  0.7793746E+02  0.7561462E-02  0.1335009E+00
         -1   -1    0    0    0  501 -0.00000000000E+00  0.00000000000E+00  0.12091268864E+03  0.12091268864E+03  0.00000000000E+00 0.  1.
          1   -1    0    0  501    0  0.00000000000E+00 -0.00000000000E+00 -0.11463851162E+03  0.11463851162E+03  0.00000000000E+00 0. -1.
         25    2    1    2    0    0 -0.28605139638E+01  0.28965332319E+02  0.37682480662E+02  0.13385176224E+03  0.12509657025E+03 0.  0.
          5    1    3    3  502    0 -0.27373676901E+02  0.58460117680E+02  0.60884936176E+02  0.88833278670E+02  0.41800000000E+01 0. -1.
         -5    1    3    3    0  502  0.24513162937E+02 -0.29494785360E+02 -0.23202455514E+02  0.45018483565E+02  0.41800000000E+01 0. -1.
        -11    1    1    2    0    0  0.22125363762E+02 -0.24148159934E+02 -0.59132708867E+02  0.67596912709E+02  0.00000000000E+00 0. -1.
         11    1    1    2    0    0 -0.19264849799E+02 -0.48171723848E+01  0.27724405227E+02  0.34102525313E+02  0.00000000000E+00 0.  1.
</event>
<event>
 7    1  0.3056346E-009  0.1332554E+03  0.7561462E-02  0.1222704E+00
          4   -1    0    0  501    0  0.00000000000E+00  0.00000000000E+00  0.19042738006E+02  0.19042738006E+02  0.00000000000E+00 0. -1.
         -4   -1    0    0    0  501 -0.00000000000E+00 -0.00000000000E+00 -0.11013175166E+04  0.11013175166E+04  0.00000000000E+00 0.  1.
         25    2    1    2    0    0  0.63612569071E+02  0.71086942618E+02 -0.59372551724E+03  0.61421298274E+03  0.12509071105E+03 0.  0.
          5    1    3    3  502    0  0.52217406169E+02  0.96943216736E+02 -0.55643172275E+03  0.56723749811E+03  0.41800000000E+01 0. -1.
         -5    1    3    3    0  502  0.11395162902E+02 -0.25856274118E+02 -0.37293794486E+02  0.46975484628E+02  0.41800000000E+01 0. -1.
        -11    1    1    2    0    0 -0.21881391815E+02  0.18675290180E+02 -0.63322270822E+02  0.69550497864E+02  0.00000000000E+00 0. -1.
         11    1    1    2    0    0 -0.41731177256E+02 -0.89762232798E+02 -0.42522699056E+03  0.43659677403E+03  0.00000000000E+00 0.  1.
</event>
<event>
 7    1  0.3056346E-009  0.1325910E+03  0.7561462E-02  0.1223661E+00
         -2   -1    0    0    0  501 -0.00000000000E+00  0.00000000000E+00  0.58829941132E+02  0.58829941132E+02  0.00000000000E+00 0.  1.
          2   -1    0    0  501    0  0.00000000000E+00 -0.00000000000E+00 -0.30862956406E+03  0.30862956406E+03  0.00000000000E+00 0. -1.
         25    2    1    2    0    0 -0.35976311626E+01  0.82742820420E+02 -0.13111867823E+03  0.19924552777E+03  0.12508938914E+03 0.  0.
          5    1    3    3  502    0  0.50908788020E+02  0.28483023845E+01 -0.30227642381E+02  0.59422220491E+02  0.41800000000E+01 0.  1.
         -5    1    3    3    0  502 -0.54506419183E+02  0.79894518036E+02 -0.10089103585E+03  0.13982330728E+03  0.41800000000E+01 0.  1.
        -11    1    1    2    0    0 -0.95515641480E+01  0.15440342515E+02 -0.30990114557E+02  0.35916900687E+02  0.00000000000E+00 0. -1.
         11    1    1    2    0    0  0.13149195311E+02 -0.98183162936E+02 -0.87690830142E+02  0.13229707673E+03  0.00000000000E+00 0.  1.
</event>
<event>
 7    1  0.3056346E-009  0.1729143E+03  0.7561462E-02  0.1174842E+00
          4   -1    0    0  501    0  0.00000000000E+00  0.00000000000E+00  0.14798657140E+03  0.14798657140E+03  0.00000000000E+00 0. -1.
         -4   -1    0    0    0  501 -0.00000000000E+00 -0.00000000000E+00 -0.22452436403E+03  0.22452436403E+03  0.00000000000E+00 0.  1.
         25    2    1    2    0    0 -0.60725162044E+02  0.13156611466E+03 -0.61899420996E+02  0.20118693793E+03  0.12508979912E+03 0.  0.
          5    1    3    3  502    0  0.29585815077E+02  0.82422680293E+02 -0.37967315383E+02  0.95539563103E+02  0.41800000000E+01 0. -1.
         -5    1    3    3    0  502 -0.90310977121E+02  0.49143434363E+02 -0.23932105613E+02  0.10564737483E+03  0.41800000000E+01 0. -1.
        -11    1    1    2    0    0  0.25195957778E+02 -0.11178924234E+03 -0.42292514806E+02  0.12214879369E+03  0.00000000000E+00 0.  1.
         11    1    1    2    0    0  0.35529204266E+02 -0.19776872313E+02  0.27654143174E+02  0.49175203802E+02  0.00000000000E+00 0. -1.
</event>
<event>
 7    1  0.3056346E-009  0.2680786E+03  0.7561462E-02  0.1102384E+00
          1   -1    0    0  501    0  0.00000000000E+00  0.00000000000E+00  0.10379189905E+04  0.10379189905E+04  0.00000000000E+00 0. -1.
         -1   -1    0    0    0  501 -0.00000000000E+00 -0.00000000000E+00 -0.85298785590E+02  0.85298785590E+02  0.00000000000E+00 0.  1.
         25    2    1    2    0    0  0.14101775890E+03 -0.21905596380E+03  0.66186793712E+03  0.72221081873E+03  0.12509107444E+03 0.  0.
          5    1    3    3  502    0  0.27709467006E+02 -0.21667976910E+02  0.18928992629E+02  0.40163353284E+02  0.41800000000E+01 0. -1.
         -5    1    3    3    0  502  0.11330829190E+03 -0.19738798689E+03  0.64293894449E+03  0.68204746545E+03  0.41800000000E+01 0. -1.
        -11    1    1    2    0    0  0.81114741997E+01  0.36413533132E+02  0.21319604674E+02  0.42968208623E+02  0.00000000000E+00 0. -1.
         11    1    1    2    0    0 -0.14912923310E+03  0.18264243067E+03  0.26943266314E+03  0.35803874876E+03  0.00000000000E+00 0.  1.
</event>
<event>
 7    1  0.3056346E-009  0.8005508E+02  0.7561462E-02  0.1328895E+00
         -2   -1    0    0    0  501 -0.00000000000E+00  0.00000000000E+00  0.13737745225E+03  0.13737745225E+03  0.00000000000E+00 0.  1.
          2   -1    0    0  501    0  0.00000000000E+00 -0.00000000000E+00 -0.15980789610E+03  0.15980789610E+03  0.00000000000E+00 0. -1.
         25    2    1    2    0    0  0.84813966844E+01 -0.15817158311E+02 -0.11188555455E+03  0.16876887137E+03  0.12506973271E+03 0.  0.
          5    1    3    3  502    0 -0.63861305103E-01 -0.43428016231E+02 -0.12812794610E+03  0.13535227979E+03  0.41800000000E+01 0.  1.
         -5    1    3    3    0  502  0.85452579895E+01  0.27610857920E+02  0.16242391557E+02  0.33416591578E+02  0.41800000000E+01 0.  1.
        -11    1    1    2    0    0  0.32991794841E+02  0.28827304705E+02  0.24317170299E+02  0.50107851628E+02  0.00000000000E+00 0. -1.
         11    1    1    2    0    0 -0.41473191525E+02 -0.13010146395E+02  0.65137940401E+02  0.78308625350E+02  0.00000000000E+00 0.  1.
</event>
<event>
 7    1  0.3056346E-009  0.1103930E+03  0.7561462E-02  0.1259844E+00
         -1   -1    0    0    0  501 -0.00000000000E+00  0.00000000000E+00  0.79524189658E+02  0.79524189658E+02  0.00000000000E+00 0.  1.
          1   -1    0    0  501    0  0.00000000000E+00 -0.00000000000E+00 -0.18030157066E+03  0.18030157066E+03  0.00000000000E+00 0. -1.
         25    2    1    2    0    0  0.21282336019E+02 -0.36287419769E+02 -0.89504889551E+02  0.15946220200E+03  0.12508938385E+03 0.  0.
          5    1    3    3  502    0  0.70586714473E+02 -0.28370746770E+02 -0.75886128804E+02  0.10753399684E+03  0.41800000000E+01 0.  1.
         -5    1    3    3    0  502 -0.49304378454E+02 -0.79166729992E+01 -0.13618760747E+02  0.51928205153E+02  0.41800000000E+01 0.  1.
        -11    1    1    2    0    0  0.13859961136E+02 -0.22247749130E+02 -0.17942187475E+02  0.31764492053E+02  0.00000000000E+00 0. -1.
         11    1    1    2    0    0 -0.35142297154E+02  0.58535168899E+02  0.66696960278E+01  0.68599066265E+02  0.00000000000E+00 0.  1.
</event>
<event>
 7    1  0.3056346E-009  0.2264716E+03  0.7561462E-02  0.1129148E+00
          2   -1    0    0  501    0  0.00000000000E+00  0.00000000000E+00  0.24981571505E+03  0.24981571505E+03  0.00000000000E+00 0. -1.
         -2   -1    0    0    0  501 -0.00000000000E+00 -0.00000000000E+00 -0.23267554145E+03  0.23267554145E+03  0.00000000000E+00 0.  1.
         25    2    1    2    0    0 -0.39177748876E+02  0.21049364859E+03 -0.55868238005E+01  0.24802980612E+03  0.12508037425E+03 0.  0.
          5    1    3    3  502    0 -0.11987355316E+02  0.20904816816E+03  0.20059669164E+02  0.21039176796E+03  0.41800000000E+01 0. -1.
         -5    1    3    3    0  502 -0.27190393560E+02  0.14454804314E+01 -0.25646492964E+02  0.37638038166E+02  0.41800000000E+01 0. -1.
        -11    1    1    2    0    0  0.37297116276E+02 -0.12495069044E+03 -0.30201896836E+02  0.13385030630E+03  0.00000000000E+00 0.  1.
         11    1    1    2    0    0  0.18806325998E+01 -0.85542958144E+02  0.52928894237E+02  0.10061114407E+03  0.00000000000E+00 0. -1.
</event>
<event>
 7    1  0.3056346E-009  0.9490691E+02  0.7561462E-02  0.1291386E+00
         -1   -1    0    0    0  501 -0.00000000000E+00  0.00000000000E+00  0.29209178204E+03  0.29209178204E+03  0.00000000000E+00 0.  1.
          1   -1    0    0  501    0  0.00000000000E+00 -0.00000000000E+00 -0.44978799781E+02  0.44978799781E+02  0.00000000000E+00 0. -1.
         25    2    1    2    0    0 -0.34041260711E+02  0.11511113024E+02  0.11237983586E+03  0.17195282848E+03  0.12508890663E+03 0.  0.
          5    1    3    3  502    0  0.28725254351E+02 -0.18193088479E+02 -0.58706679189E+01  0.34757241660E+02  0.41800000000E+01 0. -1.
         -5    1    3    3    0  502 -0.62766515062E+02  0.29704201503E+02  0.11825050378E+03  0.13719558682E+03  0.41800000000E+01 0. -1.
        -11    1    1    2    0    0 -0.16416406611E+01 -0.40181977858E+02  0.28057021487E+02  0.49035525728E+02  0.00000000000E+00 0. -1.
         11    1    1    2    0    0  0.35682901372E+02  0.28670864834E+02  0.10667612491E+03  0.11608222761E+03  0.00000000000E+00 0.  1.
</event>
<event>
 7    1  0.3056346E-009  0.1405912E+03  0.7561462E-02  0.1212536E+00
         -1   -1    0    0    0  501 -0.00000000000E+00  0.00000000000E+00  0.21733691981E+03  0.21733691981E+03  0.00000000000E+00 0.  1.
          1   -1    0    0  501    0  0.00000000000E+00 -0.00000000000E+00 -0.17244688275E+03  0.17244688275E+03  0.00000000000E+00 0. -1.
         25    2    1    2    0    0 -0.10483815130E+03 -0.57198200798E+02  0.13088919305E+03  0.21688579320E+03  0.12507915210E+03 0.  0.
          5    1    3    3  502    0 -0.10961985590E+03 -0.67448136904E+02  0.14785447345E+03  0.19607187891E+03  0.41800000000E+01 0.  1.
         -5    1    3    3    0  502  0.47817046016E+01  0.10249936106E+02 -0.16965280398E+02  0.20813914290E+02  0.41800000000E+01 0.  1.
        -11    1    1    2    0    0  0.94111579410E+02  0.13165487886E+02 -0.85108718067E+02  0.12756885726E+03  0.00000000000E+00 0.  1.
         11    1    1    2    0    0  0.10726571892E+02  0.44032712912E+02 -0.89043792843E+00  0.45329152106E+02  0.00000000000E+00 0. -1.
</event>
<event>
 7    1  0.3056346E-009  0.6452992E+02  0.7561462E-02  0.1379749E+00
          1   -1    0    0  501    0  0.00000000000E+00  0.00000000000E+00  0.11300227591E+03  0.11300227591E+03  0.00000000000E+00 0. -1.
         -1   -1    0    0    0  501 -0.00000000000E+00 -0.00000000000E+00 -0.12738417597E+03  0.12738417597E+03  0.00000000000E+00 0.  1.
         25    2    1    2    0    0 -0.52059704569E+02 -0.33771384167E+01 -0.16538173964E+02  0.13654021821E+03  0.12509237421E+03 0.  0.
          5    1    3    3  502    0 -0.38850910294E+02 -0.15706721346E+02  0.51208150971E+02  0.66301142162E+02  0.41800000000E+01 0.  1.
         -5    1    3    3    0  502 -0.13208794276E+02  0.12329582929E+02 -0.67746324935E+02  0.70239076044E+02  0.41800000000E+01 0.  1.
        -11    1    1    2    0    0  0.52225171024E+02 -0.11537410122E+02 -0.34925060005E+02  0.63877540162E+02  0.00000000000E+00 0.  1.
         11    1    1    2    0    0 -0.16546645426E+00  0.14914548538E+02  0.37081333903E+02  0.39968693515E+02  0.00000000000E+00 0. -1.
</event>
<event>
 7    1  0.3056346E-009  0.7669667E+02  0.7561462E-02  0.1338696E+00
          1   -1    0    0  501    0  0.00000000000E+00  0.00000000000E+00  0.35812621537E+02  0.35812621537E+02  0.00000000000E+00 0. -1.
         -1   -1    0    0    0  501 -0.00000000000E+00 -0.00000000000E+00 -0.33478136673E+03  0.33478136673E+03  0.00000000000E+00 0.  1.
         25    2    1    2    0    0 -0.25494936346E+02  0.56386975628E+01 -0.15293198514E+03  0.19929157946E+03  0.12508858810E+03 0.  0.
          5    1    3    3  502    0  0.28846684354E+02 -0.37673468457E+01 -0.13924828705E+03  0.14231613382E+03  0.41800000000E+01 0. -1.
         -5    1    3    3    0  502 -0.54341620700E+02  0.94060444085E+01 -0.13683698097E+02  0.56975445635E+02  0.41800000000E+01 0. -1.
        -11    1    1    2    0    0 -0.10364592945E+02 -0.25625170050E+02 -0.11894758100E+03  0.12211716158E+03  0.00000000000E+00 0.  1.
         11    1    1    2    0    0  0.35859529291E+02  0.19986472487E+02 -0.27089179053E+02  0.49185247232E+02  0.00000000000E+00 0. -1.
</event>
<event>
 7    1  0.3056346E-009  0.1285548E+03  0.7561462E-02  0.1229616E+00
         -2   -1    0    0    0  501 -0.00000000000E+00  0.00000000000E+00  0.20247119933E+02  0.20247119933E+02  0.00000000000E+00 0.  1.
          2   -1    0    0  501    0  0.00000000000E+00 -0.00000000000E+00 -0.10978805116E+04  0.10978805116E+04  0.00000000000E+00 0. -1.
         25    2    1    2    0    0  0.60979425162E+02 -0.75154996012E+02 -0.70922369877E+03  0.72664501842E+03  0.12509182297E+03 0.  0.
          5    1    3    3  502    0 -0.26690104365E+02 -0.54687481177E+01 -0.43102260940E+02  0.51161960235E+02  0.41800000000E+01 0.  1.
         -5    1    3    3    0  502  0.87669529527E+02 -0.69686247894E+02 -0.66612143783E+03  0.67548305818E+03  0.41800000000E+01 0.  1.
        -11    1    1    2    0    0 -0.69336885670E+02  0.37345678296E+02 -0.31969826037E+03  0.32925564700E+03  0.00000000000E+00 0.  1.
         11    1    1    2    0    0  0.83574605084E+01  0.37809317716E+02 -0.48711432522E+02  0.62226966104E+02  0.00000000000E+00 0. -1.
</event>
<event>
 7    1  0.3056346E-009  0.1090297E+03  0.7561462E-02  0.1262377E+00
         -2   -1    0    0    0  501 -0.00000000000E+00  0.00000000000E+00  0.32580934980E+03  0.32580934980E+03  0.00000000000E+00 0.  1.
          2   -1    0    0  501    0  0.00000000000E+00 -0.00000000000E+00 -0.73851713184E+02  0.73851713184E+02  0.00000000000E+00 0. -1.
         25    2    1    2    0    0 -0.17210581583E+02 -0.28375424045E+02 -0.69915873143E+00  0.12942108884E+03  0.12509180870E+03 0.  0.
          5    1    3    3  502    0 -0.63878766780E+01  0.49691731287E+02  0.34052372447E+01  0.50389891521E+02  0.41800000000E+01 0.  1.
         -5    1    3    3    0  502 -0.10822704905E+02 -0.78067155332E+02 -0.41043959761E+01  0.79031197317E+02  0.41800000000E+01 0.  1.
        -11    1    1    2    0    0  0.35509019559E+02  0.49495660200E+02  0.21425868231E+03  0.22274984578E+03  0.00000000000E+00 0.  1.
         11    1    1    2    0    0 -0.18298437976E+02 -0.21120236155E+02  0.38398113035E+02  0.47490128366E+02  0.00000000000E+00 0. -1.
</event>
<event>
 7    1  0.3056346E-009  0.1112086E+03  0.7561462E-02  0.1258348E+00
         -2   -1    0    0    0  501 -0.00000000000E+00  0.00000000000E+00  0.32547450137E+02  0.32547450137E+02  0.00000000000E+00 0.  1.
          2   -1    0    0  501    0  0.00000000000E+00 -0.00000000000E+00 -0.45985998441E+03  0.45985998441E+03  0.00000000000E+00 0. -1.
         25    2    1    2    0    0 -0.42296487521E+02 -0.15557623334E+02 -0.16738639128E+03  0.21376715178E+03  0.12508860336E+03 0.  0.
          5    1    3    3  502    0 -0.42456377484E+02  0.45834522137E+02 -0.46074290777E+02  0.77740980694E+02  0.41800000000E+01 0.  1.
         -5    1    3    3    0  502  0.15988996266E+00 -0.61392145471E+02 -0.12131210051E+03  0.13602617108E+03  0.41800000000E+01 0.  1.
        -11    1    1    2    0    0 -0.20340860667E+02 -0.18039233527E+02 -0.48692519576E+02  0.55768503849E+02  0.00000000000E+00 0.  1.
         11    1    1    2    0    0  0.62637348188E+02  0.33596856861E+02 -0.21123362341E+03  0.22287177892E+03  0.00000000000E+00 0. -1.
</event>
<event>
 7    1  0.3056346E-009  0.1121270E+03  0.7561462E-02  0.1256681E+00
          2   -1    0    0  501    0  0.00000000000E+00  0.00000000000E+00  0.20660030382E+03  0.20660030382E+03  0.00000000000E+00 0. -1.
         -2   -1    0    0    0  501 -0.00000000000E+00 -0.00000000000E+00 -0.94733593466E+02  0.94733593466E+02  0.00000000000E+00 0.  1.
         25    2    1    2    0    0 -0.50839559993E+02  0.60730559560E+02  0.89865506401E+02  0.17319228860E+03  0.12508756079E+03 0.  0.
          5    1    3    3  502    0 -0.24876001477E+02 -0.93803300430E+01  0.94412868615E+02  0.98173663481E+02  0.41800000000E+01 0. -1.
         -5    1    3    3    0  502 -0.25963558516E+02  0.70110889603E+02 -0.45473622147E+01  0.75018625120E+02  0.41800000000E+01 0. -1.
        -11    1    1    2    0    0  0.47156188842E+02  0.12780677305E+02 -0.63464235198E+01  0.49267930238E+02  0.00000000000E+00 0.  1.
         11    1    1    2    0    0  0.36833711511E+01 -0.73511236864E+02  0.28347627474E+02  0.78873678447E+02  0.00000000000E+00 0. -1.
</event>
<event>
 7    1  0.3056346E-009  0.1222592E+03  0.7561462E-02  0.1239416E+00
          2   -1    0    0  501    0  0.00000000000E+00  0.00000000000E+00  0.31124872055E+02  0.31124872055E+02  0.00000000000E+00 0. -1.
         -2   -1    0    0    0  501 -0.00000000000E+00 -0.00000000000E+00 -0.71651874158E+03  0.71651874158E+03  0.00000000000E+00 0.  1.
         25    2    1    2    0    0 -0.19746185268E+02  0.73476551876E+02 -0.20074956775E+03  0.24846923696E+03  0.12509139561E+03 0.  0.
          5    1    3    3  502    0 -0.40942026645E+02 -0.10511029825E+02 -0.17893710973E+02  0.46091090095E+02  0.41800000000E+01 0. -1.
         -5    1    3    3    0  502  0.21195841377E+02  0.83987581702E+02 -0.18285585677E+03  0.20237814686E+03  0.41800000000E+01 0. -1.
        -11    1    1    2    0    0  0.35740211474E+02 -0.87203811470E+02 -0.43745968441E+03  0.44749619321E+03  0.00000000000E+00 0.  1.
         11    1    1    2    0    0 -0.15994026207E+02  0.13727259594E+02 -0.47184617366E+02  0.51678183464E+02  0.00000000000E+00 0. -1.
</event>
<event>
 7    1  0.3056346E-009  0.2133775E+03  0.7561462E-02  0.1138919E+00
          3   -1    0    0  501    0  0.00000000000E+00  0.00000000000E+00  0.29160212676E+03  0.29160212676E+03  0.00000000000E+00 0. -1.
         -3   -1    0    0    0  501 -0.00000000000E+00 -0.00000000000E+00 -0.22852859179E+03  0.22852859179E+03  0.00000000000E+00 0.  1.
         25    2    1    2    0    0  0.45199856574E+02 -0.18929967459E+03  0.16303198972E+03  0.28302663601E+03  0.12508898107E+03 0.  0.
          5    1    3    3  502    0 -0.49225341550E+01 -0.14940764613E+03  0.15963484414E+03  0.21874101565E+03  0.41800000000E+01 0. -1.
         -5    1    3    3    0  502  0.50122390729E+02 -0.39892028457E+02  0.33971455836E+01  0.64285620359E+02  0.41800000000E+01 0. -1.
        -11    1    1    2    0    0 -0.68869062023E+02  0.16635532182E+03 -0.95595807650E+02  0.20385190517E+03  0.00000000000E+00 0.  1.
         11    1    1    2    0    0  0.23669205448E+02  0.22944352763E+02 -0.43626471047E+01  0.33252177373E+02  0.00000000000E+00 0. -1.
</event>
<event>
 7    1  0.3056346E-009  0.1419829E+03  0.7561462E-02  0.1210685E+00
         -1   -1    0    0    0  501 -0.00000000000E+00  0.00000000000E+00  0.48193524575E+02  0.48193524575E+02  0.00000000000E+00 0.  1.
          1   -1    0    0  501    0  0.00000000000E+00 -0.00000000000E+00 -0.56356185691E+03  0.56356185691E+03  0.00000000000E+00 0. -1.
         25    2    1    2    0    0 -0.44606323771E+02 -0.11450477643E+03 -0.24447319462E+03  0.30085786911E+03  0.12508895464E+03 0.  0.
          5    1    3    3  502    0 -0.63135034245E+01 -0.12151412219E+03 -0.12232209874E+03  0.17258537150E+03  0.41800000000E+01 0. -1.
         -5    1    3    3    0  502 -0.38292820346E+02  0.70093457599E+01 -0.12215109588E+03  0.12827249760E+03  0.41800000000E+01 0. -1.
        -11    1    1    2    0    0  0.29757222643E+02  0.67486065359E+02 -0.24363858623E+03  0.25455769880E+03  0.00000000000E+00 0. -1.
         11    1    1    2    0    0  0.14849101127E+02  0.47018711069E+02 -0.27256551485E+02  0.56339813575E+02  0.00000000000E+00 0.  1.
</event>
<event>
 7    1  0.3056346E-009  0.1020913E+03  0.7561462E-02  0.1275959E+00
          1   -1    0    0  501    0  0.00000000000E+00  0.00000000000E+00  0.11221457135E+03  0.11221457135E+03  0.00000000000E+00 0. -1.
         -1   -1    0    0    0  501 -0.00000000000E+00 -0.00000000000E+00 -0.13864512518E+03  0.13864512518E+03  0.00000000000E+00 0.  1.
         25    2    1    2    0    0  0.42651009512E+02  0.35825779780E+02  0.93226216675E+01  0.13724456168E+03  0.12508622357E+03 0.  0.
          5    1    3    3  502    0  0.48928964560E+02 -0.25546045761E+02  0.39927097484E+02  0.68251663280E+02  0.41800000000E+01 0.  1.
         -5    1    3    3    0  502 -0.62779550484E+01  0.61371825541E+02 -0.30604475816E+02  0.68992898401E+02  0.41800000000E+01 0.  1.
        -11    1    1    2    0    0  0.16773354237E+02 -0.18766728971E+02  0.18598833142E+02  0.31296199815E+02  0.00000000000E+00 0. -1.
         11    1    1    2    0    0 -0.59424363749E+02 -0.17059050809E+02 -0.54352008646E+02  0.82318935035E+02  0.00000000000E+00 0.  1.
</event>
<event>
 7    1  0.3056346E-009  0.8406229E+02  0.7561462E-02  0.1317903E+00
         -2   -1    0    0    0  501 -0.00000000000E+00  0.00000000000E+00  0.24713020596E+02  0.24713020596E+02  0.00000000000E+00 0.  1.
          2   -1    0    0  501    0  0.00000000000E+00 -0.00000000000E+00 -0.57099654573E+03  0.57099654573E+03  0.00000000000E+00 0. -1.
         25    2    1    2    0    0  0.39957379561E+02  0.17552255949E+02 -0.25670761357E+03  0.28887965766E+03  0.12509190172E+03 0.  0.
          5    1    3    3  502    0 -0.19867033732E+02  0.25232343785E+02 -0.85951994706E+01  0.33507015028E+02  0.41800000000E+01 0. -1.
         -5    1    3    3    0  502  0.59824413293E+02 -0.76800878353E+01 -0.24811241410E+03  0.25537264263E+03  0.41800000000E+01 0. -1.
        -11    1    1    2    0    0 -0.22756224151E+02  0.22307104852E+02 -0.30392344131E+02  0.44035749639E+02  0.00000000000E+00 0.  1.
         11    1    1    2    0    0 -0.17201155410E+02 -0.39859360802E+02 -0.25918356743E+03  0.26279415903E+03  0.00000000000E+00 0. -1.
</event>
<event>
 7    1  0.3056346E-009  0.1299038E+03  0.7561462E-02  0.1227599E+00
         -2   -1    0    0    0  501 -0.00000000000E+00  0.00000000000E+00  0.62779844611E+02  0.62779844611E+02  0.00000000000E+00 0.  1.
          2   -1    0    0  501    0  0.00000000000E+00 -0.00000000000E+00 -0.39165750709E+03  0.39165750709E+03  0.00000000000E+00 0. -1.
         25    2    1    2    0    0 -0.95372796104E+02  0.45446388764E+02 -0.22470105416E+03  0.27802909761E+03  0.12509304892E+03 0.  0.
          5    1    3    3  502    0  0.12218940969E+02  0.96235654444E+01 -0.12779560519E+03  0.12880646194E+03  0.41800000000E+01 0. -1.
         -5    1    3    3    0  502 -0.10759173707E+03  0.35822823319E+02 -0.96905448966E+02  0.14922263567E+03  0.41800000000E+01 0. -1.
        -11    1    1    2    0    0  0.55538912179E+02  0.15278657282E+02 -0.11623421033E+02  0.58763186188E+02  0.00000000000E+00 0.  1.
         11    1    1    2    0    0  0.39833883925E+02 -0.60725046046E+02 -0.92553187290E+02  0.11764506791E+03  0.00000000000E+00 0. -1.
</event>
<event>
 7    1  0.3056346E-009  0.1289910E+03  0.7561462E-02  0.1228961E+00
         -1   -1    0    0    0  501 -0.00000000000E+00  0.00000000000E+00  0.93072028911E+02  0.93072028911E+02  0.00000000000E+00 0.  1.
          1   -1    0    0  501    0  0.00000000000E+00 -0.00000000000E+00 -0.19438282474E+03  0.19438282474E+03  0.00000000000E+00 0. -1.
         25    2    1    2    0    0 -0.64061873617E+02  0.49007104697E+02 -0.68771016540E+02  0.16395915676E+03  0.12509009716E+03 0.  0.
          5    1    3    3  502    0  0.43956273322E+01  0.68002295186E+02 -0.50921246628E+01  0.68461929740E+02  0.41800000000E+01 0. -1.
         -5    1    3    3    0  502 -0.68457500949E+02 -0.18995190488E+02 -0.63678891878E+02  0.95497227021E+02  0.41800000000E+01 0. -1.
        -11    1    1    2    0    0  0.72645035821E+02 -0.40327290916E+01 -0.25906872574E+02  0.77231665656E+02  0.00000000000E+00 0. -1.
         11    1    1    2    0    0 -0.85831622046E+01 -0.44974375606E+02 -0.66329067153E+01  0.46264031234E+02  0.00000000000E+00 0.  1.
</event>
<event>
 7    1  0.3056346E-009  0.2237617E+03  0.7561462E-02  0.1131109E+00
          1   -1    0    0  501    0  0.00000000000E+00  0.00000000000E+00  0.50107195434E+03  0.50107195434E+03  0.00000000000E+00 0. -1.
         -1   -1    0    0    0  501 -0.00000000000E+00 -0.00000000000E+00 -0.11413531307E+03  0.11413531307E+03  0.00000000000E+00 0.  1.
         25    2    1    2    0    0 -0.14485069965E+03 -0.15420610689E+03  0.17072881865E+03  0.29926050036E+03  0.12508904415E+03 0.  0.
          5    1    3    3  502    0 -0.15395383212E+03 -0.13124857557E+03  0.10301567000E+03  0.22706314469E+03  0.41800000000E+01 0. -1.
         -5    1    3    3    0  502  0.91031324697E+01 -0.22957531318E+02  0.67713148649E+02  0.72197355665E+02  0.41800000000E+01 0. -1.
        -11    1    1    2    0    0  0.19009039208E+02  0.59970832794E+02  0.23294881687E+02  0.67085735223E+02  0.00000000000E+00 0.  1.
         11    1    1    2    0    0  0.12584166044E+03  0.94235274093E+02  0.19291294093E+03  0.24886103183E+03  0.00000000000E+00 0. -1.
</event>
<event>
 7    1  0.3056346E-009  0.1248851E+03  0.7561462E-02  0.1235249E+00
         -2   -1    0    0    0  501 -0.00000000000E+00  0.00000000000E+00  0.22176855267E+02  0.22176855267E+02  0.00000000000E+00 0.  1.
          2   -1    0    0  501    0  0.00000000000E+00 -0.00000000000E+00 -0.77011125287E+03  0.77011125287E+03  0.00000000000E+00 0. -1.
         25    2    1    2    0    0 -0.64120750296E+02 -0.90378450009E+01 -0.51613413395E+03  0.53500905249E+03  0.12508832386E+03 0.  0.
          5    1    3    3  502    0 -0.46665167602E+02  0.55065754243E+02 -0.22369519437E+03  0.23508910554E+03  0.41800000000E+01 0.  1.
         -5    1    3    3    0  502 -0.17455582694E+02 -0.64103599244E+02 -0.29243893957E+03  0.29991994695E+03  0.41800000000E+01 0.  1.
        -11    1    1    2    0    0  0.71344303649E+02  0.38151380716E+02 -0.15535090362E+03  0.17515547599E+03  0.00000000000E+00 0.  1.
         11    1    1    2    0    0 -0.72235533530E+01 -0.29113535715E+02 -0.76449360035E+02  0.82123579650E+02  0.00000000000E+00 0. -1.
</event>
<event>
 7    1  0.3056346E-009  0.1330834E+03  0.7561462E-02  0.1222951E+00
         -1   -1    0    0    0  501 -0.00000000000E+00  0.00000000000E+00  0.30702002269E+02  0.30702002269E+02  0.00000000000E+00 0.  1.
          1   -1    0    0  501    0  0.00000000000E+00 -0.00000000000E+00 -0.66031306428E+03  0.66031306428E+03  0.00000000000E+00 0. -1.
         25    2    1    2    0    0  0.84241887807E+02 -0.32756622323E+02 -0.37282168475E+03  0.40350060406E+03  0.12508811650E+03 0.  0.
          5    1    3    3  502    0  0.37907196585E+02 -0.68776296603E+02 -0.29862555108E+03  0.30880710271E+03  0.41800000000E+01 0. -1.
         -5    1    3    3    0  502  0.46334691222E+02  0.36019674280E+02 -0.74196133674E+02  0.94693501350E+02  0.41800000000E+01 0. -1.
        -11    1    1    2    0    0 -0.10432006597E+03  0.28808901623E+02 -0.22553606740E+03  0.25015824327E+03  0.00000000000E+00 0. -1.
         11    1    1    2    0    0  0.20078178166E+02  0.39477207003E+01 -0.31253309849E+02  0.37356219211E+02  0.00000000000E+00 0.  1.
</event>
<event>
 7    1  0.3056346E-009  0.1118547E+03  0.7561462E-02  0.1257173E+00
          2   -1    0    0  501    0  0.00000000000E+00  0.00000000000E+00  0.10407175594E+04  0.10407175594E+04  0.00000000000E+00 0. -1.
         -2   -1    0    0    0  501 -0.00000000000E+00 -0.00000000000E+00 -0.12659957309E+02  0.12659957309E+02  0.00000000000E+00 0.  1.
         25    2    1    2    0    0 -0.33832763496E+02  0.19789316658E+02  0.67949315202E+03  0.69202183657E+03  0.12508799184E+03 0.  0.
          5    1    3    3  502    0 -0.74529580873E+02 -0.15450256249E+02  0.35798519930E+03  0.36601126234E+03  0.41800000000E+01 0.  1.
         -5    1    3    3    0  502  0.40696817377E+02  0.35239572906E+02  0.32150795272E+03  0.32601057423E+03  0.41800000000E+01 0.  1.
        -11    1    1    2    0    0 -0.27365287020E+02 -0.17015510023E+02  0.15554739748E+03  0.15885017903E+03  0.00000000000E+00 0. -1.
         11    1    1    2    0    0  0.61198050516E+02 -0.27738066345E+01  0.19301705256E+03  0.20250550108E+03  0.00000000000E+00 0.  1.
</event>
<event>
 7    1  0.3056346E-009  0.1036528E+03  0.7561462E-02  0.1272797E+00
         -1   -1    0    0    0  501 -0.00000000000E+00  0.00000000000E+00  0.28911072677E+03  0.28911072677E+03  0.00000000000E+00 0.  1.
          1   -1    0    0  501    0  0.00000000000E+00 -0.00000000000E+00 -0.99278805225E+02  0.99278805225E+02  0.00000000000E+00 0. -1.
         25    2    1    2    0    0 -0.44391758920E+02 -0.47403517782E+02  0.23024970977E+03  0.26996300190E+03  0.12508945515E+03 0.  0.
          5    1    3    3  502    0 -0.70125460217E+02 -0.27399183253E+02  0.22421161751E+03  0.23655151076E+03  0.41800000000E+01 0.  1.
         -5    1    3    3    0  502  0.25733701297E+02 -0.20004334529E+02  0.60380922564E+01  0.33411491144E+02  0.41800000000E+01 0.  1.
        -11    1    1    2    0    0  0.41742789248E+02 -0.88944852648E+01 -0.44825378253E+02  0.61894158511E+02  0.00000000000E+00 0. -1.
         11    1    1    2    0    0  0.26489696720E+01  0.56298003047E+02  0.44075900342E+01  0.56532371588E+02  0.00000000000E+00 0.  1.
</event>
<event>
 7    1  0.3056346E-009  0.1183427E+03  0.7561462E-02  0.1245856E+00
         -2   -1    0    0    0  501 -0.00000000000E+00  0.00000000000E+00  0.15456785373E+03  0.15456785373E+03  0.00000000000E+00 0. -1.
          2   -1    0    0  501    0  0.00000000000E+00 -0.00000000000E+00 -0.16325581656E+03  0.16325581656E+03  0.00000000000E+00 0.  1.
         25    2    1    2    0    0 -0.57707654550E+02  0.93823511511E+02 -0.43838810205E+02  0.17234123849E+03  0.12508651605E+03 0.  0.
          5    1    3    3  502    0 -0.70227786022E+02  0.69898772276E+02 -0.79718913919E+02  0.12724133735E+03  0.41800000000E+01 0.  1.
         -5    1    3    3    0  502  0.12520131472E+02  0.23924739235E+02  0.35880103714E+02  0.45099901131E+02  0.41800000000E+01 0.  1.
        -11    1    1    2    0    0  0.16191890884E+02 -0.23893548947E+02  0.54693577338E+02  0.61842270444E+02  0.00000000000E+00 0. -1.
         11    1    1    2    0    0  0.41515763666E+02 -0.69929962564E+02 -0.19542729968E+02  0.83640161355E+02  0.00000000000E+00 0.  1.
</event>
<event>
 7    1  0.3056346E-009  0.1020332E+03  0.7561462E-02  0.1276078E+00
         -1   -1    0    0    0  501 -0.00000000000E+00  0.00000000000E+00  0.40054343166E+03  0.40054343166E+03  0.00000000000E+00 0.  1.
          1   -1    0    0  501    0  0.00000000000E+00 -0.00000000000E+00 -0.40211681948E+02  0.40211681948E+02  0.00000000000E+00 0. -1.
         25    2    1    2    0    0 -0.62590264331E+02 -0.47463884028E+01  0.22785288400E+03  0.26740344995E+03  0.12509036296E+03 0.  0.
          5    1    3    3  502    0 -0.37414828930E+02  0.43701255295E+02  0.19543360405E+03  0.20376809154E+03  0.41800000000E+01 0. -1.
         -5    1    3    3    0  502 -0.25175435401E+02 -0.48447643697E+02  0.32419279949E+02  0.63635358409E+02  0.41800000000E+01 0. -1.
        -11    1    1    2    0    0 -0.14455482622E+02  0.10078511497E+01 -0.53166523313E+01  0.15435139578E+02  0.00000000000E+00 0. -1.
         11    1    1    2    0    0  0.77045746953E+02  0.37385372531E+01  0.13779551804E+03  0.15791652408E+03  0.00000000000E+00 0.  1.
</event>
<event>
 7    1  0.3056346E-009  0.1155165E+03  0.7561462E-02  0.1250682E+00
         -1   -1    0    0    0  501 -0.00000000000E+00  0.00000000000E+00  0.21872921776E+03  0.21872921776E+03  0.00000000000E+00 0.  1.
          1   -1    0    0  501    0  0.00000000000E+00 -0.00000000000E+00 -0.70689936603E+02  0.70689936603E+02  0.00000000000E+00 0. -1.
         25    2    1    2    0    0 -0.36790701555E+02 -0.16707972638E+02  0.29982070250E+02  0.13482982608E+03  0.12508974936E+03 0.  0.
          5    1    3    3  502    0 -0.70874025309E+02 -0.47371142256E+02  0.21530624737E+02  0.88023819412E+02  0.41800000000E+01 0. -1.
         -5    1    3    3    0  502  0.34083323754E+02  0.30663169618E+02  0.84514455123E+01  0.46806006670E+02  0.41800000000E+01 0. -1.
        -11    1    1    2    0    0 -0.25716182672E+02 -0.14775184552E+02  0.31271045246E+02  0.43098798133E+02  0.00000000000E+00 0.  1.
         11    1    1    2    0    0  0.62506884227E+02  0.31483157190E+02  0.86786165659E+02  0.11149053015E+03  0.00000000000E+00 0. -1.
</event>
<event>
 7    1  0.3056346E-009  0.1309638E+03  0.7561462E-02  0.1226033E+00
         -2   -1    0    0    0  501 -0.00000000000E+00  0.00000000000E+00  0.14838080872E+02  0.14838080872E+02  0.00000000000E+00 0.  1.
          2   -1    0    0  501    0  0.00000000000E+00 -0.00000000000E+00 -0.14504675704E+04  0.14504675704E+04  0.00000000000E+00 0. -1.
         25    2    1    2    0    0  0.69271432028E+02  0.53825063646E+02 -0.10188090123E+04  0.10302009702E+04  0.12508623691E+03 0.  0.
          5    1    3    3  502    0  0.75623170403E+02  0.87767981572E+02 -0.84786806787E+03  0.85575686699E+03  0.41800000000E+01 0. -1.
         -5    1    3    3    0  502 -0.63517383744E+01 -0.33942917927E+02 -0.17094094445E+03  0.17444410322E+03  0.41800000000E+01 0. -1.
        -11    1    1    2    0    0 -0.54785124120E+02  0.70829000431E+00 -0.30469961864E+03  0.30958644851E+03  0.00000000000E+00 0. -1.
         11    1    1    2    0    0 -0.14486307908E+02 -0.54533353650E+02 -0.11212085854E+03  0.12551823253E+03  0.00000000000E+00 0.  1.
</event>
<event>
 7    1  0.3056346E-009  0.8669382E+02  0.7561462E-02  0.1311062E+00
         -1   -1    0    0    0  501 -0.00000000000E+00  0.00000000000E+00  0.11909827555E+02  0.11909827555E+02  0.00000000000E+00 0.  1.
          1   -1    0    0  501    0  0.00000000000E+00 -0.00000000000E+00 -0.10655904356E+04  0.10655904356E+04  0.00000000000E+00 0. -1.
         25    2    1    2    0    0 -0.25075876186E+02 -0.17753819194E+02 -0.62464067375E+03  0.63778456909E+03  0.12509671304E+03 0.  0.
          5    1    3    3  502    0 -0.40240180675E+02  0.13520073084E+02 -0.69534292699E+02  0.81575454507E+02  0.41800000000E+01 0. -1.
         -5    1    3    3    0  502  0.15164304489E+02 -0.31273892279E+02 -0.55510638105E+03  0.55620911459E+03  0.41800000000E+01 0. -1.
        -11    1    1    2    0    0  0.24305311483E+01 -0.36684101338E+02 -0.14192872980E+03  0.14661307962E+03  0.00000000000E+00 0.  1.
         11    1    1    2    0    0  0.22645345037E+02  0.54437920533E+02 -0.28711120446E+03  0.29310261440E+03  0.00000000000E+00 0. -1.
</event>
<event>
 7    1  0.3056346E-009  0.1071202E+03  0.7561462E-02  0.1265998E+00
          2   -1    0    0  501    0  0.00000000000E+00  0.00000000000E+00  0.56947286498E+03  0.56947286498E+03  0.00000000000E+00 0. -1.
         -2   -1    0    0    0  501 -0.00000000000E+00 -0.00000000000E+00 -0.34198863892E+02  0.34198863892E+02  0.00000000000E+00 0.  1.
         25    2    1    2    0    0  0.36194650169E+01  0.47531363296E+02  0.35248504657E+03  0.37704835187E+03  0.12508965014E+03 0.  0.
          5    1    3    3  502    0 -0.14243933922E+02  0.58641531227E+02  0.35030558378E+03  0.35549007478E+03  0.41800000000E+01 0. -1.
         -5    1    3    3    0  502  0.17863398939E+02 -0.11110167932E+02  0.21794627851E+01  0.21558277092E+02  0.41800000000E+01 0. -1.
        -11    1    1    2    0    0 -0.44249470763E+02  0.23774784352E+02  0.52656350470E+02  0.72773259365E+02  0.00000000000E+00 0.  1.
         11    1    1    2    0    0  0.40630005746E+02 -0.71306147648E+02  0.13013260406E+03  0.15385011764E+03  0.00000000000E+00 0. -1.
</event>
<event>
 7    1  0.3056346E-009  0.1420253E+03  0.7561462E-02  0.1210629E+00
         -2   -1    0    0    0  501 -0.00000000000E+00  0.00000000000E+00  0.22651482035E+03  0.22651482035E+03  0.00000000000E+00 0.  1.
          2   -1    0    0  501    0  0.00000000000E+00 -0.00000000000E+00 -0.11479567031E+03  0.11479567031E+03  0.00000000000E+00 0. -1.
         25    2    1    2    0    0  0.16728692901E+01 -0.11314398741E+03  0.97452247190E+02  0.19480449320E+03  0.12508992649E+03 0.  0.
          5    1    3    3  502    0  0.84312449763E+01 -0.12900944364E+03  0.11258337142E+03  0.17148472340E+03  0.41800000000E+01 0.  1.
         -5    1    3    3    0  502 -0.67583756862E+01  0.15865456225E+02 -0.15131124226E+02  0.23319769799E+02  0.41800000000E+01 0.  1.
        -11    1    1    2    0    0 -0.37196268621E+02  0.34820026836E+02  0.29925100322E+02  0.59088986262E+02  0.00000000000E+00 0. -1.
         11    1    1    2    0    0  0.35523399331E+02  0.78323960577E+02 -0.15658197473E+02  0.87417011208E+02  0.00000000000E+00 0.  1.
</event>
<event>
 7    1  0.3056346E-009  0.1672728E+03  0.7561462E-02  0.1180722E+00
         -1   -1    0    0    0  501 -0.00000000000E+00  0.00000000000E+00  0.18423514100E+03  0.18423514100E+03  0.00000000000E+00 0.  1.
          1   -1    0    0  501    0  0.00000000000E+00 -0.00000000000E+00 -0.19019683126E+03  0.19019683126E+03  0.00000000000E+00 0. -1.
         25    2    1    2    0    0 -0.98492407618E+02  0.10067639394E+03  0.52749339372E+02  0.19562008733E+03  0.12509290590E+03 0.  0.
          5    1    3    3  502    0 -0.33042527585E+02  0.10851799724E+03  0.61317085274E+02  0.12901636214E+03  0.41800000000E+01 0.  1.
         -5    1    3    3    0  502 -0.65449880033E+02 -0.78416033016E+01 -0.85677459013E+01  0.66603725185E+02  0.41800000000E+01 0.  1.
        -11    1    1    2    0    0  0.19808243345E+02 -0.66155637867E+02  0.86961698500E+01  0.69602861263E+02  0.00000000000E+00 0.  1.
         11    1    1    2    0    0  0.78684164273E+02 -0.34520756070E+02 -0.67407199485E+02  0.10920902366E+03  0.00000000000E+00 0. -1.
</event>
