<event>
 7    1  0.2564986E-009  0.1100688E+03  0.7561462E-02  0.1260443E+00
         -2   -1    0    0    0  501 -0.00000000000E+00  0.00000000000E+00  0.93886005015E+02  0.93886005015E+02  0.00000000000E+00 0.  1.
          2   -1    0    0  501    0  0.00000000000E+00 -0.00000000000E+00 -0.16606292048E+03  0.16606292048E+03  0.00000000000E+00 0. -1.
         25    2    1    2    0    0  0.10533032666E+02 -0.59701089376E+02 -0.45533247662E+02  0.14627509617E+03  0.12509181535E+03 0.  0.
          5    1    3    3  502    0  0.43780608426E+02  0.11050280876E+02  0.14513701079E+02  0.47612711544E+02  0.41800000000E+01 0.  1.
         -5    1    3    3    0  502 -0.33247575760E+02 -0.70751370252E+02 -0.60046948741E+02  0.98662384623E+02  0.41800000000E+01 0.  1.
        -11    1    1    2    0    0  0.28948680070E+02  0.46687703379E+02  0.12758750388E+02  0.56396395594E+02  0.00000000000E+00 0.  1.
         11    1    1    2    0    0 -0.39481712736E+02  0.13013385997E+02 -0.39402418191E+02  0.57277433732E+02  0.00000000000E+00 0. -1.
</event>
<event>
 7    1  0.2564986E-009  0.6370988E+02  0.7561462E-02  0.1382891E+00
         -3   -1    0    0    0  501 -0.00000000000E+00  0.00000000000E+00  0.20448706795E+03  0.20448706795E+03  0.00000000000E+00 0.  1.
          3   -1    0    0  501    0  0.00000000000E+00 -0.00000000000E+00 -0.67514803330E+02  0.67514803330E+02  0.00000000000E+00 0. -1.
         25    2    1    2    0    0  0.37888297915E+02  0.53445225495E+00  0.49676972685E+02  0.13982298145E+03  0.12508739252E+03 0.  0.
          5    1    3    3  502    0  0.19616357965E+02 -0.15016479931E+02  0.89611117433E+02  0.93047949666E+02  0.41800000000E+01 0.  1.
         -5    1    3    3    0  502  0.18271939950E+02  0.15550932186E+02 -0.39934144748E+02  0.46775031781E+02  0.41800000000E+01 0.  1.
        -11    1    1    2    0    0 -0.95505663652E+01  0.32855472416E+02 -0.33238526664E+00  0.34217040572E+02  0.00000000000E+00 0. -1.
         11    1    1    2    0    0 -0.28337731550E+02 -0.33389924671E+02  0.87627677206E+02  0.97961849265E+02  0.00000000000E+00 0.  1.
</event>
<event>
 7    1  0.2564986E-009  0.9882388E+02  0.7561462E-02  0.1282789E+00
         -1   -1    0    0    0  501 -0.00000000000E+00  0.00000000000E+00  0.94046484682E+02  0.94046484682E+02  0.00000000000E+00 0.  1.
          1   -1    0    0  501    0  0.00000000000E+00 -0.00000000000E+00 -0.17773174605E+03  0.17773174605E+03  0.00000000000E+00 0. -1.
         25    2    1    2    0    0 -0.43973096588E+02 -0.28984056166E+02 -0.85524878796E+02  0.16043468345E+03  0.12510425263E+03 0.  0.
          5    1    3    3  502    0  0.29458280166E+01 -0.39189735628E+02  0.20095106497E+02  0.44337331746E+02  0.41800000000E+01 0. -1.
         -5    1    3    3    0  502 -0.46918924604E+02  0.10205679462E+02 -0.10561998529E+03  0.11609735170E+03  0.41800000000E+01 0. -1.
        -11    1    1    2    0    0 -0.82748187469E+01 -0.30006352626E+02 -0.74230292809E+01  0.31999299788E+02  0.00000000000E+00 0. -1.
         11    1    1    2    0    0  0.52247915334E+02  0.58990408791E+02  0.92626467101E+01  0.79344247493E+02  0.00000000000E+00 0.  1.
</event>
<event>
 7    1  0.2564986E-009  0.1184447E+03  0.7561462E-02  0.1245685E+00
         -1   -1    0    0    0  501 -0.00000000000E+00  0.00000000000E+00  0.40872216208E+03  0.40872216208E+03  0.00000000000E+00 0.  1.
          1   -1    0    0  501    0  0.00000000000E+00 -0.00000000000E+00 -0.49336068644E+02  0.49336068644E+02  0.00000000000E+00 0. -1.
         25    2    1    2    0    0  0.85233862520E+02 -0.51151673759E+01  0.25131682981E+03  0.29342426254E+03  0.12508666053E+03 0.  0.
          5    1    3    3  502    0  0.94111624158E+02 -0.42722836162E+02  0.13058057326E+03  0.16658630509E+03  0.41800000000E+01 0.  1.
         -5    1    3    3    0  502 -0.88777616381E+01  0.37607668786E+02  0.12073625655E+03  0.12683795744E+03  0.41800000000E+01 0.  1.
        -11    1    1    2    0    0 -0.54005144782E+02  0.22883741357E+02  0.91135013156E+01  0.59357199965E+02  0.00000000000E+00 0. -1.
         11    1    1    2    0    0 -0.31228717737E+02 -0.17768573981E+02  0.98955762311E+02  0.10527676822E+03  0.00000000000E+00 0.  1.
</event>
<event>
 7    1  0.2564986E-009  0.1237436E+03  0.7561462E-02  0.1237046E+00
          4   -1    0    0  501    0  0.00000000000E+00  0.00000000000E+00  0.34820570388E+03  0.34820570388E+03  0.00000000000E+00 0. -1.
         -4   -1    0    0    0  501 -0.00000000000E+00 -0.00000000000E+00 -0.66699169509E+02  0.66699169509E+02  0.00000000000E+00 0.  1.
         25    2    1    2    0    0  0.85156734733E+02  0.63594602156E+02  0.16228491203E+03  0.23082702926E+03  0.12509509132E+03 0.  0.
          5    1    3    3  502    0  0.47829924078E+02  0.17151145628E+02 -0.68621361762E+01  0.51443413053E+02  0.41800000000E+01 0. -1.
         -5    1    3    3    0  502  0.37326810656E+02  0.46443456529E+02  0.16914704820E+03  0.17938361621E+03  0.41800000000E+01 0. -1.
        -11    1    1    2    0    0 -0.98484711745E+02 -0.33783649167E+02  0.10676318937E+03  0.14912730133E+03  0.00000000000E+00 0. -1.
         11    1    1    2    0    0  0.13327977011E+02 -0.29810952989E+02  0.12458432970E+02  0.34950542791E+02  0.00000000000E+00 0.  1.
</event>
<event>
 7    1  0.2564986E-009  0.1763759E+03  0.7561462E-02  0.1171357E+00
         -1   -1    0    0    0  501 -0.00000000000E+00  0.00000000000E+00  0.69073550474E+03  0.69073550474E+03  0.00000000000E+00 0.  1.
          1   -1    0    0  501    0  0.00000000000E+00 -0.00000000000E+00 -0.66761350060E+02  0.66761350060E+02  0.00000000000E+00 0. -1.
         25    2    1    2    0    0 -0.27499053174E+01  0.15982485336E+03  0.48669269981E+03  0.52732262401E+03  0.12509124677E+03 0.  0.
          5    1    3    3  502    0  0.40804633365E+02  0.12037947747E+03  0.21921325241E+03  0.25343275071E+03  0.41800000000E+01 0.  1.
         -5    1    3    3    0  502 -0.43554538682E+02  0.39445375895E+02  0.26747944740E+03  0.27388987330E+03  0.41800000000E+01 0.  1.
        -11    1    1    2    0    0 -0.17906347764E+02 -0.28025821556E+02 -0.66590381252E+01  0.33917941460E+02  0.00000000000E+00 0.  1.
         11    1    1    2    0    0  0.20656253082E+02 -0.13179903180E+03  0.14394049299E+03  0.19625628933E+03  0.00000000000E+00 0. -1.
</event>
<event>
 7    1  0.2564986E-009  0.2570722E+03  0.7561462E-02  0.1108915E+00
         -2   -1    0    0    0  501 -0.00000000000E+00  0.00000000000E+00  0.16455449944E+03  0.16455449944E+03  0.00000000000E+00 0. -1.
          2   -1    0    0  501    0  0.00000000000E+00 -0.00000000000E+00 -0.47365487344E+03  0.47365487344E+03  0.00000000000E+00 0.  1.
         25    2    1    2    0    0 -0.34019858695E+02  0.24658758494E+03 -0.23098578143E+03  0.36189180627E+03  0.12509380635E+03 0.  0.
          5    1    3    3  502    0 -0.12327922172E+02  0.10368337084E+03 -0.18080532651E+03  0.20883069111E+03  0.41800000000E+01 0.  1.
         -5    1    3    3    0  502 -0.21691936523E+02  0.14290421410E+03 -0.50180454918E+02  0.15306111516E+03  0.41800000000E+01 0.  1.
        -11    1    1    2    0    0  0.58172201808E+02 -0.93897780715E+02 -0.32216858458E+02  0.11505965520E+03  0.00000000000E+00 0.  1.
         11    1    1    2    0    0 -0.24152343113E+02 -0.15268980423E+03 -0.45897734115E+02  0.16125791140E+03  0.00000000000E+00 0. -1.
</event>
<event>
 7    1  0.2564986E-009  0.1278614E+03  0.7561462E-02  0.1230664E+00
         -2   -1    0    0    0  501 -0.00000000000E+00  0.00000000000E+00  0.36282912738E+02  0.36282912738E+02  0.00000000000E+00 0.  1.
          2   -1    0    0  501    0  0.00000000000E+00 -0.00000000000E+00 -0.46971881487E+03  0.46971881487E+03  0.00000000000E+00 0. -1.
         25    2    1    2    0    0  0.68739126355E+01 -0.71292055765E+02 -0.26900671724E+03  0.30519191222E+03  0.12509069299E+03 0.  0.
          5    1    3    3  502    0 -0.53839818333E+02 -0.57624991516E+02 -0.17940950413E+03  0.19602195861E+03  0.41800000000E+01 0. -1.
         -5    1    3    3    0  502  0.60713730969E+02 -0.13667064249E+02 -0.89597213110E+02  0.10916995361E+03  0.41800000000E+01 0. -1.
        -11    1    1    2    0    0 -0.48156247442E+02  0.38461557585E+02 -0.76044252954E+02  0.97882807413E+02  0.00000000000E+00 0. -1.
         11    1    1    2    0    0  0.41282334807E+02  0.32830498179E+02 -0.88384931935E+02  0.10292700798E+03  0.00000000000E+00 0.  1.
</event>
<event>
 7    1  0.2564986E-009  0.9750396E+02  0.7561462E-02  0.1285634E+00
          2   -1    0    0  501    0  0.00000000000E+00  0.00000000000E+00  0.75024576274E+02  0.75024576274E+02  0.00000000000E+00 0. -1.
         -2   -1    0    0    0  501 -0.00000000000E+00 -0.00000000000E+00 -0.24712486101E+03  0.24712486101E+03  0.00000000000E+00 0.  1.
         25    2    1    2    0    0 -0.43449842494E+01 -0.52791693436E+02 -0.23547468279E+02  0.13786955941E+03  0.12509072853E+03 0.  0.
          5    1    3    3  502    0  0.25995391719E+02 -0.64414204933E+02  0.29452048632E+02  0.75563521335E+02  0.41800000000E+01 0. -1.
         -5    1    3    3    0  502 -0.30340375969E+02  0.11622511498E+02 -0.52999516912E+02  0.62306038073E+02  0.41800000000E+01 0. -1.
        -11    1    1    2    0    0  0.39505401992E+02  0.36970385337E+02 -0.13135528567E+03  0.14206230060E+03  0.00000000000E+00 0.  1.
         11    1    1    2    0    0 -0.35160417743E+02  0.15821308099E+02 -0.17197530785E+02  0.42217577274E+02  0.00000000000E+00 0. -1.
</event>
<event>
 7    1  0.2617267E-009  0.9340323E+02  0.7561462E-02  0.1294813E+00
          2   -1    0    0  501    0  0.00000000000E+00  0.00000000000E+00  0.46132171223E+03  0.46132171223E+03  0.00000000000E+00 0. -1.
         -2   -1    0    0    0  501 -0.00000000000E+00 -0.00000000000E+00 -0.29418652521E+02  0.29418652521E+02  0.00000000000E+00 0.  1.
         25    2    1    2    0    0 -0.21274082746E+02 -0.33693567184E+02  0.27609500730E+03  0.30571781830E+03  0.12508832201E+03 0.  0.
          5    1    3    3  502    0 -0.25873969003E+02 -0.68768636708E+02  0.90069113259E+02  0.11631210268E+03  0.41800000000E+01 0.  1.
         -5    1    3    3    0  502  0.45998862577E+01  0.35075069525E+02  0.18602589404E+03  0.18940571562E+03  0.41800000000E+01 0.  1.
        -11    1    1    2    0    0  0.16824969949E+02  0.54125551483E+02  0.45314180415E+02  0.72567416130E+02  0.00000000000E+00 0.  1.
         11    1    1    2    0    0  0.44491127970E+01 -0.20431984299E+02  0.11049387199E+03  0.11245513032E+03  0.00000000000E+00 0. -1.
</event>
<event>
 7    1  0.2564986E-009  0.1299350E+03  0.7561462E-02  0.1227552E+00
          1   -1    0    0  501    0  0.00000000000E+00  0.00000000000E+00  0.11653160953E+04  0.11653160953E+04  0.00000000000E+00 0. -1.
         -1   -1    0    0    0  501 -0.00000000000E+00 -0.00000000000E+00 -0.20975850719E+02  0.20975850719E+02  0.00000000000E+00 0.  1.
         25    2    1    2    0    0 -0.26806594572E+02  0.92914868667E+02  0.83402158158E+03  0.84887678148E+03  0.12509206716E+03 0.  0.
          5    1    3    3  502    0  0.17722526854E+02  0.97608616907E+02  0.71087571657E+03  0.71777662741E+03  0.41800000000E+01 0.  1.
         -5    1    3    3    0  502 -0.44529121426E+02 -0.46937482400E+01  0.12314586500E+03  0.13110015406E+03  0.41800000000E+01 0.  1.
        -11    1    1    2    0    0  0.47518736234E+02 -0.71176573224E+02  0.13713716783E+03  0.16165004692E+03  0.00000000000E+00 0.  1.
         11    1    1    2    0    0 -0.20712141662E+02 -0.21738295443E+02  0.17318149515E+03  0.17576511760E+03  0.00000000000E+00 0. -1.
</event>
<event>
 7    1  0.2564986E-009  0.9668753E+02  0.7561462E-02  0.1287420E+00
          1   -1    0    0  501    0  0.00000000000E+00  0.00000000000E+00  0.42698641385E+02  0.42698641385E+02  0.00000000000E+00 0.  1.
         -1   -1    0    0    0  501 -0.00000000000E+00 -0.00000000000E+00 -0.35568170405E+03  0.35568170405E+03  0.00000000000E+00 0. -1.
         25    2    1    2    0    0  0.34640224241E+02  0.89312437444E+01 -0.24880359719E+03  0.28076778329E+03  0.12509039096E+03 0.  0.
          5    1    3    3  502    0 -0.24913953330E+01 -0.45012707593E+02 -0.18033044561E+03  0.18592711719E+03  0.41800000000E+01 0.  1.
         -5    1    3    3    0  502  0.37131619574E+02  0.53943951338E+02 -0.68473151581E+02  0.94840666096E+02  0.41800000000E+01 0.  1.
        -11    1    1    2    0    0 -0.44024425489E+02 -0.34055475022E+02 -0.70730918604E+02  0.90004379144E+02  0.00000000000E+00 0. -1.
         11    1    1    2    0    0  0.93842012478E+01  0.25124231278E+02  0.65514531280E+01  0.27608182998E+02  0.00000000000E+00 0.  1.
</event>
<event>
 7    1  0.2564986E-009  0.1032057E+03  0.7561462E-02  0.1273696E+00
          2   -1    0    0  501    0  0.00000000000E+00  0.00000000000E+00  0.11555783362E+04  0.11555783362E+04  0.00000000000E+00 0. -1.
         -2   -1    0    0    0  501 -0.00000000000E+00 -0.00000000000E+00 -0.12279457484E+02  0.12279457484E+02  0.00000000000E+00 0.  1.
         25    2    1    2    0    0  0.54251919357E+01 -0.29413242000E+02  0.82849726245E+03  0.83842067512E+03  0.12508774143E+03 0.  0.
          5    1    3    3  502    0  0.62218788095E+02 -0.23756223574E+02  0.55521243023E+03  0.55920823567E+03  0.41800000000E+01 0. -1.
         -5    1    3    3    0  502 -0.56793596159E+02 -0.56570184254E+01  0.27328483222E+03  0.27921243945E+03  0.41800000000E+01 0. -1.
        -11    1    1    2    0    0 -0.40527712477E+02  0.79238626819E+01  0.24458830622E+03  0.24804983898E+03  0.00000000000E+00 0. -1.
         11    1    1    2    0    0  0.35102520542E+02  0.21489379318E+02  0.70213310048E+02  0.81387279595E+02  0.00000000000E+00 0.  1.
</event>
<event>
 7    1  0.2564986E-009  0.1216466E+03  0.7561462E-02  0.1240405E+00
          2   -1    0    0  501    0  0.00000000000E+00  0.00000000000E+00  0.15753483852E+03  0.15753483852E+03  0.00000000000E+00 0. -1.
         -2   -1    0    0    0  501 -0.00000000000E+00 -0.00000000000E+00 -0.13540177078E+03  0.13540177078E+03  0.00000000000E+00 0.  1.
         25    2    1    2    0    0 -0.56360366693E+02  0.44950085035E+02  0.78743935219E+02  0.16445504495E+03  0.12509138019E+03 0.  0.
          5    1    3    3  502    0 -0.15338168247E+02  0.79166207712E+02  0.16662191452E+02  0.82447855477E+02  0.41800000000E+01 0.  1.
         -5    1    3    3    0  502 -0.41022198446E+02 -0.34216122677E+02  0.62081743767E+02  0.82007189475E+02  0.41800000000E+01 0.  1.
        -11    1    1    2    0    0  0.10309288882E+02  0.23959728106E+02 -0.33464722007E+02  0.42429207242E+02  0.00000000000E+00 0.  1.
         11    1    1    2    0    0  0.46051077811E+02 -0.68909813142E+02 -0.23146145471E+02  0.86052357114E+02  0.00000000000E+00 0. -1.
</event>
<event>
 7    1  0.2564986E-009  0.1919919E+03  0.7561462E-02  0.1156677E+00
          1   -1    0    0  501    0  0.00000000000E+00  0.00000000000E+00  0.13680234230E+04  0.13680234230E+04  0.00000000000E+00 0. -1.
         -1   -1    0    0    0  501 -0.00000000000E+00 -0.00000000000E+00 -0.31312152289E+02  0.31312152289E+02  0.00000000000E+00 0.  1.
         25    2    1    2    0    0  0.11070103710E+03  0.12938356965E+03  0.53958923225E+03  0.57948070445E+03  0.12508604860E+03 0.  0.
          5    1    3    3  502    0  0.92923768737E+02  0.15432464406E+03  0.46877696629E+03  0.50221533139E+03  0.41800000000E+01 0.  1.
         -5    1    3    3    0  502  0.17777268364E+02 -0.24941074408E+02  0.70812265962E+02  0.77265373058E+02  0.41800000000E+01 0.  1.
        -11    1    1    2    0    0 -0.94832378574E+02 -0.91364261422E+02  0.72441970233E+03  0.73629105211E+03  0.00000000000E+00 0. -1.
         11    1    1    2    0    0 -0.15868658527E+02 -0.38019308231E+02  0.72702336110E+02  0.83563818712E+02  0.00000000000E+00 0.  1.
</event>
<event>
 7    1  0.2564986E-009  0.1511329E+03  0.7561462E-02  0.1199088E+00
          1   -1    0    0  501    0  0.00000000000E+00  0.00000000000E+00  0.29924296230E+03  0.29924296230E+03  0.00000000000E+00 0. -1.
         -1   -1    0    0    0  501 -0.00000000000E+00 -0.00000000000E+00 -0.10549960623E+03  0.10549960623E+03  0.00000000000E+00 0.  1.
         25    2    1    2    0    0  0.11723914369E+03  0.73688490970E+02  0.74773405506E+02  0.20101886715E+03  0.12507002944E+03 0.  0.
          5    1    3    3  502    0  0.96485006364E+02  0.12001094774E+02  0.91618615288E+02  0.13365936479E+03  0.41800000000E+01 0. -1.
         -5    1    3    3    0  502  0.20754137327E+02  0.61687396196E+02 -0.16845209782E+02  0.67359502360E+02  0.41800000000E+01 0. -1.
        -11    1    1    2    0    0 -0.68533903907E+02 -0.53760283139E+02  0.16673792841E+02  0.88685282858E+02  0.00000000000E+00 0.  1.
         11    1    1    2    0    0 -0.48705239784E+02 -0.19928207832E+02  0.10229615773E+03  0.11503841852E+03  0.00000000000E+00 0. -1.
</event>
<event>
 7    1  0.2564986E-009  0.2184785E+03  0.7561462E-02  0.1135022E+00
          3   -1    0    0  501    0  0.00000000000E+00  0.00000000000E+00  0.83561009985E+02  0.83561009985E+02  0.00000000000E+00 0. -1.
         -3   -1    0    0    0  501 -0.00000000000E+00 -0.00000000000E+00 -0.91487001588E+03  0.91487001588E+03  0.00000000000E+00 0.  1.
         25    2    1    2    0    0  0.51104550856E+02 -0.20563740760E+03 -0.17265937145E+03  0.30059568193E+03  0.12509231362E+03 0.  0.
          5    1    3    3  502    0  0.13491671243E+02 -0.16360210562E+03 -0.17989671489E+03  0.24357334539E+03  0.41800000000E+01 0.  1.
         -5    1    3    3    0  502  0.37612879613E+02 -0.42035301975E+02  0.72373434374E+01  0.57022336544E+02  0.41800000000E+01 0.  1.
        -11    1    1    2    0    0 -0.54898769937E+02  0.13912849634E+03 -0.32729924786E+03  0.35985470830E+03  0.00000000000E+00 0.  1.
         11    1    1    2    0    0  0.37942190810E+01  0.66508911259E+02 -0.33135038658E+03  0.33798063563E+03  0.00000000000E+00 0. -1.
</event>
<event>
 7    1  0.2564986E-009  0.2908303E+03  0.7561462E-02  0.1089916E+00
          3   -1    0    0  501    0  0.00000000000E+00  0.00000000000E+00  0.25429513798E+03  0.25429513798E+03  0.00000000000E+00 0. -1.
         -3   -1    0    0    0  501 -0.00000000000E+00 -0.00000000000E+00 -0.37345776189E+03  0.37345776189E+03  0.00000000000E+00 0.  1.
         25    2    1    2    0    0 -0.15953955043E+03 -0.23479659318E+03 -0.12370423789E+02  0.31045601139E+03  0.12509036456E+03 0.  0.
          5    1    3    3  502    0 -0.14117488030E+03 -0.13517387237E+03 -0.50863633335E+02  0.20200718847E+03  0.41800000000E+01 0.  1.
         -5    1    3    3    0  502 -0.18364670126E+02 -0.99622720817E+02  0.38493209546E+02  0.10844882292E+03  0.41800000000E+01 0.  1.
        -11    1    1    2    0    0  0.10150807192E+03  0.16804839947E+03 -0.26997153429E+02  0.19817416462E+03  0.00000000000E+00 0. -1.
         11    1    1    2    0    0  0.58031478512E+02  0.66748193712E+02 -0.79795046691E+02  0.11912272385E+03  0.00000000000E+00 0.  1.
</event>
<event>
 7    1  0.2564986E-009  0.1181643E+03  0.7561462E-02  0.1246157E+00
         -2   -1    0    0    0  501 -0.00000000000E+00  0.00000000000E+00  0.12821351470E+03  0.12821351470E+03  0.00000000000E+00 0.  1.
          2   -1    0    0  501    0  0.00000000000E+00 -0.00000000000E+00 -0.18051913647E+03  0.18051913647E+03  0.00000000000E+00 0. -1.
         25    2    1    2    0    0 -0.11227991506E+02 -0.46018832327E+02 -0.10858580839E+03  0.17228449754E+03  0.12508904664E+03 0.  0.
          5    1    3    3  502    0 -0.45641501671E+02  0.22992173792E+02 -0.20723860146E+02  0.55305854209E+02  0.41800000000E+01 0.  1.
         -5    1    3    3    0  502  0.34413510165E+02 -0.69011006119E+02 -0.87861948244E+02  0.11697864334E+03  0.41800000000E+01 0.  1.
        -11    1    1    2    0    0  0.17062446416E+02  0.75687324552E+02  0.68823495760E+02  0.10371292949E+03  0.00000000000E+00 0. -1.
         11    1    1    2    0    0 -0.58344549102E+01 -0.29668492225E+02 -0.12543309140E+02  0.32735224135E+02  0.00000000000E+00 0.  1.
</event>
<event>
 7    1  0.2564986E-009  0.7625357E+02  0.7561462E-02  0.1340033E+00
         -2   -1    0    0    0  501 -0.00000000000E+00  0.00000000000E+00  0.23469540742E+02  0.23469540742E+02  0.00000000000E+00 0.  1.
          2   -1    0    0  501    0  0.00000000000E+00 -0.00000000000E+00 -0.58843169184E+03  0.58843169184E+03  0.00000000000E+00 0. -1.
         25    2    1    2    0    0  0.83681688658E+01 -0.40458490679E+02 -0.35891510437E+03  0.38232589489E+03  0.12508445961E+03 0.  0.
          5    1    3    3  502    0 -0.14739804304E+02 -0.38522080266E+01 -0.32936962953E+03  0.32974827762E+03  0.41800000000E+01 0.  1.
         -5    1    3    3    0  502  0.23107973170E+02 -0.36606282653E+02 -0.29545474842E+02  0.52577617265E+02  0.41800000000E+01 0.  1.
        -11    1    1    2    0    0  0.34013838275E+02  0.37656005542E+02 -0.15540175244E+03  0.16347666686E+03  0.00000000000E+00 0.  1.
         11    1    1    2    0    0 -0.42382007141E+02  0.28024851374E+01 -0.50645294285E+02  0.66098670830E+02  0.00000000000E+00 0. -1.
</event>
<event>
 7    1  0.2564986E-009  0.1647250E+03  0.7561462E-02  0.1183463E+00
         -1   -1    0    0    0  501 -0.00000000000E+00  0.00000000000E+00  0.16947872747E+03  0.16947872747E+03  0.00000000000E+00 0.  1.
          1   -1    0    0  501    0  0.00000000000E+00 -0.00000000000E+00 -0.30494668685E+03  0.30494668685E+03  0.00000000000E+00 0. -1.
         25    2    1    2    0    0  0.56828633889E+02 -0.13324218888E+03 -0.21295440886E+03  0.28632191920E+03  0.12509071363E+03 0.  0.
          5    1    3    3  502    0  0.25911821844E+02  0.28165173878E+01  0.56079644720E+01  0.26986606808E+02  0.41800000000E+01 0.  1.
         -5    1    3    3    0  502  0.30916812044E+02 -0.13605870626E+03 -0.21856237333E+03  0.25933531239E+03  0.41800000000E+01 0.  1.
        -11    1    1    2    0    0 -0.44067350253E+02  0.18139364674E+02 -0.19089344543E+01  0.47692891922E+02  0.00000000000E+00 0. -1.
         11    1    1    2    0    0 -0.12761283636E+02  0.11510282420E+03  0.79395383939E+02  0.14041060320E+03  0.00000000000E+00 0.  1.
</event>
<event>
 7    1  0.2564986E-009  0.1318183E+03  0.7561462E-02  0.1224782E+00
         -1   -1    0    0    0  501 -0.00000000000E+00  0.00000000000E+00  0.32984318782E+03  0.32984318782E+03  0.00000000000E+00 0.  1.
          1   -1    0    0  501    0  0.00000000000E+00 -0.00000000000E+00 -0.74781725403E+02  0.74781725403E+02  0.00000000000E+00 0. -1.
         25    2    1    2    0    0  0.44742843079E+02  0.61379415496E+02  0.23841376885E+03  0.27974620783E+03  0.12508981159E+03 0.  0.
          5    1    3    3  502    0  0.35315351146E+02 -0.31123334462E+02  0.45736598551E+02  0.65765833239E+02  0.41800000000E+01 0. -1.
         -5    1    3    3    0  502  0.94274919333E+01  0.92502749959E+02  0.19267717030E+03  0.21398037459E+03  0.41800000000E+01 0. -1.
        -11    1    1    2    0    0 -0.11925045235E+02  0.26735822896E+02 -0.60403175624E+00  0.29280979905E+02  0.00000000000E+00 0. -1.
         11    1    1    2    0    0 -0.32817797844E+02 -0.88115238393E+02  0.17251725323E+02  0.95597725491E+02  0.00000000000E+00 0.  1.
</event>
<event>
 7    1  0.2564986E-009  0.1241865E+03  0.7561462E-02  0.1236346E+00
         -1   -1    0    0    0  501 -0.00000000000E+00  0.00000000000E+00  0.14441959749E+03  0.14441959749E+03  0.00000000000E+00 0.  1.
          1   -1    0    0  501    0  0.00000000000E+00 -0.00000000000E+00 -0.18661489340E+03  0.18661489340E+03  0.00000000000E+00 0. -1.
         25    2    1    2    0    0  0.27454858984E+02 -0.11807252322E+03 -0.50541908458E+01  0.17426260093E+03  0.12508804585E+03 0.  0.
          5    1    3    3  502    0  0.16364930509E+02 -0.71107595244E+02  0.59019454944E+02  0.93940776630E+02  0.41800000000E+01 0.  1.
         -5    1    3    3    0  502  0.11089928475E+02 -0.46964927980E+02 -0.64073645790E+02  0.80321824298E+02  0.41800000000E+01 0.  1.
        -11    1    1    2    0    0 -0.24351383990E+02  0.29629249092E+02  0.27489591557E+02  0.47186438178E+02  0.00000000000E+00 0.  1.
         11    1    1    2    0    0 -0.31034749940E+01  0.88443274131E+02 -0.64630696625E+02  0.10958545178E+03  0.00000000000E+00 0. -1.
</event>
<event>
 7    1  0.2564986E-009  0.8645774E+02  0.7561462E-02  0.1311664E+00
          1   -1    0    0  501    0  0.00000000000E+00  0.00000000000E+00  0.19781848016E+03  0.19781848016E+03  0.00000000000E+00 0. -1.
         -1   -1    0    0    0  501 -0.00000000000E+00 -0.00000000000E+00 -0.10738373010E+03  0.10738373010E+03  0.00000000000E+00 0.  1.
         25    2    1    2    0    0  0.17966348628E+02 -0.29182730720E+01  0.14930232604E+03  0.19562563222E+03  0.12508755902E+03 0.  0.
          5    1    3    3  502    0 -0.34679888160E+02  0.25118332854E+02  0.12299249673E+03  0.13030062141E+03  0.41800000000E+01 0.  1.
         -5    1    3    3    0  502  0.52646236787E+02 -0.28036605925E+02  0.26309829317E+02  0.65325010818E+02  0.41800000000E+01 0.  1.
        -11    1    1    2    0    0 -0.41264842505E+02  0.14934021857E+02  0.13453643958E+01  0.43904694979E+02  0.00000000000E+00 0. -1.
         11    1    1    2    0    0  0.23298493878E+02 -0.12015748785E+02 -0.60212940381E+02  0.65671883063E+02  0.00000000000E+00 0.  1.
</event>
<event>
 7    1  0.2564986E-009  0.7633327E+02  0.7561462E-02  0.1339791E+00
          1   -1    0    0  501    0  0.00000000000E+00  0.00000000000E+00  0.10304096473E+03  0.10304096473E+03  0.00000000000E+00 0.  1.
         -1   -1    0    0    0  501 -0.00000000000E+00 -0.00000000000E+00 -0.15891826312E+03  0.15891826312E+03  0.00000000000E+00 0. -1.
         25    2    1    2    0    0  0.95964232556E+01 -0.24977296605E+01  0.36029111270E+02  0.13054247060E+03  0.12507961376E+03 0.  0.
          5    1    3    3  502    0  0.50273200340E+02 -0.45572004821E+01 -0.25443329090E+02  0.56683314510E+02  0.41800000000E+01 0.  1.
         -5    1    3    3    0  502 -0.40676777085E+02  0.20594708217E+01  0.61472440360E+02  0.73859156087E+02  0.41800000000E+01 0.  1.
        -11    1    1    2    0    0 -0.34587427661E+02 -0.50766076977E+01  0.93725861032E+00  0.34970566933E+02  0.00000000000E+00 0.  1.
         11    1    1    2    0    0  0.24991004405E+02  0.75743373581E+01 -0.92843668279E+02  0.96446190320E+02  0.00000000000E+00 0. -1.
</event>
<event>
 7    1  0.2564986E-009  0.7821570E+02  0.7561462E-02  0.1334193E+00
          2   -1    0    0  501    0  0.00000000000E+00  0.00000000000E+00  0.39643235160E+03  0.39643235160E+03  0.00000000000E+00 0.  1.
         -2   -1    0    0    0  501 -0.00000000000E+00 -0.00000000000E+00 -0.33434126855E+02  0.33434126855E+02  0.00000000000E+00 0. -1.
         25    2    1    2    0    0 -0.12388787758E+02  0.14961550940E+02  0.14335896473E+03  0.19124929863E+03  0.12508865411E+03 0.  0.
          5    1    3    3  502    0  0.65749648267E+01  0.43472255819E+02  0.14978471107E+03  0.15616017181E+03  0.41800000000E+01 0. -1.
         -5    1    3    3    0  502 -0.18963752584E+02 -0.28510704878E+02 -0.64257463420E+01  0.35089126817E+02  0.41800000000E+01 0. -1.
        -11    1    1    2    0    0 -0.13977412304E+02 -0.39409081581E+02  0.18128266414E+03  0.18604259750E+03  0.00000000000E+00 0.  1.
         11    1    1    2    0    0  0.26366200062E+02  0.24447530641E+02  0.38356595868E+02  0.52574582325E+02  0.00000000000E+00 0. -1.
</event>
<event>
 7    1  0.2564986E-009  0.1972821E+03  0.7561462E-02  0.1152053E+00
         -1   -1    0    0    0  501 -0.00000000000E+00  0.00000000000E+00  0.95290720315E+02  0.95290720315E+02  0.00000000000E+00 0.  1.
          1   -1    0    0  501    0  0.00000000000E+00 -0.00000000000E+00 -0.48618657027E+03  0.48618657027E+03  0.00000000000E+00 0. -1.
         25    2    1    2    0    0 -0.13368036318E+03 -0.12213001109E+03 -0.26705112716E+03  0.34604751502E+03  0.12508556682E+03 0.  0.
          5    1    3    3  502    0 -0.89826340456E+02 -0.13913532914E+03 -0.16607626127E+03  0.23457665743E+03  0.41800000000E+01 0.  1.
         -5    1    3    3    0  502 -0.43854022722E+02  0.17005318046E+02 -0.10097486589E+03  0.11147085759E+03  0.41800000000E+01 0.  1.
        -11    1    1    2    0    0  0.64138063405E+02  0.48599224993E+02 -0.68911683760E+01  0.80765487981E+02  0.00000000000E+00 0.  1.
         11    1    1    2    0    0  0.69542299773E+02  0.73530786098E+02 -0.11695355442E+03  0.15466428758E+03  0.00000000000E+00 0. -1.
</event>
<event>
 7    1  0.2564986E-009  0.1166541E+03  0.7561462E-02  0.1248721E+00
         -1   -1    0    0    0  501 -0.00000000000E+00  0.00000000000E+00  0.20727064276E+03  0.20727064276E+03  0.00000000000E+00 0.  1.
          1   -1    0    0  501    0  0.00000000000E+00 -0.00000000000E+00 -0.85645032577E+02  0.85645032577E+02  0.00000000000E+00 0. -1.
         25    2    1    2    0    0 -0.67101572397E+02  0.17227140553E+02  0.27582856668E+02  0.14562758549E+03  0.12508870566E+03 0.  0.
          5    1    3    3  502    0 -0.72426504539E+02  0.52626272812E+02  0.50543670993E+02  0.10289440328E+03  0.41800000000E+01 0. -1.
         -5    1    3    3    0  502  0.53249321422E+01 -0.35399132259E+02 -0.22960814325E+02  0.42733182206E+02  0.41800000000E+01 0. -1.
        -11    1    1    2    0    0  0.79542607724E+02 -0.34212745694E+02  0.91672399920E+02  0.12610062378E+03  0.00000000000E+00 0.  1.
         11    1    1    2    0    0 -0.12441035327E+02  0.16985605141E+02  0.23703535959E+01  0.21187466063E+02  0.00000000000E+00 0. -1.
</event>
<event>
 7    1  0.2564986E-009  0.1091684E+03  0.7561462E-02  0.1262118E+00
         -2   -1    0    0    0  501 -0.00000000000E+00  0.00000000000E+00  0.53106464148E+02  0.53106464148E+02  0.00000000000E+00 0.  1.
          2   -1    0    0  501    0  0.00000000000E+00 -0.00000000000E+00 -0.38096550992E+03  0.38096550992E+03  0.00000000000E+00 0. -1.
         25    2    1    2    0    0 -0.13694721121E+02 -0.62685317731E+02 -0.15096476732E+03  0.20629243630E+03  0.12509681794E+03 0.  0.
          5    1    3    3  502    0  0.17939081571E+02 -0.93033519136E+02 -0.87441012867E+02  0.12899786611E+03  0.41800000000E+01 0. -1.
         -5    1    3    3    0  502 -0.31633802693E+02  0.30348201405E+02 -0.63523754450E+02  0.77294570189E+02  0.41800000000E+01 0. -1.
        -11    1    1    2    0    0 -0.16521023241E+02  0.11877179558E+02  0.16092646036E+02  0.25941951731E+02  0.00000000000E+00 0.  1.
         11    1    1    2    0    0  0.30215744362E+02  0.50808138173E+02 -0.19298692449E+03  0.20183758603E+03  0.00000000000E+00 0. -1.
</event>
<event>
 7    1  0.2564986E-009  0.2887457E+03  0.7561462E-02  0.1091006E+00
          2   -1    0    0  501    0  0.00000000000E+00  0.00000000000E+00  0.51781461838E+03  0.51781461838E+03  0.00000000000E+00 0. -1.
         -2   -1    0    0    0  501 -0.00000000000E+00 -0.00000000000E+00 -0.16702320976E+03  0.16702320976E+03  0.00000000000E+00 0.  1.
         25    2    1    2    0    0  0.43128421901E+02  0.26905079149E+03  0.19827704356E+03  0.35945758093E+03  0.12509027664E+03 0.  0.
          5    1    3    3  502    0 -0.37470862274E+02  0.91954294571E+02  0.34836181826E+02  0.10531234388E+03  0.41800000000E+01 0.  1.
         -5    1    3    3    0  502  0.80599284175E+02  0.17709649691E+03  0.16344086173E+03  0.25414523705E+03  0.41800000000E+01 0.  1.
        -11    1    1    2    0    0  0.87467949937E+01 -0.18158610464E+03  0.71455202965E+02  0.19533526526E+03  0.00000000000E+00 0. -1.
         11    1    1    2    0    0 -0.51875216895E+02 -0.87464686841E+02  0.81059162097E+02  0.13004498196E+03  0.00000000000E+00 0.  1.
</event>
<event>
 7    1  0.2564986E-009  0.1252543E+03  0.7561462E-02  0.1234672E+00
         -1   -1    0    0    0  501 -0.00000000000E+00  0.00000000000E+00  0.21705157478E+02  0.21705157478E+02  0.00000000000E+00 0.  1.
          1   -1    0    0  501    0  0.00000000000E+00 -0.00000000000E+00 -0.74152643522E+03  0.74152643522E+03  0.00000000000E+00 0. -1.
         25    2    1    2    0    0 -0.42003290137E+02  0.51938669612E+02 -0.36661328406E+03  0.39308447559E+03  0.12509277805E+03 0.  0.
          5    1    3    3  502    0 -0.35560710153E+02  0.93199421307E+02 -0.25816046358E+03  0.27679413577E+03  0.41800000000E+01 0. -1.
         -5    1    3    3    0  502 -0.64425799841E+01 -0.41260751694E+02 -0.10845282048E+03  0.11629033983E+03  0.41800000000E+01 0. -1.
        -11    1    1    2    0    0  0.19634420588E+02 -0.74430705192E+02 -0.21558424357E+03  0.22891484536E+03  0.00000000000E+00 0.  1.
         11    1    1    2    0    0  0.22368869549E+02  0.22492035579E+02 -0.13762375010E+03  0.14123227174E+03  0.00000000000E+00 0. -1.
</event>
<event>
 7    1  0.2564986E-009  0.7167241E+02  0.7561462E-02  0.1354497E+00
         -1   -1    0    0    0  501 -0.00000000000E+00  0.00000000000E+00  0.46937431313E+02  0.46937431313E+02  0.00000000000E+00 0.  1.
          1   -1    0    0  501    0  0.00000000000E+00 -0.00000000000E+00 -0.33888488874E+03  0.33888488874E+03  0.00000000000E+00 0. -1.
         25    2    1    2    0    0 -0.51677642150E+02  0.10958428901E+02 -0.22173865429E+03  0.26001164869E+03  0.12508941116E+03 0.  0.
          5    1    3    3  502    0 -0.27836874713E+02  0.52384549551E+01  0.73631103624E+01  0.29563842752E+02  0.41800000000E+01 0.  1.
         -5    1    3    3    0  502 -0.23840767438E+02  0.57199739458E+01 -0.22910176465E+03  0.23044780594E+03  0.41800000000E+01 0.  1.
        -11    1    1    2    0    0  0.45850058788E+02  0.25809076571E+02 -0.78668248109E+01  0.53199842640E+02  0.00000000000E+00 0.  1.
         11    1    1    2    0    0  0.58275833626E+01 -0.36767505472E+02 -0.62341978323E+02  0.72610828722E+02  0.00000000000E+00 0. -1.
</event>
<event>
 7    1  0.2564986E-009  0.1362725E+03  0.7561462E-02  0.1218434E+00
          1   -1    0    0  501    0  0.00000000000E+00  0.00000000000E+00  0.83337949415E+03  0.83337949415E+03  0.00000000000E+00 0. -1.
         -1   -1    0    0    0  501 -0.00000000000E+00 -0.00000000000E+00 -0.29216048398E+02  0.29216048398E+02  0.00000000000E+00 0.  1.
         25    2    1    2    0    0 -0.68368615802E+02 -0.64264443467E+02  0.26312724591E+03  0.30608467614E+03  0.12509074750E+03 0.  0.
          5    1    3    3  502    0 -0.42471636288E+01 -0.83090879584E+02  0.18690280289E+03  0.20462713114E+03  0.41800000000E+01 0.  1.
         -5    1    3    3    0  502 -0.64121452174E+02  0.18826436117E+02  0.76224443017E+02  0.10145754501E+03  0.41800000000E+01 0.  1.
        -11    1    1    2    0    0  0.85820127472E+02  0.47526850457E+02  0.49374267737E+03  0.50339420661E+03  0.00000000000E+00 0. -1.
         11    1    1    2    0    0 -0.17451511670E+02  0.16737593010E+02  0.47293522472E+02  0.53116659789E+02  0.00000000000E+00 0.  1.
</event>
<event>
 7    1  0.2564986E-009  0.1199437E+03  0.7561462E-02  0.1243190E+00
          1   -1    0    0  501    0  0.00000000000E+00  0.00000000000E+00  0.32701480928E+02  0.32701480928E+02  0.00000000000E+00 0. -1.
         -1   -1    0    0    0  501 -0.00000000000E+00 -0.00000000000E+00 -0.54516912680E+03  0.54516912680E+03  0.00000000000E+00 0.  1.
         25    2    1    2    0    0  0.56253017691E+02  0.14762258501E+02 -0.17290343586E+03  0.22119200021E+03  0.12509187244E+03 0.  0.
          5    1    3    3  502    0 -0.32503885068E+02 -0.21998822493E+02 -0.33107968164E+02  0.51517576530E+02  0.41800000000E+01 0.  1.
         -5    1    3    3    0  502  0.88756902759E+02  0.36761080994E+02 -0.13979546769E+03  0.16967442368E+03  0.41800000000E+01 0.  1.
        -11    1    1    2    0    0  0.77344616413E+00  0.31079953299E+02 -0.15603370950E+03  0.15910084920E+03  0.00000000000E+00 0.  1.
         11    1    1    2    0    0 -0.57026463855E+02 -0.45842211800E+02 -0.18353050051E+03  0.19757775832E+03  0.00000000000E+00 0. -1.
</event>
<event>
 7    1  0.2564986E-009  0.9335255E+02  0.7561462E-02  0.1294930E+00
          1   -1    0    0  501    0  0.00000000000E+00  0.00000000000E+00  0.21663149291E+03  0.21663149291E+03  0.00000000000E+00 0. -1.
         -1   -1    0    0    0  501 -0.00000000000E+00 -0.00000000000E+00 -0.72173258324E+02  0.72173258324E+02  0.00000000000E+00 0.  1.
         25    2    1    2    0    0  0.25905274861E+02  0.23702105809E+02  0.14182266261E+03  0.19234144888E+03  0.12509473307E+03 0.  0.
          5    1    3    3  502    0  0.47217367224E+02 -0.16332417148E+02  0.77355871438E+01  0.50730063335E+02  0.41800000000E+01 0. -1.
         -5    1    3    3    0  502 -0.21312092363E+02  0.40034522957E+02  0.13408707546E+03  0.14161138554E+03  0.41800000000E+01 0. -1.
        -11    1    1    2    0    0 -0.55684496263E+02 -0.25380326297E+02  0.16777549288E+02  0.63454001033E+02  0.00000000000E+00 0.  1.
         11    1    1    2    0    0  0.29779221401E+02  0.16782204880E+01 -0.14141977313E+02  0.33009301319E+02  0.00000000000E+00 0. -1.
</event>
<event>
 7    1  0.2564986E-009  0.1048817E+03  0.7561462E-02  0.1270353E+00
         -2   -1    0    0    0  501 -0.00000000000E+00  0.00000000000E+00  0.32584547062E+03  0.32584547062E+03  0.00000000000E+00 0. -1.
          2   -1    0    0  501    0  0.00000000000E+00 -0.00000000000E+00 -0.56437960438E+02  0.56437960438E+02  0.00000000000E+00 0.  1.
         25    2    1    2    0    0 -0.18646938902E+02  0.85472121904E+02  0.13706823379E+03  0.20515157076E+03  0.12508506832E+03 0.  0.
          5    1    3    3  502    0  0.86627587295E+01  0.48415420970E+01 -0.22108690635E+02  0.24591675833E+02  0.41800000000E+01 0.  1.
         -5    1    3    3    0  502 -0.27309697632E+02  0.80630579807E+02  0.15917692443E+03  0.18055989492E+03  0.41800000000E+01 0.  1.
        -11    1    1    2    0    0  0.28557253879E+02 -0.95491323956E+02  0.96970585080E+02  0.13905899493E+03  0.00000000000E+00 0.  1.
         11    1    1    2    0    0 -0.99103149761E+01  0.10019202052E+02  0.35368691311E+02  0.38072865373E+02  0.00000000000E+00 0. -1.
</event>
<event>
 7    1  0.2564986E-009  0.1013184E+03  0.7561462E-02  0.1277548E+00
         -1   -1    0    0    0  501 -0.00000000000E+00  0.00000000000E+00  0.26125007231E+02  0.26125007231E+02  0.00000000000E+00 0.  1.
          1   -1    0    0  501    0  0.00000000000E+00 -0.00000000000E+00 -0.41481338444E+03  0.41481338444E+03  0.00000000000E+00 0. -1.
         25    2    1    2    0    0  0.43958533821E+01 -0.80589774146E+01 -0.22640151961E+03  0.25882426205E+03  0.12509228552E+03 0.  0.
          5    1    3    3  502    0  0.58289291743E+02 -0.31504551067E+02 -0.12552937277E+03  0.14200448619E+03  0.41800000000E+01 0.  1.
         -5    1    3    3    0  502 -0.53893438361E+02  0.23445573652E+02 -0.10087214684E+03  0.11681977585E+03  0.41800000000E+01 0.  1.
        -11    1    1    2    0    0 -0.23401808791E+02 -0.28044065927E+02 -0.45146299891E+02  0.58071530738E+02  0.00000000000E+00 0.  1.
         11    1    1    2    0    0  0.19005955409E+02  0.36103043341E+02 -0.11714055770E+03  0.12404259889E+03  0.00000000000E+00 0. -1.
</event>
<event>
 7    1  0.2564986E-009  0.1000907E+03  0.7561462E-02  0.1280105E+00
          2   -1    0    0  501    0  0.00000000000E+00  0.00000000000E+00  0.29201767000E+03  0.29201767000E+03  0.00000000000E+00 0. -1.
         -2   -1    0    0    0  501 -0.00000000000E+00 -0.00000000000E+00 -0.66257270037E+02  0.66257270037E+02  0.00000000000E+00 0.  1.
         25    2    1    2    0    0 -0.61614243446E+02  0.31157761311E+02  0.18942278109E+03  0.23726735250E+03  0.12509070902E+03 0.  0.
          5    1    3    3  502    0 -0.18687024982E+02  0.53022235481E+02  0.17917958294E+03  0.18783864805E+03  0.41800000000E+01 0. -1.
         -5    1    3    3    0  502 -0.42927218464E+02 -0.21864474170E+02  0.10243198147E+02  0.49428704455E+02  0.41800000000E+01 0. -1.
        -11    1    1    2    0    0  0.62550092745E+02 -0.47837306709E+02 -0.24408436516E+01  0.78783752978E+02  0.00000000000E+00 0.  1.
         11    1    1    2    0    0 -0.93584929830E+00  0.16679545398E+02  0.38778462530E+02  0.42223834558E+02  0.00000000000E+00 0. -1.
</event>
<event>
 7    1  0.2564986E-009  0.9728537E+02  0.7561462E-02  0.1286110E+00
         -2   -1    0    0    0  501 -0.00000000000E+00  0.00000000000E+00  0.74645868854E+02  0.74645868854E+02  0.00000000000E+00 0.  1.
          2   -1    0    0  501    0  0.00000000000E+00 -0.00000000000E+00 -0.33479266403E+03  0.33479266403E+03  0.00000000000E+00 0. -1.
         25    2    1    2    0    0  0.40482669449E+02 -0.11299248789E+02 -0.27424027404E+03  0.30433932495E+03  0.12509267467E+03 0.  0.
          5    1    3    3  502    0  0.45429599808E+02 -0.41746738089E+02 -0.26463232502E+03  0.27176162078E+03  0.41800000000E+01 0.  1.
         -5    1    3    3    0  502 -0.49469303594E+01  0.30447489300E+02 -0.96079490112E+01  0.32577704168E+02  0.41800000000E+01 0.  1.
        -11    1    1    2    0    0  0.19578703367E+02  0.32472748214E+02  0.16538127240E+02  0.41368039048E+02  0.00000000000E+00 0.  1.
         11    1    1    2    0    0 -0.60061372816E+02 -0.21173499425E+02 -0.24446483801E+01  0.63731168891E+02  0.00000000000E+00 0. -1.
</event>
<event>
 7    1  0.2564986E-009  0.7951442E+02  0.7561462E-02  0.1330435E+00
          2   -1    0    0  501    0  0.00000000000E+00  0.00000000000E+00  0.20074136116E+03  0.20074136116E+03  0.00000000000E+00 0. -1.
         -2   -1    0    0    0  501 -0.00000000000E+00 -0.00000000000E+00 -0.94545393561E+02  0.94545393561E+02  0.00000000000E+00 0.  1.
         25    2    1    2    0    0 -0.63759904862E+02  0.19646841452E+02  0.11394146703E+03  0.18187516142E+03  0.12507834579E+03 0.  0.
          5    1    3    3  502    0 -0.27254212309E+02  0.13702997851E+02  0.13543665149E+03  0.13889248793E+03  0.41800000000E+01 0.  1.
         -5    1    3    3    0  502 -0.36505692553E+02  0.59438436005E+01 -0.21495184453E+02  0.42982673488E+02  0.41800000000E+01 0.  1.
        -11    1    1    2    0    0  0.44372314392E+02  0.18618525084E+02  0.29634739473E+02  0.56513445696E+02  0.00000000000E+00 0. -1.
         11    1    1    2    0    0  0.19387590470E+02 -0.38265366536E+02 -0.37380238904E+02  0.56898147605E+02  0.00000000000E+00 0.  1.
</event>
<event>
 7    1  0.2564986E-009  0.1451618E+03  0.7561462E-02  0.1206547E+00
          1   -1    0    0  501    0  0.00000000000E+00  0.00000000000E+00  0.90464104885E+03  0.90464104885E+03  0.00000000000E+00 0. -1.
         -1   -1    0    0    0  501 -0.00000000000E+00 -0.00000000000E+00 -0.32282350251E+02  0.32282350251E+02  0.00000000000E+00 0.  1.
         25    2    1    2    0    0  0.12172906362E+03 -0.10836273401E+02  0.32828642873E+03  0.37196730483E+03  0.12510917961E+03 0.  0.
          5    1    3    3  502    0 -0.56693236705E+01 -0.19217919391E+02  0.15680750975E+03  0.15813771583E+03  0.41800000000E+01 0. -1.
         -5    1    3    3    0  502  0.12739838729E+03  0.83816459904E+01  0.17147891899E+03  0.21382958900E+03  0.41800000000E+01 0. -1.
        -11    1    1    2    0    0 -0.11879134214E+03  0.30165863525E+02  0.51837330121E+03  0.53266522479E+03  0.00000000000E+00 0. -1.
         11    1    1    2    0    0 -0.29377214778E+01 -0.19329590124E+02  0.25698968651E+02  0.32290869477E+02  0.00000000000E+00 0.  1.
</event>
<event>
 7    1  0.2564986E-009  0.1953330E+03  0.7561462E-02  0.1153737E+00
          3   -1    0    0  501    0  0.00000000000E+00  0.00000000000E+00  0.11276500497E+03  0.11276500497E+03  0.00000000000E+00 0. -1.
         -3   -1    0    0    0  501 -0.00000000000E+00 -0.00000000000E+00 -0.42996856049E+03  0.42996856049E+03  0.00000000000E+00 0.  1.
         25    2    1    2    0    0 -0.13502116484E+03 -0.11700638661E+03 -0.24689262280E+03  0.32942363520E+03  0.12507099893E+03 0.  0.
          5    1    3    3  502    0 -0.31733058964E+01  0.17716634708E+02 -0.64484851281E+02  0.67079933366E+02  0.41800000000E+01 0.  1.
         -5    1    3    3    0  502 -0.13184785894E+03 -0.13472302132E+03 -0.18240777152E+03  0.26234370183E+03  0.41800000000E+01 0.  1.
        -11    1    1    2    0    0  0.50290455528E+02  0.71628701233E+02 -0.77530941582E+02  0.11692240016E+03  0.00000000000E+00 0.  1.
         11    1    1    2    0    0  0.84730709308E+02  0.45377685381E+02  0.72200088617E+01  0.96387530098E+02  0.00000000000E+00 0. -1.
</event>
<event>
 7    1  0.2564986E-009  0.1084277E+03  0.7561462E-02  0.1263510E+00
          1   -1    0    0  501    0  0.00000000000E+00  0.00000000000E+00  0.84718491694E+03  0.84718491694E+03  0.00000000000E+00 0. -1.
         -1   -1    0    0    0  501 -0.00000000000E+00 -0.00000000000E+00 -0.18825433916E+02  0.18825433916E+02  0.00000000000E+00 0.  1.
         25    2    1    2    0    0 -0.53925496694E+02 -0.43001343218E+02  0.47071817365E+03  0.49191508921E+03  0.12509109191E+03 0.  0.
          5    1    3    3  502    0 -0.27716834250E+02 -0.67913557076E+02  0.43413419988E+03  0.44030722234E+03  0.41800000000E+01 0.  1.
         -5    1    3    3    0  502 -0.26208662445E+02  0.24912213858E+02  0.36583973772E+02  0.51607866875E+02  0.41800000000E+01 0.  1.
        -11    1    1    2    0    0 -0.10362253965E+02 -0.16436231999E+02  0.37995797170E+02  0.42675597619E+02  0.00000000000E+00 0.  1.
         11    1    1    2    0    0  0.64287750659E+02  0.59437575218E+02  0.31964551220E+03  0.33141966403E+03  0.00000000000E+00 0. -1.
</event>
<event>
 7    1  0.2564986E-009  0.1439171E+03  0.7561462E-02  0.1208153E+00
         -2   -1    0    0    0  501 -0.00000000000E+00  0.00000000000E+00  0.48380824497E+02  0.48380824497E+02  0.00000000000E+00 0.  1.
          2   -1    0    0  501    0  0.00000000000E+00 -0.00000000000E+00 -0.50774553708E+03  0.50774553708E+03  0.00000000000E+00 0. -1.
         25    2    1    2    0    0  0.10821580990E+03  0.36317551638E+02 -0.26309106251E+03  0.31288163248E+03  0.12509349583E+03 0.  0.
          5    1    3    3  502    0  0.10326069366E+03 -0.17018994750E+02 -0.22122908009E+03  0.24476967810E+03  0.41800000000E+01 0. -1.
         -5    1    3    3    0  502  0.49551162393E+01  0.53336546388E+02 -0.41861982419E+02  0.68111954381E+02  0.41800000000E+01 0. -1.
        -11    1    1    2    0    0 -0.99926982463E+02 -0.84383679087E+01 -0.18788694638E+03  0.21297444095E+03  0.00000000000E+00 0. -1.
         11    1    1    2    0    0 -0.82888274380E+01 -0.27879183730E+02 -0.83867036880E+01  0.30270288147E+02  0.00000000000E+00 0.  1.
</event>
<event>
 7    1  0.2564986E-009  0.1202793E+03  0.7561462E-02  0.1242637E+00
          2   -1    0    0  501    0  0.00000000000E+00  0.00000000000E+00  0.31239250101E+02  0.31239250101E+02  0.00000000000E+00 0. -1.
         -2   -1    0    0    0  501 -0.00000000000E+00 -0.00000000000E+00 -0.70891151128E+03  0.70891151128E+03  0.00000000000E+00 0.  1.
         25    2    1    2    0    0  0.72635867439E+02 -0.58426067766E+02 -0.47133624625E+03  0.49648475577E+03  0.12509868526E+03 0.  0.
          5    1    3    3  502    0  0.13204049084E+02  0.25814083794E+02 -0.25417494077E+02  0.38784471628E+02  0.41800000000E+01 0.  1.
         -5    1    3    3    0  502  0.59431818355E+02 -0.84240151560E+02 -0.44591875217E+03  0.45770028414E+03  0.41800000000E+01 0.  1.
        -11    1    1    2    0    0 -0.61031634795E+01  0.37999486050E+02 -0.14778788942E+03  0.15271695978E+03  0.00000000000E+00 0.  1.
         11    1    1    2    0    0 -0.66532703959E+02  0.20426581716E+02 -0.58548125512E+02  0.90949045831E+02  0.00000000000E+00 0. -1.
</event>
<event>
 7    1  0.2564986E-009  0.1014457E+03  0.7561462E-02  0.1277285E+00
          2   -1    0    0  501    0  0.00000000000E+00  0.00000000000E+00  0.34135656603E+03  0.34135656603E+03  0.00000000000E+00 0.  1.
         -2   -1    0    0    0  501 -0.00000000000E+00 -0.00000000000E+00 -0.64256609011E+02  0.64256609011E+02  0.00000000000E+00 0. -1.
         25    2    1    2    0    0  0.13453526763E+01 -0.10005696494E+03  0.15499029837E+03  0.22289591732E+03  0.12508953259E+03 0.  0.
          5    1    3    3  502    0  0.27630361814E+01 -0.58922527364E+02  0.16913443003E+03  0.17917429062E+03  0.41800000000E+01 0.  1.
         -5    1    3    3    0  502 -0.14176835051E+01 -0.41134437571E+02 -0.14144131655E+02  0.43721626698E+02  0.41800000000E+01 0.  1.
        -11    1    1    2    0    0  0.88760997341E+01  0.71610358391E+02  0.13239987498E+03  0.15078645652E+03  0.00000000000E+00 0.  1.
         11    1    1    2    0    0 -0.10221452410E+02  0.28446606545E+02 -0.10290216329E+02  0.31930801202E+02  0.00000000000E+00 0. -1.
</event>
<event>
 7    1  0.2564986E-009  0.1334094E+03  0.7561462E-02  0.1222483E+00
         -2   -1    0    0    0  501 -0.00000000000E+00  0.00000000000E+00  0.22476564138E+02  0.22476564138E+02  0.00000000000E+00 0.  1.
          2   -1    0    0  501    0  0.00000000000E+00 -0.00000000000E+00 -0.10257623474E+04  0.10257623474E+04  0.00000000000E+00 0. -1.
         25    2    1    2    0    0 -0.30359930865E+02  0.10771117800E+03 -0.57648713880E+03  0.60042556690E+03  0.12510002761E+03 0.  0.
          5    1    3    3  502    0  0.20739811503E+02  0.24957752422E+01 -0.13099623320E+02  0.25008822571E+02  0.41800000000E+01 0. -1.
         -5    1    3    3    0  502 -0.51099742368E+02  0.10521540275E+03 -0.56338751548E+03  0.57541674433E+03  0.41800000000E+01 0. -1.
        -11    1    1    2    0    0  0.48364768543E+02 -0.57527149407E+02 -0.17540694720E+03  0.19083008379E+03  0.00000000000E+00 0.  1.
         11    1    1    2    0    0 -0.18004837677E+02 -0.50184028588E+02 -0.25139169722E+03  0.25698326081E+03  0.00000000000E+00 0. -1.
</event>
<event>
 7    1  0.2564986E-009  0.2466650E+03  0.7561462E-02  0.1115431E+00
          1   -1    0    0  501    0  0.00000000000E+00  0.00000000000E+00  0.78914551178E+03  0.78914551178E+03  0.00000000000E+00 0. -1.
         -1   -1    0    0    0  501 -0.00000000000E+00 -0.00000000000E+00 -0.11829400646E+03  0.11829400646E+03  0.00000000000E+00 0.  1.
         25    2    1    2    0    0 -0.16822408757E+03  0.17592841576E+03  0.12082469370E+03  0.29916071975E+03  0.12509347914E+03 0.  0.
          5    1    3    3  502    0 -0.95126690201E+02  0.61165554977E+02  0.11728788082E+03  0.16298537263E+03  0.41800000000E+01 0. -1.
         -5    1    3    3    0  502 -0.73097397368E+02  0.11476286078E+03  0.35368128740E+01  0.13617534712E+03  0.41800000000E+01 0. -1.
        -11    1    1    2    0    0  0.42594672322E+02 -0.34113999640E+02  0.51782746851E+02  0.75229807610E+02  0.00000000000E+00 0.  1.
         11    1    1    2    0    0  0.12562941525E+03 -0.14181441612E+03  0.49824406478E+03  0.53304899088E+03  0.00000000000E+00 0. -1.
</event>
<event>
 7    1  0.2564986E-009  0.1147704E+03  0.7561462E-02  0.1251982E+00
         -1   -1    0    0    0  501 -0.00000000000E+00  0.00000000000E+00  0.32048197959E+03  0.32048197959E+03  0.00000000000E+00 0.  1.
          1   -1    0    0  501    0  0.00000000000E+00 -0.00000000000E+00 -0.68541994182E+02  0.68541994182E+02  0.00000000000E+00 0. -1.
         25    2    1    2    0    0 -0.45731280811E+01  0.98547162709E+02  0.11631993271E+03  0.19725367856E+03  0.12508489190E+03 0.  0.
          5    1    3    3  502    0 -0.38843560955E+02  0.17753035637E+02 -0.93466358158E+01  0.43918384568E+02  0.41800000000E+01 0. -1.
         -5    1    3    3    0  502  0.34270432874E+02  0.80794127072E+02  0.12566656853E+03  0.15333529400E+03  0.41800000000E+01 0. -1.
        -11    1    1    2    0    0  0.49468970979E+01 -0.55940785753E+02  0.73857755002E+01  0.56642678091E+02  0.00000000000E+00 0. -1.
         11    1    1    2    0    0 -0.37376901685E+00 -0.42606376955E+02  0.12823427720E+03  0.13512761712E+03  0.00000000000E+00 0.  1.
</event>
<event>
 7    1  0.2564986E-009  0.1833520E+03  0.7561462E-02  0.1164598E+00
         -2   -1    0    0    0  501 -0.00000000000E+00  0.00000000000E+00  0.13549950532E+03  0.13549950532E+03  0.00000000000E+00 0. -1.
          2   -1    0    0  501    0  0.00000000000E+00 -0.00000000000E+00 -0.30208933923E+03  0.30208933923E+03  0.00000000000E+00 0.  1.
         25    2    1    2    0    0  0.49092387691E+02  0.16066055782E+03 -0.10885967406E+03  0.23604809222E+03  0.12508555406E+03 0.  0.
          5    1    3    3  502    0 -0.49561704598E+01  0.31694214058E+01  0.22686259381E+02  0.23806461777E+02  0.41800000000E+01 0. -1.
         -5    1    3    3    0  502  0.54048558151E+02  0.15749113641E+03 -0.13154593344E+03  0.21224163044E+03  0.41800000000E+01 0. -1.
        -11    1    1    2    0    0 -0.76010662792E+02 -0.93012665796E+02 -0.40007420279E+02  0.12660794025E+03  0.00000000000E+00 0. -1.
         11    1    1    2    0    0  0.26918275100E+02 -0.67647892020E+02 -0.17722739566E+02  0.74932812084E+02  0.00000000000E+00 0.  1.
</event>
<event>
 7    1  0.2564986E-009  0.7550165E+02  0.7561462E-02  0.1342325E+00
          1   -1    0    0  501    0  0.00000000000E+00  0.00000000000E+00  0.22732245727E+03  0.22732245727E+03  0.00000000000E+00 0. -1.
         -1   -1    0    0    0  501 -0.00000000000E+00 -0.00000000000E+00 -0.92215792009E+02  0.92215792009E+02  0.00000000000E+00 0.  1.
         25    2    1    2    0    0  0.68167816116E+02  0.95476926327E+01  0.16116998693E+03  0.21531698932E+03  0.12509049370E+03 0.  0.
          5    1    3    3  502    0  0.53650404303E+01 -0.76080198339E+01 -0.20167032639E+02  0.22601929786E+02  0.41800000000E+01 0. -1.
         -5    1    3    3    0  502  0.62802775685E+02  0.17155712467E+02  0.18133701957E+03  0.19271505953E+03  0.41800000000E+01 0. -1.
        -11    1    1    2    0    0 -0.62717758536E+02  0.20446055743E+01  0.12151422038E+02  0.63916779529E+02  0.00000000000E+00 0. -1.
         11    1    1    2    0    0 -0.54500575791E+01 -0.11592298207E+02 -0.38214743714E+02  0.40304480427E+02  0.00000000000E+00 0.  1.
</event>
<event>
 7    1  0.2564986E-009  0.1271030E+03  0.7561462E-02  0.1231819E+00
          1   -1    0    0  501    0  0.00000000000E+00  0.00000000000E+00  0.23534560512E+03  0.23534560512E+03  0.00000000000E+00 0. -1.
         -1   -1    0    0    0  501 -0.00000000000E+00 -0.00000000000E+00 -0.71453149943E+02  0.71453149943E+02  0.00000000000E+00 0.  1.
         25    2    1    2    0    0  0.64408650592E+02  0.31091878821E+02  0.84491145439E+02  0.16703811634E+03  0.12509116456E+03 0.  0.
          5    1    3    3  502    0 -0.14905254319E+02 -0.34480226188E+02  0.39425174446E+02  0.54615651460E+02  0.41800000000E+01 0.  1.
         -5    1    3    3    0  502  0.79313904911E+02  0.65572105009E+02  0.45065970992E+02  0.11242246488E+03  0.41800000000E+01 0.  1.
        -11    1    1    2    0    0 -0.80472103974E+02 -0.23699830519E+01  0.45329935657E+02  0.92391446597E+02  0.00000000000E+00 0.  1.
         11    1    1    2    0    0  0.16063453382E+02 -0.28721895769E+02  0.34071374079E+02  0.47369192127E+02  0.00000000000E+00 0. -1.
</event>
<event>
 7    1  0.2708917E-009  0.1059061E+03  0.7561462E-02  0.1268345E+00
         -1   -1    0    0    0  501 -0.00000000000E+00  0.00000000000E+00  0.13059643747E+02  0.13059643747E+02  0.00000000000E+00 0.  1.
          1   -1    0    0  501    0  0.00000000000E+00 -0.00000000000E+00 -0.16746104960E+04  0.16746104960E+04  0.00000000000E+00 0. -1.
         25    2    1    2    0    0 -0.70296940222E+01 -0.20740773932E+02 -0.14550254008E+04  0.14605564342E+04  0.12508630727E+03 0.  0.
          5    1    3    3  502    0  0.53574769643E+02 -0.35568921889E+02 -0.72757284670E+03  0.73042119616E+03  0.41800000000E+01 0. -1.
         -5    1    3    3    0  502 -0.60604463665E+02  0.14828147957E+02 -0.72745255410E+03  0.73013523806E+03  0.41800000000E+01 0. -1.
        -11    1    1    2    0    0 -0.37370759574E+02  0.14104408472E+02 -0.48479808911E+02  0.62815602214E+02  0.00000000000E+00 0. -1.
         11    1    1    2    0    0  0.44400453596E+02  0.66363654602E+01 -0.15804564256E+03  0.16429810333E+03  0.00000000000E+00 0.  1.
</event>
<event>
 7    1  0.2564986E-009  0.1020055E+03  0.7561462E-02  0.1276134E+00
          1   -1    0    0  501    0  0.00000000000E+00  0.00000000000E+00  0.12466937126E+03  0.12466937126E+03  0.00000000000E+00 0. -1.
         -1   -1    0    0    0  501 -0.00000000000E+00 -0.00000000000E+00 -0.11532593852E+03  0.11532593852E+03  0.00000000000E+00 0.  1.
         25    2    1    2    0    0 -0.14654319107E+02 -0.49919202479E+02 -0.33410561546E+02  0.13954615202E+03  0.12510070774E+03 0.  0.
          5    1    3    3  502    0  0.21480160887E+02  0.35931849657E+02 -0.71017292143E+01  0.42666170315E+02  0.41800000000E+01 0. -1.
         -5    1    3    3    0  502 -0.36134479994E+02 -0.85851052136E+02 -0.26308832332E+02  0.96879981709E+02  0.41800000000E+01 0. -1.
        -11    1    1    2    0    0  0.48758670278E+01  0.56630951861E+02  0.57949817662E+02  0.81172779644E+02  0.00000000000E+00 0. -1.
         11    1    1    2    0    0  0.97784520789E+01 -0.67117493823E+01 -0.15195823382E+02  0.19276378111E+02  0.00000000000E+00 0.  1.
</event>
<event>
 7    1  0.2564986E-009  0.1852812E+03  0.7561462E-02  0.1162788E+00
         -1   -1    0    0    0  501 -0.00000000000E+00  0.00000000000E+00  0.27861333616E+02  0.27861333616E+02  0.00000000000E+00 0.  1.
          1   -1    0    0  501    0  0.00000000000E+00 -0.00000000000E+00 -0.13815762769E+04  0.13815762769E+04  0.00000000000E+00 0. -1.
         25    2    1    2    0    0  0.15125721290E+03  0.16389518007E+02 -0.91766082174E+03  0.93856150069E+03  0.12509574757E+03 0.  0.
          5    1    3    3  502    0  0.12055942114E+03  0.64653491475E+02 -0.56996705107E+03  0.58616939505E+03  0.41800000000E+01 0. -1.
         -5    1    3    3    0  502  0.30697791756E+02 -0.48263973469E+02 -0.34769377067E+03  0.35239210563E+03  0.41800000000E+01 0. -1.
        -11    1    1    2    0    0 -0.22605820271E+02  0.31755864059E+02 -0.12250818898E+03  0.12856015860E+03  0.00000000000E+00 0. -1.
         11    1    1    2    0    0 -0.12865139263E+03 -0.48145382066E+02 -0.31354593258E+03  0.34231595124E+03  0.00000000000E+00 0.  1.
</event>
<event>
 7    1  0.2886807E-009  0.9829906E+02  0.7561462E-02  0.1283914E+00
         -2   -1    0    0    0  501 -0.00000000000E+00  0.00000000000E+00  0.15585540598E+03  0.15585540598E+03  0.00000000000E+00 0. -1.
          2   -1    0    0  501    0  0.00000000000E+00 -0.00000000000E+00 -0.86330660290E+02  0.86330660290E+02  0.00000000000E+00 0.  1.
         25    2    1    2    0    0 -0.18152680207E+02 -0.12128250756E+02  0.75338511452E+02  0.14764282484E+03  0.12508356468E+03 0.  0.
          5    1    3    3  502    0  0.28083994898E+02  0.29688478045E+02  0.74592894413E+02  0.85156848197E+02  0.41800000000E+01 0. -1.
         -5    1    3    3    0  502 -0.46236675104E+02 -0.41816728801E+02  0.74561703966E+00  0.62485976644E+02  0.41800000000E+01 0. -1.
        -11    1    1    2    0    0  0.54038858440E+02 -0.29314367143E+01 -0.11168044991E+02  0.55258635268E+02  0.00000000000E+00 0.  1.
         11    1    1    2    0    0 -0.35886178234E+02  0.15059687470E+02  0.53542792247E+01  0.39284606157E+02  0.00000000000E+00 0. -1.
</event>
<event>
 7    1  0.2564986E-009  0.1371840E+03  0.7561462E-02  0.1217169E+00
          1   -1    0    0  501    0  0.00000000000E+00  0.00000000000E+00  0.22637033889E+04  0.22637033889E+04  0.00000000000E+00 0. -1.
         -1   -1    0    0    0  501 -0.00000000000E+00 -0.00000000000E+00 -0.10326229653E+02  0.10326229653E+02  0.00000000000E+00 0.  1.
         25    2    1    2    0    0 -0.78328854805E+02  0.45043193042E+02  0.16414035906E+04  0.16486413069E+04  0.12509241634E+03 0.  0.
          5    1    3    3  502    0  0.29871490795E+02  0.11097051337E+02  0.64432639340E+03  0.64512744799E+03  0.41800000000E+01 0.  1.
         -5    1    3    3    0  502 -0.10820034560E+03  0.33946141705E+02  0.99707719724E+03  0.10035138589E+04  0.41800000000E+01 0.  1.
        -11    1    1    2    0    0  0.28356531426E+02 -0.68061703867E+02  0.36165089346E+03  0.36909058122E+03  0.00000000000E+00 0. -1.
         11    1    1    2    0    0  0.49972323378E+02  0.23018510825E+02  0.25032267511E+03  0.25629773042E+03  0.00000000000E+00 0.  1.
</event>
<event>
 7    1  0.2564986E-009  0.1893421E+03  0.7561462E-02  0.1159056E+00
         -1   -1    0    0    0  501 -0.00000000000E+00  0.00000000000E+00  0.63051213779E+03  0.63051213779E+03  0.00000000000E+00 0.  1.
          1   -1    0    0  501    0  0.00000000000E+00 -0.00000000000E+00 -0.70762407685E+02  0.70762407685E+02  0.00000000000E+00 0. -1.
         25    2    1    2    0    0  0.13456481824E+03 -0.10227698630E+03  0.18582044269E+03  0.28061502058E+03  0.12508909072E+03 0.  0.
          5    1    3    3  502    0  0.67671322812E+02 -0.12142198678E+03  0.10754067525E+03  0.17579868042E+03  0.41800000000E+01 0. -1.
         -5    1    3    3    0  502  0.66893495433E+02  0.19145000477E+02  0.78279767435E+02  0.10481634016E+03  0.41800000000E+01 0. -1.
        -11    1    1    2    0    0 -0.48956345572E+02  0.47902559566E+02  0.25655110964E+03  0.26553691051E+03  0.00000000000E+00 0.  1.
         11    1    1    2    0    0 -0.85608472673E+02  0.54374426733E+02  0.11737817777E+03  0.15512261438E+03  0.00000000000E+00 0. -1.
</event>
<event>
 7    1  0.2564986E-009  0.1449572E+03  0.7561462E-02  0.1206810E+00
         -1   -1    0    0    0  501 -0.00000000000E+00  0.00000000000E+00  0.12537658195E+03  0.12537658195E+03  0.00000000000E+00 0.  1.
          1   -1    0    0  501    0  0.00000000000E+00 -0.00000000000E+00 -0.30549364007E+03  0.30549364007E+03  0.00000000000E+00 0. -1.
         25    2    1    2    0    0 -0.11487806367E+03 -0.26865356890E+02  0.29112725229E+02  0.17438922588E+03  0.12508131123E+03 0.  0.
          5    1    3    3  502    0 -0.13936459664E+03 -0.30982315256E+02  0.37813280007E+02  0.14774881116E+03  0.41800000000E+01 0. -1.
         -5    1    3    3    0  502  0.24486532969E+02  0.41169583657E+01 -0.87005547779E+01  0.26640414720E+02  0.41800000000E+01 0. -1.
        -11    1    1    2    0    0  0.62248494800E+02 -0.12033249359E+01 -0.33071484871E+02  0.70498554647E+02  0.00000000000E+00 0.  1.
         11    1    1    2    0    0  0.52629568866E+02  0.28068681826E+02 -0.17615829848E+03  0.18598244149E+03  0.00000000000E+00 0. -1.
</event>
<event>
 7    1  0.2564986E-009  0.1170267E+03  0.7561462E-02  0.1248084E+00
         -1   -1    0    0    0  501 -0.00000000000E+00  0.00000000000E+00  0.34873193386E+03  0.34873193386E+03  0.00000000000E+00 0.  1.
          1   -1    0    0  501    0  0.00000000000E+00 -0.00000000000E+00 -0.56077318609E+02  0.56077318609E+02  0.00000000000E+00 0. -1.
         25    2    1    2    0    0 -0.52178390838E+02  0.41299335237E+02  0.77566663596E+02  0.16153075887E+03  0.12508948476E+03 0.  0.
          5    1    3    3  502    0  0.38468859028E+02  0.31540510882E+02  0.33992384114E+02  0.60395459427E+02  0.41800000000E+01 0.  1.
         -5    1    3    3    0  502 -0.90647249866E+02  0.97588243552E+01  0.43574279482E+02  0.10113529944E+03  0.41800000000E+01 0.  1.
        -11    1    1    2    0    0  0.55155451889E+02 -0.38411044595E+01  0.19052755943E+03  0.19838757234E+03  0.00000000000E+00 0.  1.
         11    1    1    2    0    0 -0.29770610511E+01 -0.37458230777E+02  0.24560392228E+02  0.44890921263E+02  0.00000000000E+00 0. -1.
</event>
<event>
 7    1  0.2564986E-009  0.1028656E+03  0.7561462E-02  0.1274383E+00
         -3   -1    0    0    0  501 -0.00000000000E+00  0.00000000000E+00  0.92087295099E+02  0.92087295099E+02  0.00000000000E+00 0.  1.
          3   -1    0    0  501    0  0.00000000000E+00 -0.00000000000E+00 -0.17914141707E+03  0.17914141707E+03  0.00000000000E+00 0. -1.
         25    2    1    2    0    0 -0.44969307295E+02 -0.31805000764E+02 -0.24072658482E+02  0.13878047215E+03  0.12508688937E+03 0.  0.
          5    1    3    3  502    0 -0.51312927110E+02 -0.51760993019E+02 -0.61654474921E+02  0.95556075498E+02  0.41800000000E+01 0. -1.
         -5    1    3    3    0  502  0.63436198151E+01  0.19955992254E+02  0.37581816439E+02  0.43224396654E+02  0.41800000000E+01 0. -1.
        -11    1    1    2    0    0 -0.14595264443E+02  0.47569289050E+02 -0.47783107764E+02  0.68986117390E+02  0.00000000000E+00 0.  1.
         11    1    1    2    0    0  0.59564571738E+02 -0.15764288286E+02 -0.15198355724E+02  0.63462122626E+02  0.00000000000E+00 0. -1.
</event>
<event>
 7    1  0.2564986E-009  0.5242231E+02  0.7561462E-02  0.1432698E+00
         -1   -1    0    0    0  501 -0.00000000000E+00  0.00000000000E+00  0.32631140942E+03  0.32631140942E+03  0.00000000000E+00 0.  1.
          1   -1    0    0  501    0  0.00000000000E+00 -0.00000000000E+00 -0.45099600324E+02  0.45099600324E+02  0.00000000000E+00 0. -1.
         25    2    1    2    0    0  0.20985255212E+02 -0.22825186076E+02  0.10464067327E+03  0.16600709803E+03  0.12508923230E+03 0.  0.
          5    1    3    3  502    0  0.13003532498E+02 -0.28251679550E+02 -0.22385324765E+02  0.38546393082E+02  0.41800000000E+01 0. -1.
         -5    1    3    3    0  502  0.79817227137E+01  0.54264934741E+01  0.12702599803E+03  0.12746070494E+03  0.41800000000E+01 0. -1.
        -11    1    1    2    0    0 -0.95479560135E+01  0.40656316473E+02  0.17925047065E+03  0.18405116344E+03  0.00000000000E+00 0.  1.
         11    1    1    2    0    0 -0.11437299198E+02 -0.17831130397E+02 -0.26793348204E+01  0.21352748284E+02  0.00000000000E+00 0. -1.
</event>
<event>
 7    1  0.2564986E-009  0.1218292E+03  0.7561462E-02  0.1240110E+00
         -1   -1    0    0    0  501 -0.00000000000E+00  0.00000000000E+00  0.27707179932E+03  0.27707179932E+03  0.00000000000E+00 0.  1.
          1   -1    0    0  501    0  0.00000000000E+00 -0.00000000000E+00 -0.65706401566E+02  0.65706401566E+02  0.00000000000E+00 0. -1.
         25    2    1    2    0    0  0.60152415667E+02  0.13096098444E+02  0.56470738690E+02  0.15041917905E+03  0.12508862535E+03 0.  0.
          5    1    3    3  502    0 -0.17361642644E+02  0.46211399731E+02  0.41669733945E+02  0.64736073617E+02  0.41800000000E+01 0. -1.
         -5    1    3    3    0  502  0.77514058311E+02 -0.33115301287E+02  0.14801004745E+02  0.85683105433E+02  0.41800000000E+01 0. -1.
        -11    1    1    2    0    0 -0.80924793785E+02  0.64727965694E+01  0.13514163406E+03  0.15765145290E+03  0.00000000000E+00 0. -1.
         11    1    1    2    0    0  0.20772378119E+02 -0.19568895013E+02  0.19753025006E+02  0.34707568939E+02  0.00000000000E+00 0.  1.
</event>
<event>
 7    1  0.2564986E-009  0.1909726E+03  0.7561462E-02  0.1157587E+00
         -2   -1    0    0    0  501 -0.00000000000E+00  0.00000000000E+00  0.25848511045E+02  0.25848511045E+02  0.00000000000E+00 0.  1.
          2   -1    0    0  501    0  0.00000000000E+00 -0.00000000000E+00 -0.21456775035E+04  0.21456775035E+04  0.00000000000E+00 0. -1.
         25    2    1    2    0    0 -0.12620937279E+03 -0.12997279186E+03 -0.15782015000E+04  0.15934834126E+04  0.12509068393E+03 0.  0.
          5    1    3    3  502    0 -0.61257995823E+02 -0.11367961756E+02 -0.88519227777E+03  0.88739202928E+03  0.41800000000E+01 0. -1.
         -5    1    3    3    0  502 -0.64951376967E+02 -0.11860483010E+03 -0.69300922220E+03  0.70609138329E+03  0.41800000000E+01 0. -1.
        -11    1    1    2    0    0  0.22055509992E+02  0.43767345931E+02 -0.27239978320E+03  0.27677367645E+03  0.00000000000E+00 0.  1.
         11    1    1    2    0    0  0.10415386280E+03  0.86205445926E+02 -0.26922770933E+03  0.30126892557E+03  0.00000000000E+00 0. -1.
</event>
<event>
 7    1  0.2564986E-009  0.1269326E+03  0.7561462E-02  0.1232080E+00
          1   -1    0    0  501    0  0.00000000000E+00  0.00000000000E+00  0.19479038162E+03  0.19479038162E+03  0.00000000000E+00 0. -1.
         -1   -1    0    0    0  501 -0.00000000000E+00 -0.00000000000E+00 -0.11256354615E+03  0.11256354615E+03  0.00000000000E+00 0.  1.
         25    2    1    2    0    0 -0.28515777885E+02  0.95322799651E+02  0.50478946396E+02  0.16762129045E+03  0.12509671163E+03 0.  0.
          5    1    3    3  502    0  0.19087282564E+02  0.15318255516E+02  0.68362463290E+02  0.72731506893E+02  0.41800000000E+01 0.  1.
         -5    1    3    3    0  502 -0.47603060449E+02  0.80004544135E+02 -0.17883516894E+02  0.94889783554E+02  0.41800000000E+01 0.  1.
        -11    1    1    2    0    0  0.61212863116E+02 -0.76999334982E+02  0.19327563129E+02  0.10024702936E+03  0.00000000000E+00 0. -1.
         11    1    1    2    0    0 -0.32697085231E+02 -0.18323464669E+02  0.12420325941E+02  0.39485607967E+02  0.00000000000E+00 0.  1.
</event>
<event>
 7    1  0.2564986E-009  0.2386315E+03  0.7561462E-02  0.1120708E+00
         -1   -1    0    0    0  501 -0.00000000000E+00  0.00000000000E+00  0.65414884561E+02  0.65414884561E+02  0.00000000000E+00 0.  1.
          1   -1    0    0  501    0  0.00000000000E+00 -0.00000000000E+00 -0.97266250549E+03  0.97266250549E+03  0.00000000000E+00 0. -1.
         25    2    1    2    0    0  0.13038362744E+03 -0.16827995139E+03 -0.30413273306E+03  0.39174055872E+03  0.12508362674E+03 0.  0.
          5    1    3    3  502    0  0.26222066135E+02  0.17533279068E+02 -0.58391179721E+02  0.66498232280E+02  0.41800000000E+01 0.  1.
         -5    1    3    3    0  502  0.10416156130E+03 -0.18581323045E+03 -0.24574155334E+03  0.32524232644E+03  0.41800000000E+01 0.  1.
        -11    1    1    2    0    0 -0.62099746329E+02  0.14901388219E+03 -0.41791878976E+03  0.44801521226E+03  0.00000000000E+00 0. -1.
         11    1    1    2    0    0 -0.68283881107E+02  0.19266069200E+02 -0.18519609810E+03  0.19832161908E+03  0.00000000000E+00 0.  1.
</event>
<event>
 7    1  0.2564986E-009  0.1799933E+03  0.7561462E-02  0.1167810E+00
         -1   -1    0    0    0  501 -0.00000000000E+00  0.00000000000E+00  0.30483092092E+02  0.30483092092E+02  0.00000000000E+00 0.  1.
          1   -1    0    0  501    0  0.00000000000E+00 -0.00000000000E+00 -0.11849791052E+04  0.11849791052E+04  0.00000000000E+00 0. -1.
         25    2    1    2    0    0 -0.98446990550E+02 -0.11859142739E+03 -0.54676900399E+03  0.58168737001E+03  0.12509243026E+03 0.  0.
          5    1    3    3  502    0  0.11015566140E+02 -0.78462032083E+02 -0.26783573195E+03  0.27934044620E+03  0.41800000000E+01 0.  1.
         -5    1    3    3    0  502 -0.10946255669E+03 -0.40129395305E+02 -0.27893327204E+03  0.30234692381E+03  0.41800000000E+01 0.  1.
        -11    1    1    2    0    0 -0.61020876377E+01  0.17579161935E+02 -0.16283279266E+02  0.24726657508E+02  0.00000000000E+00 0.  1.
         11    1    1    2    0    0  0.10454907819E+03  0.10101226545E+03 -0.59144372984E+03  0.60904816976E+03  0.00000000000E+00 0. -1.
</event>
<event>
 7    1  0.2564986E-009  0.6634273E+02  0.7561462E-02  0.1372991E+00
         -1   -1    0    0    0  501 -0.00000000000E+00  0.00000000000E+00  0.63581107296E+02  0.63581107296E+02  0.00000000000E+00 0.  1.
          1   -1    0    0  501    0  0.00000000000E+00 -0.00000000000E+00 -0.28819036583E+03  0.28819036583E+03  0.00000000000E+00 0. -1.
         25    2    1    2    0    0  0.58582597924E+02 -0.16576941872E+01 -0.19562675705E+03  0.23948247008E+03  0.12508939472E+03 0.  0.
          5    1    3    3  502    0  0.16893997501E+02  0.19152874671E+02 -0.19069381395E+03  0.19244179078E+03  0.41800000000E+01 0.  1.
         -5    1    3    3    0  502  0.41688600422E+02 -0.20810568858E+02 -0.49329431004E+01  0.47040679300E+02  0.41800000000E+01 0.  1.
        -11    1    1    2    0    0 -0.16969628233E+02  0.64142305623E+01 -0.58369670010E+02  0.61123882511E+02  0.00000000000E+00 0. -1.
         11    1    1    2    0    0 -0.41612969690E+02 -0.47565363751E+01  0.29387168531E+02  0.51165120531E+02  0.00000000000E+00 0.  1.
</event>
<event>
 7    1  0.2564986E-009  0.1938053E+03  0.7561462E-02  0.1155073E+00
          2   -1    0    0  501    0  0.00000000000E+00  0.00000000000E+00  0.16485820345E+03  0.16485820345E+03  0.00000000000E+00 0. -1.
         -2   -1    0    0    0  501 -0.00000000000E+00 -0.00000000000E+00 -0.26406445489E+03  0.26406445489E+03  0.00000000000E+00 0.  1.
         25    2    1    2    0    0 -0.22773481158E+02 -0.16258058837E+03 -0.12197863342E+03  0.23974399811E+03  0.12508924197E+03 0.  0.
          5    1    3    3  502    0  0.80891684523E+01 -0.17295041520E+03 -0.97071545504E+02  0.19853875720E+03  0.41800000000E+01 0. -1.
         -5    1    3    3    0  502 -0.30862649610E+02  0.10369826828E+02 -0.24907087921E+02  0.41205240905E+02  0.41800000000E+01 0. -1.
        -11    1    1    2    0    0  0.40013240586E+02  0.35932820552E+02  0.29211517338E+02  0.61200815029E+02  0.00000000000E+00 0. -1.
         11    1    1    2    0    0 -0.17239759429E+02  0.12664776782E+03 -0.64391353549E+01  0.12797784521E+03  0.00000000000E+00 0.  1.
</event>
<event>
 7    1  0.2564986E-009  0.1058589E+03  0.7561462E-02  0.1268436E+00
         -4   -1    0    0    0  501 -0.00000000000E+00  0.00000000000E+00  0.75882393119E+03  0.75882393119E+03  0.00000000000E+00 0.  1.
          4   -1    0    0  501    0  0.00000000000E+00 -0.00000000000E+00 -0.27074133026E+02  0.27074133026E+02  0.00000000000E+00 0. -1.
         25    2    1    2    0    0 -0.65735778116E+02  0.32287231240E+02  0.55974133605E+03  0.57820560144E+03  0.12509075275E+03 0.  0.
          5    1    3    3  502    0 -0.86198689092E+02  0.22730475667E+02  0.21616620153E+03  0.23386360899E+03  0.41800000000E+01 0.  1.
         -5    1    3    3    0  502  0.20462910976E+02  0.95567555722E+01  0.34357513452E+03  0.34434199245E+03  0.41800000000E+01 0.  1.
        -11    1    1    2    0    0  0.51975156650E+02  0.11820263636E+02  0.14426921734E+03  0.15380098379E+03  0.00000000000E+00 0.  1.
         11    1    1    2    0    0  0.13760621466E+02 -0.44107494876E+02  0.27739244770E+02  0.53891478990E+02  0.00000000000E+00 0. -1.
</event>
<event>
 7    1  0.2564986E-009  0.1187886E+03  0.7561462E-02  0.1245109E+00
         -3   -1    0    0    0  501 -0.00000000000E+00  0.00000000000E+00  0.15893538146E+02  0.15893538146E+02  0.00000000000E+00 0.  1.
          3   -1    0    0  501    0  0.00000000000E+00 -0.00000000000E+00 -0.10161820225E+04  0.10161820225E+04  0.00000000000E+00 0. -1.
         25    2    1    2    0    0  0.66233408856E+02 -0.87772036107E+01 -0.60689287009E+03  0.62324118763E+03  0.12508684355E+03 0.  0.
          5    1    3    3  502    0 -0.23053816685E+02 -0.30892354111E+02 -0.86882506416E+02  0.95141254603E+02  0.41800000000E+01 0.  1.
         -5    1    3    3    0  502  0.89287225541E+02  0.22115150500E+02 -0.52001036368E+03  0.52809993302E+03  0.41800000000E+01 0.  1.
        -11    1    1    2    0    0 -0.37251916955E+00 -0.30194878364E+02 -0.65484105432E+02  0.72111285622E+02  0.00000000000E+00 0.  1.
         11    1    1    2    0    0 -0.65860889686E+02  0.38972081974E+02 -0.32791150881E+03  0.33672308737E+03  0.00000000000E+00 0. -1.
</event>
<event>
 7    1  0.2564986E-009  0.9079132E+02  0.7561462E-02  0.1300947E+00
          1   -1    0    0  501    0  0.00000000000E+00  0.00000000000E+00  0.66109422073E+02  0.66109422073E+02  0.00000000000E+00 0. -1.
         -1   -1    0    0    0  501 -0.00000000000E+00 -0.00000000000E+00 -0.19753518237E+03  0.19753518237E+03  0.00000000000E+00 0.  1.
         25    2    1    2    0    0  0.26271034657E+02  0.82092799958E+01 -0.46530199219E+02  0.13626708765E+03  0.12508437232E+03 0.  0.
          5    1    3    3  502    0 -0.20336770284E+02  0.55136353219E+02 -0.75920078766E+01  0.59402968406E+02  0.41800000000E+01 0.  1.
         -5    1    3    3    0  502  0.46607804941E+02 -0.46927073223E+02 -0.38938191342E+02  0.76864119247E+02  0.41800000000E+01 0.  1.
        -11    1    1    2    0    0  0.14733919914E+02 -0.10620184049E+01 -0.84470208728E+02  0.85752157067E+02  0.00000000000E+00 0.  1.
         11    1    1    2    0    0 -0.41004954571E+02 -0.71472615909E+01 -0.42535235351E+00  0.41625359725E+02  0.00000000000E+00 0. -1.
</event>
<event>
 7    1  0.2807439E-009  0.1496571E+03  0.7561462E-02  0.1200895E+00
          1   -1    0    0  501    0  0.00000000000E+00  0.00000000000E+00  0.21689145719E+03  0.21689145719E+03  0.00000000000E+00 0. -1.
         -1   -1    0    0    0  501 -0.00000000000E+00 -0.00000000000E+00 -0.13685379443E+03  0.13685379443E+03  0.00000000000E+00 0.  1.
         25    2    1    2    0    0 -0.71886844346E+02 -0.10168933389E+03  0.91743126494E+02  0.19893273749E+03  0.12509593826E+03 0.  0.
          5    1    3    3  502    0 -0.10124532672E+03 -0.70162477378E+02  0.94874034857E+02  0.15553759772E+03  0.41800000000E+01 0.  1.
         -5    1    3    3    0  502  0.29358482372E+02 -0.31526856513E+02 -0.31309083635E+01  0.43395139774E+02  0.41800000000E+01 0.  1.
        -11    1    1    2    0    0  0.40473599344E+02  0.91006983733E+02 -0.43657534908E+02  0.10874908591E+03  0.00000000000E+00 0.  1.
         11    1    1    2    0    0  0.31413245002E+02  0.10682350158E+02  0.31952071174E+02  0.46063428214E+02  0.00000000000E+00 0. -1.
</event>
<event>
 7    1  0.2564986E-009  0.8171487E+02  0.7561462E-02  0.1324254E+00
          1   -1    0    0  501    0  0.00000000000E+00  0.00000000000E+00  0.17610677963E+03  0.17610677963E+03  0.00000000000E+00 0. -1.
         -1   -1    0    0    0  501 -0.00000000000E+00 -0.00000000000E+00 -0.87541507148E+02  0.87541507148E+02  0.00000000000E+00 0.  1.
         25    2    1    2    0    0 -0.28481013287E+02  0.11791429544E+02 -0.64334712641E+01  0.12899588073E+03  0.12509333222E+03 0.  0.
          5    1    3    3  502    0 -0.39945341922E+02  0.34400352915E+02 -0.53593899011E+02  0.75291387509E+02  0.41800000000E+01 0. -1.
         -5    1    3    3    0  502  0.11464328634E+02 -0.22608923371E+02  0.47160427747E+02  0.53704493222E+02  0.41800000000E+01 0. -1.
        -11    1    1    2    0    0  0.44123873020E+02  0.20743032075E+02  0.22572572651E+02  0.53728117277E+02  0.00000000000E+00 0.  1.
         11    1    1    2    0    0 -0.15642859733E+02 -0.32534461619E+02  0.72426171097E+02  0.80924288772E+02  0.00000000000E+00 0. -1.
</event>
<event>
 7    1  0.2564986E-009  0.1043125E+03  0.7561462E-02  0.1271480E+00
         -2   -1    0    0    0  501 -0.00000000000E+00  0.00000000000E+00  0.59105680199E+02  0.59105680199E+02  0.00000000000E+00 0.  1.
          2   -1    0    0  501    0  0.00000000000E+00 -0.00000000000E+00 -0.27686387947E+03  0.27686387947E+03  0.00000000000E+00 0. -1.
         25    2    1    2    0    0 -0.64083038721E+02 -0.65355142230E+01 -0.10868861207E+03  0.17779124358E+03  0.12508862099E+03 0.  0.
          5    1    3    3  502    0 -0.34036168730E+02  0.48945008136E+02 -0.96329711832E+02  0.11336207648E+03  0.41800000000E+01 0.  1.
         -5    1    3    3    0  502 -0.30046869992E+02 -0.55480522359E+02 -0.12358900238E+02  0.64429167096E+02  0.41800000000E+01 0.  1.
        -11    1    1    2    0    0  0.69110200511E+02 -0.86355205270E+01 -0.12004795431E+03  0.13878870042E+03  0.00000000000E+00 0. -1.
         11    1    1    2    0    0 -0.50271617897E+01  0.15171034750E+02  0.10978367117E+02  0.19389615664E+02  0.00000000000E+00 0.  1.
</event>
<event>
 7    1  0.3965267E-009  0.1121042E+03  0.7561462E-02  0.1256722E+00
         -2   -1    0    0    0  501 -0.00000000000E+00  0.00000000000E+00  0.20291010153E+02  0.20291010153E+02  0.00000000000E+00 0.  1.
          2   -1    0    0  501    0  0.00000000000E+00 -0.00000000000E+00 -0.77690839665E+03  0.77690839665E+03  0.00000000000E+00 0. -1.
         25    2    1    2    0    0  0.36377983633E+02  0.45591480302E+02 -0.50067703477E+03  0.51935333324E+03  0.12509376814E+03 0.  0.
          5    1    3    3  502    0  0.55371950239E+02  0.79553689060E+02 -0.39256519481E+03  0.40437574963E+03  0.41800000000E+01 0. -1.
         -5    1    3    3    0  502 -0.18993966606E+02 -0.33962208757E+02 -0.10811183997E+03  0.11497758361E+03  0.41800000000E+01 0. -1.
        -11    1    1    2    0    0  0.17165275771E+02 -0.25763365668E+02 -0.24536848662E+02  0.39502590359E+02  0.00000000000E+00 0.  1.
         11    1    1    2    0    0 -0.53543259404E+02 -0.19828114634E+02 -0.23140350306E+03  0.23834348320E+03  0.00000000000E+00 0. -1.
</event>
<event>
 7    1  0.2564986E-009  0.1026850E+03  0.7561462E-02  0.1274749E+00
         -1   -1    0    0    0  501 -0.00000000000E+00  0.00000000000E+00  0.15697995648E+03  0.15697995648E+03  0.00000000000E+00 0.  1.
          1   -1    0    0  501    0  0.00000000000E+00 -0.00000000000E+00 -0.10354377521E+03  0.10354377521E+03  0.00000000000E+00 0. -1.
         25    2    1    2    0    0  0.50408174477E+02 -0.42940016937E+02  0.40986068394E+02  0.14734920159E+03  0.12508836996E+03 0.  0.
          5    1    3    3  502    0  0.12848695255E+02  0.17630722045E+02  0.67600579863E+02  0.71156462302E+02  0.41800000000E+01 0. -1.
         -5    1    3    3    0  502  0.37559479222E+02 -0.60570738982E+02 -0.26614511468E+02  0.76192739293E+02  0.41800000000E+01 0. -1.
        -11    1    1    2    0    0  0.71657402652E+01 -0.23079631001E+02  0.80292448973E+01  0.25465387771E+02  0.00000000000E+00 0. -1.
         11    1    1    2    0    0 -0.57573914743E+02  0.66019647938E+02  0.44208679748E+01  0.87709142319E+02  0.00000000000E+00 0.  1.
</event>
<event>
 7    1  0.2564986E-009  0.7813622E+02  0.7561462E-02  0.1334425E+00
          2   -1    0    0  501    0  0.00000000000E+00  0.00000000000E+00  0.67242390847E+02  0.67242390847E+02  0.00000000000E+00 0. -1.
         -2   -1    0    0    0  501 -0.00000000000E+00 -0.00000000000E+00 -0.19639103627E+03  0.19639103627E+03  0.00000000000E+00 0.  1.
         25    2    1    2    0    0  0.19435502287E+02  0.33737141884E+02 -0.68927237653E+02  0.14803319956E+03  0.12508769160E+03 0.  0.
          5    1    3    3  502    0 -0.54557816182E+01 -0.13044002070E+02 -0.89743771792E+02  0.90946844467E+02  0.41800000000E+01 0.  1.
         -5    1    3    3    0  502  0.24891283905E+02  0.46781143954E+02  0.20816534139E+02  0.57086355092E+02  0.41800000000E+01 0.  1.
        -11    1    1    2    0    0 -0.45084047862E+02  0.11178750200E+01 -0.48995328442E+01  0.45363271909E+02  0.00000000000E+00 0. -1.
         11    1    1    2    0    0  0.25648545576E+02 -0.34855016904E+02 -0.55321874924E+02  0.70236955647E+02  0.00000000000E+00 0.  1.
</event>
<event>
 7    1  0.2564986E-009  0.7954008E+02  0.7561462E-02  0.1330362E+00
          1   -1    0    0  501    0  0.00000000000E+00  0.00000000000E+00  0.20623751587E+03  0.20623751587E+03  0.00000000000E+00 0. -1.
         -1   -1    0    0    0  501 -0.00000000000E+00 -0.00000000000E+00 -0.62906874503E+02  0.62906874503E+02  0.00000000000E+00 0.  1.
         25    2    1    2    0    0 -0.23933203501E+02 -0.10493479497E+02  0.11756638647E+03  0.17364631408E+03  0.12509306866E+03 0.  0.
          5    1    3    3  502    0 -0.26116531877E+02  0.44483572861E+02  0.99387842380E+01  0.52698323730E+02  0.41800000000E+01 0.  1.
         -5    1    3    3    0  502  0.21833283764E+01 -0.54977052358E+02  0.10762760223E+03  0.12094799035E+03  0.41800000000E+01 0.  1.
        -11    1    1    2    0    0  0.37334506177E+02  0.50112895161E+01 -0.23332956577E+02  0.44310328781E+02  0.00000000000E+00 0.  1.
         11    1    1    2    0    0 -0.13401302676E+02  0.54821899808E+01  0.49097211480E+02  0.51187747514E+02  0.00000000000E+00 0. -1.
</event>
<event>
 7    1  0.2564986E-009  0.1242567E+03  0.7561462E-02  0.1236236E+00
         -1   -1    0    0    0  501 -0.00000000000E+00  0.00000000000E+00  0.20831131856E+02  0.20831131856E+02  0.00000000000E+00 0.  1.
          1   -1    0    0  501    0  0.00000000000E+00 -0.00000000000E+00 -0.91276528791E+03  0.91276528791E+03  0.00000000000E+00 0. -1.
         25    2    1    2    0    0 -0.69409034851E+02  0.32277818170E+02 -0.36794273699E+03  0.39609191785E+03  0.12508987977E+03 0.  0.
          5    1    3    3  502    0  0.90280237116E+01  0.50096790500E+02 -0.23635607356E+03  0.24181161994E+03  0.41800000000E+01 0.  1.
         -5    1    3    3    0  502 -0.78437058563E+02 -0.17818972330E+02 -0.13158666343E+03  0.15428029791E+03  0.41800000000E+01 0.  1.
        -11    1    1    2    0    0  0.28213510918E+02  0.30664477143E+02 -0.24651672904E+03  0.25001361973E+03  0.00000000000E+00 0.  1.
         11    1    1    2    0    0  0.41195523933E+02 -0.62942295312E+02 -0.27747469003E+03  0.28749088218E+03  0.00000000000E+00 0. -1.
</event>
<event>
 7    1  0.2564986E-009  0.1020082E+03  0.7561462E-02  0.1276129E+00
          1   -1    0    0  501    0  0.00000000000E+00  0.00000000000E+00  0.10337867854E+03  0.10337867854E+03  0.00000000000E+00 0. -1.
         -1   -1    0    0    0  501 -0.00000000000E+00 -0.00000000000E+00 -0.25343710880E+03  0.25343710880E+03  0.00000000000E+00 0.  1.
         25    2    1    2    0    0 -0.50722647412E+02 -0.46205072330E+02  0.27928642851E+02  0.14538344310E+03  0.12509452732E+03 0.  0.
          5    1    3    3  502    0 -0.74823995339E+02 -0.30259066778E+01 -0.18689203666E+02  0.77295181760E+02  0.41800000000E+01 0.  1.
         -5    1    3    3    0  502  0.24101347927E+02 -0.43179165652E+02  0.46617846517E+02  0.68088261339E+02  0.41800000000E+01 0.  1.
        -11    1    1    2    0    0  0.36528402584E+02  0.52420857530E+02 -0.18402566516E+03  0.19480173494E+03  0.00000000000E+00 0.  1.
         11    1    1    2    0    0  0.14194244827E+02 -0.62157852001E+01  0.60385920480E+01  0.16630609303E+02  0.00000000000E+00 0. -1.
</event>
<event>
 7    1  0.2564986E-009  0.1060803E+03  0.7561462E-02  0.1268006E+00
         -1   -1    0    0    0  501 -0.00000000000E+00  0.00000000000E+00  0.26752157278E+02  0.26752157278E+02  0.00000000000E+00 0.  1.
          1   -1    0    0  501    0  0.00000000000E+00 -0.00000000000E+00 -0.55453332169E+03  0.55453332169E+03  0.00000000000E+00 0. -1.
         25    2    1    2    0    0 -0.29815192978E+02  0.20409951000E+02 -0.40403730847E+03  0.42449933700E+03  0.12509208067E+03 0.  0.
          5    1    3    3  502    0 -0.70522011778E+02  0.28398873198E+02 -0.16330033976E+03  0.18017858783E+03  0.41800000000E+01 0.  1.
         -5    1    3    3    0  502  0.40706818800E+02 -0.79889221987E+01 -0.24073696871E+03  0.24432074918E+03  0.41800000000E+01 0.  1.
        -11    1    1    2    0    0  0.60536926136E+02 -0.19470226297E+02 -0.67801068329E+02  0.92955871275E+02  0.00000000000E+00 0.  1.
         11    1    1    2    0    0 -0.30721733158E+02 -0.93972470292E+00 -0.55942787610E+02  0.63830270689E+02  0.00000000000E+00 0. -1.
</event>
<event>
 7    1  0.2564986E-009  0.1032431E+03  0.7561462E-02  0.1273620E+00
          3   -1    0    0  501    0  0.00000000000E+00  0.00000000000E+00  0.17532551950E+03  0.17532551950E+03  0.00000000000E+00 0. -1.
         -3   -1    0    0    0  501 -0.00000000000E+00 -0.00000000000E+00 -0.75111491885E+02  0.75111491885E+02  0.00000000000E+00 0.  1.
         25    2    1    2    0    0 -0.94018159296E+01 -0.32142783676E+02  0.78729553383E+02  0.15154788611E+03  0.12508743551E+03 0.  0.
          5    1    3    3  502    0  0.54562815900E+02 -0.34001330903E+02  0.30344567594E+02  0.71214159860E+02  0.41800000000E+01 0. -1.
         -5    1    3    3    0  502 -0.63964631830E+02  0.18585472272E+01  0.48384985789E+02  0.80333726247E+02  0.41800000000E+01 0. -1.
        -11    1    1    2    0    0  0.26762290675E+02 -0.12864153131E+02 -0.19555379515E+02  0.35554458313E+02  0.00000000000E+00 0.  1.
         11    1    1    2    0    0 -0.17360474745E+02  0.45006936807E+02  0.41039853748E+02  0.63334666966E+02  0.00000000000E+00 0. -1.
</event>
<event>
 7    1  0.2564986E-009  0.1195602E+03  0.7561462E-02  0.1243824E+00
         -1   -1    0    0    0  501 -0.00000000000E+00  0.00000000000E+00  0.49390227516E+03  0.49390227516E+03  0.00000000000E+00 0.  1.
          1   -1    0    0  501    0  0.00000000000E+00 -0.00000000000E+00 -0.30849273017E+02  0.30849273017E+02  0.00000000000E+00 0. -1.
         25    2    1    2    0    0  0.54305942010E+02 -0.77787804431E+01  0.23059622835E+03  0.26801812838E+03  0.12509776915E+03 0.  0.
          5    1    3    3  502    0  0.48493955976E+02  0.51774224020E+02  0.16197336143E+03  0.17687587810E+03  0.41800000000E+01 0.  1.
         -5    1    3    3    0  502  0.58119860337E+01 -0.59553004463E+02  0.68622866920E+02  0.91142250283E+02  0.41800000000E+01 0.  1.
        -11    1    1    2    0    0 -0.52041649438E+02 -0.36611243077E+02  0.15271828283E+03  0.16544361670E+03  0.00000000000E+00 0. -1.
         11    1    1    2    0    0 -0.22642925724E+01  0.44390023520E+02  0.79738490952E+02  0.91289803091E+02  0.00000000000E+00 0.  1.
</event>
<event>
 7    1  0.2564986E-009  0.7770713E+02  0.7561462E-02  0.1335687E+00
         -2   -1    0    0    0  501 -0.00000000000E+00  0.00000000000E+00  0.10808951776E+02  0.10808951776E+02  0.00000000000E+00 0.  1.
          2   -1    0    0  501    0  0.00000000000E+00 -0.00000000000E+00 -0.14504135873E+04  0.14504135873E+04  0.00000000000E+00 0. -1.
         25    2    1    2    0    0 -0.25227505896E+02  0.10315636949E+02 -0.11348647582E+04  0.11420628361E+04  0.12508662120E+03 0.  0.
          5    1    3    3  502    0  0.20735413688E+02  0.79369771856E+01 -0.37885136654E+02  0.44110191191E+02  0.41800000000E+01 0.  1.
         -5    1    3    3    0  502 -0.45962919584E+02  0.23786597631E+01 -0.10969796215E+04  0.10979526449E+04  0.41800000000E+01 0.  1.
        -11    1    1    2    0    0  0.54650868386E+02 -0.15329951386E+02 -0.25423769223E+03  0.26049669667E+03  0.00000000000E+00 0. -1.
         11    1    1    2    0    0 -0.29423362489E+02  0.50143144369E+01 -0.50502185162E+02  0.58663006363E+02  0.00000000000E+00 0.  1.
</event>
<event>
 7    1  0.2564986E-009  0.4239111E+02  0.7561462E-02  0.1491318E+00
         -2   -1    0    0    0  501 -0.00000000000E+00  0.00000000000E+00  0.11125844954E+03  0.11125844954E+03  0.00000000000E+00 0.  1.
          2   -1    0    0  501    0  0.00000000000E+00 -0.00000000000E+00 -0.11855887509E+03  0.11855887509E+03  0.00000000000E+00 0. -1.
         25    2    1    2    0    0 -0.10499154016E+02  0.37143091298E+02  0.19382647059E+02  0.13233481630E+03  0.12508786964E+03 0.  0.
          5    1    3    3  502    0 -0.11084001582E+02  0.29632740965E+02  0.72137467573E+02  0.78881183155E+02  0.41800000000E+01 0. -1.
         -5    1    3    3    0  502  0.58484756579E+00  0.75103503336E+01 -0.52754820514E+02  0.53453633143E+02  0.41800000000E+01 0. -1.
        -11    1    1    2    0    0 -0.52463020577E+01 -0.21227739650E+02 -0.56276119120E+02  0.60375013036E+02  0.00000000000E+00 0. -1.
         11    1    1    2    0    0  0.15745456074E+02 -0.15915351649E+02  0.29593046516E+02  0.37107495297E+02  0.00000000000E+00 0.  1.
</event>
<event>
 7    1  0.2564986E-009  0.1069190E+03  0.7561462E-02  0.1266384E+00
         -1   -1    0    0    0  501 -0.00000000000E+00  0.00000000000E+00  0.43602337671E+02  0.43602337671E+02  0.00000000000E+00 0.  1.
          1   -1    0    0  501    0  0.00000000000E+00 -0.00000000000E+00 -0.43028945269E+03  0.43028945269E+03  0.00000000000E+00 0. -1.
         25    2    1    2    0    0 -0.34429080783E+02 -0.65649753477E+02 -0.27574584791E+03  0.31173515047E+03  0.12509108549E+03 0.  0.
          5    1    3    3  502    0  0.24040353250E+01 -0.61104375436E+02 -0.26622990102E+03  0.27319472301E+03  0.41800000000E+01 0. -1.
         -5    1    3    3    0  502 -0.36833116108E+02 -0.45453780417E+01 -0.95159468819E+01  0.38540427461E+02  0.41800000000E+01 0. -1.
        -11    1    1    2    0    0 -0.27162067545E+00  0.78271235307E+02 -0.57166763786E+02  0.96925223425E+02  0.00000000000E+00 0.  1.
         11    1    1    2    0    0  0.34700701459E+02 -0.12621481830E+02 -0.53774503325E+02  0.65231416458E+02  0.00000000000E+00 0. -1.
</event>
<event>
 7    1  0.2564986E-009  0.1386257E+03  0.7561462E-02  0.1215190E+00
         -1   -1    0    0    0  501 -0.00000000000E+00  0.00000000000E+00  0.73718190517E+02  0.73718190517E+02  0.00000000000E+00 0.  1.
          1   -1    0    0  501    0  0.00000000000E+00 -0.00000000000E+00 -0.40005192691E+03  0.40005192691E+03  0.00000000000E+00 0. -1.
         25    2    1    2    0    0 -0.27473294513E+02 -0.87240476491E+02 -0.39631393926E+02  0.15993463902E+03  0.12507101473E+03 0.  0.
          5    1    3    3  502    0  0.41518902145E+02 -0.68681950014E+02 -0.52460240619E+01  0.80535847059E+02  0.41800000000E+01 0.  1.
         -5    1    3    3    0  502 -0.68992196658E+02 -0.18558526476E+02 -0.34385369865E+02  0.79398791964E+02  0.41800000000E+01 0.  1.
        -11    1    1    2    0    0 -0.68303161780E+01  0.90595414352E+02 -0.23229129963E+03  0.24942620192E+03  0.00000000000E+00 0.  1.
         11    1    1    2    0    0  0.34303610691E+02 -0.33549378617E+01 -0.54411042834E+02  0.64409276481E+02  0.00000000000E+00 0. -1.
</event>
<event>
 7    1  0.2564986E-009  0.6805011E+02  0.7561462E-02  0.1366852E+00
          1   -1    0    0  501    0  0.00000000000E+00  0.00000000000E+00  0.14171895119E+03  0.14171895119E+03  0.00000000000E+00 0. -1.
         -1   -1    0    0    0  501 -0.00000000000E+00 -0.00000000000E+00 -0.83983054904E+02  0.83983054904E+02  0.00000000000E+00 0.  1.
         25    2    1    2    0    0 -0.18621394795E+02  0.82505470168E+01  0.13051659713E+02  0.12741146851E+03  0.12509399912E+03 0.  0.
          5    1    3    3  502    0 -0.33436419253E+02  0.11998700175E+02  0.64404234896E+02  0.73670488059E+02  0.41800000000E+01 0. -1.
         -5    1    3    3    0  502  0.14815024457E+02 -0.37481531584E+01 -0.51352575183E+02  0.53740980450E+02  0.41800000000E+01 0. -1.
        -11    1    1    2    0    0  0.21169186472E+02 -0.43905255588E+02  0.38276880293E+02  0.61975200597E+02  0.00000000000E+00 0. -1.
         11    1    1    2    0    0 -0.25477916763E+01  0.35654708571E+02  0.64073562751E+01  0.36315336982E+02  0.00000000000E+00 0.  1.
</event>
<event>
 7    1  0.3725419E-009  0.1857225E+03  0.7561462E-02  0.1162377E+00
          2   -1    0    0  501    0  0.00000000000E+00  0.00000000000E+00  0.14723881131E+04  0.14723881131E+04  0.00000000000E+00 0. -1.
         -2   -1    0    0    0  501 -0.00000000000E+00 -0.00000000000E+00 -0.27075901887E+02  0.27075901887E+02  0.00000000000E+00 0.  1.
         25    2    1    2    0    0 -0.48280157214E+02 -0.15922969684E+03  0.70792301729E+03  0.73789385754E+03  0.12508907489E+03 0.  0.
          5    1    3    3  502    0 -0.64311924574E+02 -0.92976171978E+02  0.59706650842E+03  0.60768946023E+03  0.41800000000E+01 0.  1.
         -5    1    3    3    0  502  0.16031767360E+02 -0.66253524860E+02  0.11085650886E+03  0.13020439731E+03  0.41800000000E+01 0.  1.
        -11    1    1    2    0    0 -0.26529534294E+02  0.61250414726E+02  0.23703294892E+03  0.24625200175E+03  0.00000000000E+00 0.  1.
         11    1    1    2    0    0  0.74809691508E+02  0.97979282113E+02  0.50035624497E+03  0.51531815565E+03  0.00000000000E+00 0. -1.
</event>
<event>
 7    1  0.2564986E-009  0.7132293E+02  0.7561462E-02  0.1355651E+00
          4   -1    0    0  501    0  0.00000000000E+00  0.00000000000E+00  0.29863786744E+02  0.29863786744E+02  0.00000000000E+00 0. -1.
         -4   -1    0    0    0  501 -0.00000000000E+00 -0.00000000000E+00 -0.63667316762E+03  0.63667316762E+03  0.00000000000E+00 0.  1.
         25    2    1    2    0    0 -0.96112227982E+01 -0.15926507943E+02 -0.53540965785E+03  0.55014259371E+03  0.12508933781E+03 0.  0.
          5    1    3    3  502    0  0.12328650551E+02 -0.41782713157E+02 -0.49623708577E+03  0.49816313436E+03  0.41800000000E+01 0. -1.
         -5    1    3    3    0  502 -0.21939873349E+02  0.25856205214E+02 -0.39172572082E+02  0.51979459349E+02  0.41800000000E+01 0. -1.
        -11    1    1    2    0    0  0.23766393998E+02 -0.16769243182E+02  0.73143453845E+01  0.29992476539E+02  0.00000000000E+00 0. -1.
         11    1    1    2    0    0 -0.14155171200E+02  0.32695751124E+02 -0.78714068416E+02  0.86401884123E+02  0.00000000000E+00 0.  1.
</event>
<event>
 7    1  0.2564986E-009  0.8967776E+02  0.7561462E-02  0.1303634E+00
         -2   -1    0    0    0  501 -0.00000000000E+00  0.00000000000E+00  0.39393738955E+02  0.39393738955E+02  0.00000000000E+00 0.  1.
          2   -1    0    0  501    0  0.00000000000E+00 -0.00000000000E+00 -0.36643748055E+03  0.36643748055E+03  0.00000000000E+00 0. -1.
         25    2    1    2    0    0 -0.45128126610E+02  0.20407094456E+02 -0.19826362911E+03  0.23959953384E+03  0.12508586119E+03 0.  0.
          5    1    3    3  502    0 -0.68749584021E+02 -0.29128519857E+02 -0.82078804522E+02  0.11103773469E+03  0.41800000000E+01 0.  1.
         -5    1    3    3    0  502  0.23621457411E+02  0.49535614313E+02 -0.11618482459E+03  0.12856179915E+03  0.41800000000E+01 0.  1.
        -11    1    1    2    0    0  0.12418763152E+02 -0.52170688617E+01  0.13726917374E+02  0.19232049978E+02  0.00000000000E+00 0.  1.
         11    1    1    2    0    0  0.32709363458E+02 -0.15190025595E+02 -0.14250702986E+03  0.14699963569E+03  0.00000000000E+00 0. -1.
</event>
<event>
 7    1  0.2564986E-009  0.8912342E+02  0.7561462E-02  0.1304988E+00
         -2   -1    0    0    0  501 -0.00000000000E+00  0.00000000000E+00  0.78598915449E+02  0.78598915449E+02  0.00000000000E+00 0.  1.
          2   -1    0    0  501    0  0.00000000000E+00 -0.00000000000E+00 -0.15543808638E+03  0.15543808638E+03  0.00000000000E+00 0. -1.
         25    2    1    2    0    0  0.23423749620E+02  0.32846150822E+01 -0.28779366975E+02  0.13052173285E+03  0.12509280571E+03 0.  0.
          5    1    3    3  502    0 -0.39276864712E+01 -0.58917592836E+02 -0.14905361500E+02  0.61043850371E+02  0.41800000000E+01 0. -1.
         -5    1    3    3    0  502  0.27351436091E+02  0.62202207918E+02 -0.13874005475E+02  0.69477882481E+02  0.41800000000E+01 0. -1.
        -11    1    1    2    0    0  0.36835663161E+01  0.16822816406E+02 -0.63937567364E+02  0.66216224092E+02  0.00000000000E+00 0. -1.
         11    1    1    2    0    0 -0.27107315936E+02 -0.20107431488E+02  0.15877763409E+02  0.37299044883E+02  0.00000000000E+00 0.  1.
</event>
<event>
 7    1  0.2564986E-009  0.1070764E+03  0.7561462E-02  0.1266082E+00
         -1   -1    0    0    0  501 -0.00000000000E+00  0.00000000000E+00  0.22376318989E+02  0.22376318989E+02  0.00000000000E+00 0.  1.
          1   -1    0    0  501    0  0.00000000000E+00 -0.00000000000E+00 -0.79916995562E+03  0.79916995562E+03  0.00000000000E+00 0. -1.
         25    2    1    2    0    0  0.36030613979E+02 -0.33163803567E+02 -0.60973628537E+03  0.62435838843E+03  0.12508803495E+03 0.  0.
          5    1    3    3  502    0  0.61953266704E+02 -0.53046656640E+02 -0.24745876233E+03  0.26058677344E+03  0.41800000000E+01 0. -1.
         -5    1    3    3    0  502 -0.25922652726E+02  0.19882853074E+02 -0.36227752304E+03  0.36377161499E+03  0.41800000000E+01 0. -1.
        -11    1    1    2    0    0 -0.37997603808E+02 -0.22294894439E+02 -0.44334345097E+02  0.62501314934E+02  0.00000000000E+00 0.  1.
         11    1    1    2    0    0  0.19669898292E+01  0.55458698006E+02 -0.12272300616E+03  0.13468657125E+03  0.00000000000E+00 0. -1.
</event>
<event>
 7    1  0.2564986E-009  0.9303336E+02  0.7561462E-02  0.1295668E+00
         -4   -1    0    0    0  501 -0.00000000000E+00  0.00000000000E+00  0.61452965092E+02  0.61452965092E+02  0.00000000000E+00 0. -1.
          4   -1    0    0  501    0  0.00000000000E+00 -0.00000000000E+00 -0.16295249497E+03  0.16295249497E+03  0.00000000000E+00 0.  1.
         25    2    1    2    0    0 -0.25116180580E+02  0.14262829163E+02 -0.73481422063E+02  0.14793051605E+03  0.12509863056E+03 0.  0.
          5    1    3    3  502    0  0.39181853885E+02  0.30582371025E+02 -0.14262091378E+01  0.49899955550E+02  0.41800000000E+01 0.  1.
         -5    1    3    3    0  502 -0.64298034465E+02 -0.16319541861E+02 -0.72055212925E+02  0.98030560502E+02  0.41800000000E+01 0.  1.
        -11    1    1    2    0    0  0.38123401791E+02 -0.30565149458E+02 -0.26444358146E+02  0.55560113420E+02  0.00000000000E+00 0.  1.
         11    1    1    2    0    0 -0.13007221210E+02  0.16302320295E+02 -0.15737496695E+01  0.20914830590E+02  0.00000000000E+00 0. -1.
</event>
<event>
 7    1  0.2564986E-009  0.1819307E+03  0.7561462E-02  0.1165947E+00
          3   -1    0    0  501    0  0.00000000000E+00  0.00000000000E+00  0.22723744004E+02  0.22723744004E+02  0.00000000000E+00 0. -1.
         -3   -1    0    0    0  501 -0.00000000000E+00 -0.00000000000E+00 -0.17304717630E+04  0.17304717630E+04  0.00000000000E+00 0.  1.
         25    2    1    2    0    0  0.71140230662E+02  0.14965008510E+03 -0.92345981637E+03  0.94651050134E+03  0.12509203136E+03 0.  0.
          5    1    3    3  502    0  0.52130093257E+02  0.15137204181E+03 -0.90679561561E+03  0.92082941012E+03  0.41800000000E+01 0.  1.
         -5    1    3    3    0  502  0.19010137405E+02 -0.17219567147E+01 -0.16664200768E+02  0.25681091221E+02  0.41800000000E+01 0.  1.
        -11    1    1    2    0    0  0.13036033689E+02 -0.59167856021E+02 -0.34786016417E+03  0.35309696569E+03  0.00000000000E+00 0.  1.
         11    1    1    2    0    0 -0.84176264351E+02 -0.90482229077E+02 -0.43642803841E+03  0.45358803993E+03  0.00000000000E+00 0. -1.
</event>
<event>
 7    1  0.2564986E-009  0.1327937E+03  0.7561462E-02  0.1223368E+00
         -1   -1    0    0    0  501 -0.00000000000E+00  0.00000000000E+00  0.26873011188E+02  0.26873011188E+02  0.00000000000E+00 0.  1.
          1   -1    0    0  501    0  0.00000000000E+00 -0.00000000000E+00 -0.97206229863E+03  0.97206229863E+03  0.00000000000E+00 0. -1.
         25    2    1    2    0    0 -0.10596084352E+03  0.47441690564E+02 -0.59292917891E+03  0.61700174412E+03  0.12509087371E+03 0.  0.
          5    1    3    3  502    0 -0.47423417207E+02  0.37312514804E+02 -0.78320280490E+02  0.98958289176E+02  0.41800000000E+01 0. -1.
         -5    1    3    3    0  502 -0.58537426311E+02  0.10129175760E+02 -0.51460889842E+03  0.51804345494E+03  0.41800000000E+01 0. -1.
        -11    1    1    2    0    0 -0.13463341522E+02  0.59632677690E+01 -0.19913920466E+02  0.24766637958E+02  0.00000000000E+00 0.  1.
         11    1    1    2    0    0  0.11942418504E+03 -0.53404958333E+02 -0.33234618807E+03  0.35716692774E+03  0.00000000000E+00 0. -1.
</event>
<event>
 7    1  0.2564986E-009  0.7617203E+02  0.7561462E-02  0.1340280E+00
          2   -1    0    0  501    0  0.00000000000E+00  0.00000000000E+00  0.23682128316E+03  0.23682128316E+03  0.00000000000E+00 0. -1.
         -2   -1    0    0    0  501 -0.00000000000E+00 -0.00000000000E+00 -0.53725376950E+02  0.53725376950E+02  0.00000000000E+00 0.  1.
         25    2    1    2    0    0 -0.20858838680E+02 -0.20312119020E+02  0.95250303231E+02  0.15989960235E+03  0.12509032431E+03 0.  0.
          5    1    3    3  502    0 -0.36452333193E+02  0.99266487268E+01 -0.17651401439E+02  0.41908893124E+02  0.41800000000E+01 0.  1.
         -5    1    3    3    0  502  0.15593494513E+02 -0.30238767747E+02  0.11290170467E+03  0.11799070922E+03  0.41800000000E+01 0.  1.
        -11    1    1    2    0    0 -0.82605206535E+01 -0.24923943802E+02 -0.15599112653E+01  0.26303469339E+02  0.00000000000E+00 0.  1.
         11    1    1    2    0    0  0.29119359334E+02  0.45236062822E+02  0.89405514246E+02  0.10434358842E+03  0.00000000000E+00 0. -1.
</event>
<event>
 7    1  0.2564986E-009  0.1074601E+03  0.7561462E-02  0.1265347E+00
          1   -1    0    0  501    0  0.00000000000E+00  0.00000000000E+00  0.23497538186E+03  0.23497538186E+03  0.00000000000E+00 0. -1.
         -1   -1    0    0    0  501 -0.00000000000E+00 -0.00000000000E+00 -0.99209485179E+02  0.99209485179E+02  0.00000000000E+00 0.  1.
         25    2    1    2    0    0 -0.61951729997E+02  0.17938715458E+02 -0.19296705295E+02  0.14206111386E+03  0.12509669410E+03 0.  0.
          5    1    3    3  502    0 -0.21340848495E+02  0.70700724359E+02 -0.12258783370E+02  0.74978492977E+02  0.41800000000E+01 0.  1.
         -5    1    3    3    0  502 -0.40610881502E+02 -0.52762008901E+02 -0.70379219249E+01  0.67082620884E+02  0.41800000000E+01 0.  1.
        -11    1    1    2    0    0  0.20186726247E+02  0.11414141449E+02 -0.53373771237E+01  0.23796515211E+02  0.00000000000E+00 0.  1.
         11    1    1    2    0    0  0.41765003750E+02 -0.29352856908E+02  0.16039997910E+03  0.16832723797E+03  0.00000000000E+00 0. -1.
</event>
<event>
 7    1  0.2564986E-009  0.1004511E+03  0.7561462E-02  0.1279350E+00
         -2   -1    0    0    0  501 -0.00000000000E+00  0.00000000000E+00  0.24884064456E+02  0.24884064456E+02  0.00000000000E+00 0.  1.
          2   -1    0    0  501    0  0.00000000000E+00 -0.00000000000E+00 -0.54352144288E+03  0.54352144288E+03  0.00000000000E+00 0. -1.
         25    2    1    2    0    0  0.25694154096E+02  0.57188287265E+01 -0.21551620598E+03  0.25057302518E+03  0.12508681526E+03 0.  0.
          5    1    3    3  502    0 -0.35177860960E+01 -0.49537056202E+02 -0.15748244735E+03  0.16518016945E+03  0.41800000000E+01 0.  1.
         -5    1    3    3    0  502  0.29211940192E+02  0.55255884929E+02 -0.58033758635E+02  0.85392855734E+02  0.41800000000E+01 0.  1.
        -11    1    1    2    0    0  0.72942232952E+01  0.35151457439E+02 -0.67767059823E+02  0.76689015189E+02  0.00000000000E+00 0.  1.
         11    1    1    2    0    0 -0.32988377392E+02 -0.40870286165E+02 -0.23535411261E+03  0.24114346696E+03  0.00000000000E+00 0. -1.
</event>
<event>
 7    1  0.2564986E-009  0.1371094E+03  0.7561462E-02  0.1217272E+00
          1   -1    0    0  501    0  0.00000000000E+00  0.00000000000E+00  0.17367208701E+04  0.17367208701E+04  0.00000000000E+00 0. -1.
         -1   -1    0    0    0  501 -0.00000000000E+00 -0.00000000000E+00 -0.15076586376E+02  0.15076586376E+02  0.00000000000E+00 0.  1.
         25    2    1    2    0    0  0.92751970442E+02 -0.29501630815E+02  0.12937950982E+04  0.13034670310E+04  0.12508905011E+03 0.  0.
          5    1    3    3  502    0  0.42433058244E+02  0.37461183906E+02  0.84494671358E+03  0.84685082861E+03  0.41800000000E+01 0.  1.
         -5    1    3    3    0  502  0.50318912198E+02 -0.66962814721E+02  0.44884838466E+03  0.45661620240E+03  0.41800000000E+01 0.  1.
        -11    1    1    2    0    0 -0.13357958542E+02 -0.31013847883E+02  0.12308793151E+03  0.12763593812E+03  0.00000000000E+00 0. -1.
         11    1    1    2    0    0 -0.79394011901E+02  0.60515478698E+02  0.30476125395E+03  0.32069448732E+03  0.00000000000E+00 0.  1.
</event>
<event>
 7    1  0.2564986E-009  0.1532237E+03  0.7561462E-02  0.1196567E+00
         -2   -1    0    0    0  501 -0.00000000000E+00  0.00000000000E+00  0.81219861402E+02  0.81219861402E+02  0.00000000000E+00 0.  1.
          2   -1    0    0  501    0  0.00000000000E+00 -0.00000000000E+00 -0.40935374038E+03  0.40935374038E+03  0.00000000000E+00 0. -1.
         25    2    1    2    0    0 -0.96292898555E+02 -0.10138574700E+03 -0.11695290584E+03  0.22108110450E+03  0.12508988998E+03 0.  0.
          5    1    3    3  502    0 -0.34714223824E+02 -0.23408559512E+02 -0.11407925123E+03  0.12159188277E+03  0.41800000000E+01 0. -1.
         -5    1    3    3    0  502 -0.61578674731E+02 -0.77977187485E+02 -0.28736546132E+01  0.99489221730E+02  0.41800000000E+01 0. -1.
        -11    1    1    2    0    0  0.55299290052E+02  0.10992308874E+03 -0.13575249747E+03  0.18322073433E+03  0.00000000000E+00 0.  1.
         11    1    1    2    0    0  0.40993608502E+02 -0.85373417435E+01 -0.75428475673E+02  0.86271762961E+02  0.00000000000E+00 0. -1.
</event>
<event>
 7    1  0.2564986E-009  0.1579493E+03  0.7561462E-02  0.1191032E+00
          1   -1    0    0  501    0  0.00000000000E+00  0.00000000000E+00  0.54463674927E+03  0.54463674927E+03  0.00000000000E+00 0. -1.
         -1   -1    0    0    0  501 -0.00000000000E+00 -0.00000000000E+00 -0.55362961275E+02  0.55362961275E+02  0.00000000000E+00 0.  1.
         25    2    1    2    0    0 -0.12633735834E+03 -0.36292880225E+02  0.19924375346E+03  0.26948852568E+03  0.12509073073E+03 0.  0.
          5    1    3    3  502    0 -0.11580672504E+03  0.15364442912E+02  0.17699669869E+03  0.21211451486E+03  0.41800000000E+01 0.  1.
         -5    1    3    3    0  502 -0.10530633308E+02 -0.51657323137E+02  0.22247054772E+02  0.57374010820E+02  0.41800000000E+01 0.  1.
        -11    1    1    2    0    0  0.60148166138E+02 -0.15452842206E+02  0.63125058767E+02  0.88551483705E+02  0.00000000000E+00 0.  1.
         11    1    1    2    0    0  0.66189192206E+02  0.51745722430E+02  0.22690497578E+03  0.24195970116E+03  0.00000000000E+00 0. -1.
</event>
<event>
 7    1  0.2564986E-009  0.1378903E+03  0.7561462E-02  0.1216196E+00
         -2   -1    0    0    0  501 -0.00000000000E+00  0.00000000000E+00  0.19153381557E+02  0.19153381557E+02  0.00000000000E+00 0.  1.
          2   -1    0    0  501    0  0.00000000000E+00 -0.00000000000E+00 -0.13746717756E+04  0.13746717756E+04  0.00000000000E+00 0. -1.
         25    2    1    2    0    0 -0.30629332322E+01  0.11282896449E+03 -0.91716186143E+03  0.93250902912E+03  0.12508977793E+03 0.  0.
          5    1    3    3  502    0  0.35090608175E+02  0.84165637484E+02 -0.81000163199E+03  0.81512902141E+03  0.41800000000E+01 0.  1.
         -5    1    3    3    0  502 -0.38153541407E+02  0.28663327008E+02 -0.10716022944E+03  0.11738000771E+03  0.41800000000E+01 0.  1.
        -11    1    1    2    0    0  0.39118691444E+02 -0.43874189681E+02 -0.26270562726E+03  0.26920152885E+03  0.00000000000E+00 0. -1.
         11    1    1    2    0    0 -0.36055758212E+02 -0.68954774810E+02 -0.17565090534E+03  0.19211459918E+03  0.00000000000E+00 0.  1.
</event>
<event>
 7    1  0.2564986E-009  0.8032029E+02  0.7561462E-02  0.1328145E+00
         -1   -1    0    0    0  501 -0.00000000000E+00  0.00000000000E+00  0.40719147708E+02  0.40719147708E+02  0.00000000000E+00 0. -1.
          1   -1    0    0  501    0  0.00000000000E+00 -0.00000000000E+00 -0.36833917011E+03  0.36833917011E+03  0.00000000000E+00 0.  1.
         25    2    1    2    0    0 -0.46444228630E+02 -0.26614461719E+02 -0.21623726319E+03  0.25548281993E+03  0.12509005292E+03 0.  0.
          5    1    3    3  502    0 -0.25563420205E+02  0.25448531541E+02 -0.47246751715E+01  0.36618453895E+02  0.41800000000E+01 0. -1.
         -5    1    3    3    0  502 -0.20880808425E+02 -0.52062993260E+02 -0.21151258802E+03  0.21886436603E+03  0.41800000000E+01 0. -1.
        -11    1    1    2    0    0  0.37873289095E+01  0.25111056414E+02  0.81337327426E+01  0.26665832498E+02  0.00000000000E+00 0. -1.
         11    1    1    2    0    0  0.42656899721E+02  0.15034053054E+01 -0.11951649195E+03  0.12690966539E+03  0.00000000000E+00 0.  1.
</event>
<event>
 7    1  0.2564986E-009  0.6265518E+02  0.7561462E-02  0.1387015E+00
          2   -1    0    0  501    0  0.00000000000E+00  0.00000000000E+00  0.45708379076E+02  0.45708379076E+02  0.00000000000E+00 0. -1.
         -2   -1    0    0    0  501 -0.00000000000E+00 -0.00000000000E+00 -0.28678635338E+03  0.28678635338E+03  0.00000000000E+00 0.  1.
         25    2    1    2    0    0  0.23431954513E+02  0.11129875389E+02 -0.17525437233E+03  0.21687530316E+03  0.12509145248E+03 0.  0.
          5    1    3    3  502    0 -0.43217566041E+01 -0.66933197944E+01  0.18349901590E+02  0.20436961574E+02  0.41800000000E+01 0.  1.
         -5    1    3    3    0  502  0.27753711117E+02  0.17823195183E+02 -0.19360427392E+03  0.19643834159E+03  0.41800000000E+01 0.  1.
        -11    1    1    2    0    0 -0.46256216056E+02 -0.28545949519E+02 -0.13610407690E+02  0.56033489587E+02  0.00000000000E+00 0. -1.
         11    1    1    2    0    0  0.22824261543E+02  0.17416074130E+02 -0.52213194289E+02  0.59585939708E+02  0.00000000000E+00 0.  1.
</event>
<event>
 7    1  0.2564986E-009  0.9364904E+02  0.7561462E-02  0.1294248E+00
         -2   -1    0    0    0  501 -0.00000000000E+00  0.00000000000E+00  0.95918013816E+02  0.95918013816E+02  0.00000000000E+00 0.  1.
          2   -1    0    0  501    0  0.00000000000E+00 -0.00000000000E+00 -0.25105174416E+03  0.25105174416E+03  0.00000000000E+00 0. -1.
         25    2    1    2    0    0 -0.39909631681E+02  0.40462295922E+01 -0.19914464148E+03  0.23857051977E+03  0.12509258171E+03 0.  0.
          5    1    3    3  502    0 -0.41056501800E+01 -0.44743760857E+02 -0.16031624421E+03  0.16654618296E+03  0.41800000000E+01 0. -1.
         -5    1    3    3    0  502 -0.35803981501E+02  0.48789990450E+02 -0.38828397265E+02  0.72024336814E+02  0.41800000000E+01 0. -1.
        -11    1    1    2    0    0 -0.10611490062E+02 -0.24736721545E+02  0.46522147354E+02  0.53747737706E+02  0.00000000000E+00 0.  1.
         11    1    1    2    0    0  0.50521121743E+02  0.20690491953E+02 -0.25112362221E+01  0.54651500499E+02  0.00000000000E+00 0. -1.
</event>
<event>
 7    1  0.2614614E-009  0.1473101E+03  0.7561462E-02  0.1203818E+00
         -1   -1    0    0    0  501 -0.00000000000E+00  0.00000000000E+00  0.53007623597E+02  0.53007623597E+02  0.00000000000E+00 0.  1.
          1   -1    0    0  501    0  0.00000000000E+00 -0.00000000000E+00 -0.54703934069E+03  0.54703934069E+03  0.00000000000E+00 0. -1.
         25    2    1    2    0    0  0.10532402099E+03 -0.54434859295E+02 -0.16406284356E+03  0.23795284885E+03  0.12509451760E+03 0.  0.
          5    1    3    3  502    0  0.11267028866E+03 -0.81087866515E+02 -0.11029033898E+03  0.17734505156E+03  0.41800000000E+01 0.  1.
         -5    1    3    3    0  502 -0.73462676705E+01  0.26653007219E+02 -0.53772504586E+02  0.60607797287E+02  0.41800000000E+01 0.  1.
        -11    1    1    2    0    0 -0.70877154752E+02  0.10033839041E+02 -0.86769221953E+02  0.11248620747E+03  0.00000000000E+00 0.  1.
         11    1    1    2    0    0 -0.34446866239E+02  0.44401020254E+02 -0.24319965157E+03  0.24960790797E+03  0.00000000000E+00 0. -1.
</event>
<event>
 7    1  0.2564986E-009  0.1371070E+03  0.7561462E-02  0.1217276E+00
          1   -1    0    0  501    0  0.00000000000E+00  0.00000000000E+00  0.14033879897E+03  0.14033879897E+03  0.00000000000E+00 0. -1.
         -1   -1    0    0    0  501 -0.00000000000E+00 -0.00000000000E+00 -0.19305832354E+03  0.19305832354E+03  0.00000000000E+00 0.  1.
         25    2    1    2    0    0 -0.67961553020E+02 -0.10202095186E+03 -0.12909078083E+02  0.17561729868E+03  0.12509094289E+03 0.  0.
          5    1    3    3  502    0 -0.38114509321E+02 -0.68606546756E+02  0.53732489411E+02  0.95206233498E+02  0.41800000000E+01 0.  1.
         -5    1    3    3    0  502 -0.29847043699E+02 -0.33414405108E+02 -0.66641567494E+02  0.80411065186E+02  0.41800000000E+01 0.  1.
        -11    1    1    2    0    0  0.87223011032E+02  0.97530440589E+02 -0.25343216446E+02  0.13327535074E+03  0.00000000000E+00 0. -1.
         11    1    1    2    0    0 -0.19261458012E+02  0.44905112757E+01 -0.14467230043E+02  0.24504473090E+02  0.00000000000E+00 0.  1.
</event>
<event>
 7    1  0.2564986E-009  0.1712007E+03  0.7561462E-02  0.1176601E+00
         -1   -1    0    0    0  501 -0.00000000000E+00  0.00000000000E+00  0.26931836966E+02  0.26931836966E+02  0.00000000000E+00 0.  1.
          1   -1    0    0  501    0  0.00000000000E+00 -0.00000000000E+00 -0.11313775603E+04  0.11313775603E+04  0.00000000000E+00 0. -1.
         25    2    1    2    0    0 -0.26813459406E+02  0.13340839571E+03 -0.56657235812E+03  0.59595760067E+03  0.12507782841E+03 0.  0.
          5    1    3    3  502    0  0.21055535503E+02  0.13020513784E+03 -0.34890750968E+03  0.37302900183E+03  0.41800000000E+01 0.  1.
         -5    1    3    3    0  502 -0.47868994908E+02  0.32032578746E+01 -0.21766484844E+03  0.22292859885E+03  0.41800000000E+01 0.  1.
        -11    1    1    2    0    0  0.59337212606E+02 -0.94303935532E+02 -0.40596893720E+03  0.42098089627E+03  0.00000000000E+00 0. -1.
         11    1    1    2    0    0 -0.32523753200E+02 -0.39104460181E+02 -0.13190442802E+03  0.14137090032E+03  0.00000000000E+00 0.  1.
</event>
<event>
 7    1  0.2564986E-009  0.3042891E+03  0.7561462E-02  0.1083116E+00
         -1   -1    0    0    0  501 -0.00000000000E+00  0.00000000000E+00  0.14298934828E+03  0.14298934828E+03  0.00000000000E+00 0.  1.
          1   -1    0    0  501    0  0.00000000000E+00 -0.00000000000E+00 -0.75931229580E+03  0.75931229580E+03  0.00000000000E+00 0. -1.
         25    2    1    2    0    0  0.75437010580E+02 -0.28187556729E+03 -0.46163387456E+03  0.56026577084E+03  0.12508925550E+03 0.  0.
          5    1    3    3  502    0 -0.50247468556E+01  0.11126743517E+02 -0.27141307284E+02  0.30052877788E+02  0.41800000000E+01 0.  1.
         -5    1    3    3    0  502  0.80461757436E+02 -0.29300231080E+03 -0.43449256727E+03  0.53021289305E+03  0.41800000000E+01 0.  1.
        -11    1    1    2    0    0 -0.36675297766E+02  0.13644057488E+03 -0.25253542950E+02  0.14352299248E+03  0.00000000000E+00 0.  1.
         11    1    1    2    0    0 -0.38761712815E+02  0.14543499241E+03 -0.12943553001E+03  0.19851288076E+03  0.00000000000E+00 0. -1.
</event>
<event>
 7    1  0.2564986E-009  0.8952131E+02  0.7561462E-02  0.1304015E+00
          1   -1    0    0  501    0  0.00000000000E+00  0.00000000000E+00  0.54520320776E+03  0.54520320776E+03  0.00000000000E+00 0. -1.
         -1   -1    0    0    0  501 -0.00000000000E+00 -0.00000000000E+00 -0.29983410606E+02  0.29983410606E+02  0.00000000000E+00 0.  1.
         25    2    1    2    0    0  0.10616988083E+02 -0.57035636367E+02  0.36501743433E+03  0.39019322175E+03  0.12508892308E+03 0.  0.
          5    1    3    3  502    0  0.15345057963E+02 -0.16541226844E+01  0.31468607368E+03  0.31509205685E+03  0.41800000000E+01 0. -1.
         -5    1    3    3    0  502 -0.47280698796E+01 -0.55381513682E+02  0.50331360657E+02  0.75101164892E+02  0.41800000000E+01 0. -1.
        -11    1    1    2    0    0  0.51926621075E+01  0.79595511463E+02  0.12023997342E+03  0.14429158116E+03  0.00000000000E+00 0.  1.
         11    1    1    2    0    0 -0.15809650191E+02 -0.22559875097E+02  0.29962389402E+02  0.40701815466E+02  0.00000000000E+00 0. -1.
</event>
<event>
 7    1  0.2564986E-009  0.9042938E+02  0.7561462E-02  0.1301815E+00
         -1   -1    0    0    0  501 -0.00000000000E+00  0.00000000000E+00  0.46975744744E+03  0.46975744744E+03  0.00000000000E+00 0.  1.
          1   -1    0    0  501    0  0.00000000000E+00 -0.00000000000E+00 -0.34437220973E+02  0.34437220973E+02  0.00000000000E+00 0. -1.
         25    2    1    2    0    0  0.29071737979E+02 -0.58307157093E+02  0.26288981071E+03  0.29833457689E+03  0.12509027411E+03 0.  0.
          5    1    3    3  502    0  0.43224948088E+02 -0.74281669357E+02  0.91620094102E+02  0.12568960412E+03  0.41800000000E+01 0. -1.
         -5    1    3    3    0  502 -0.14153210109E+02  0.15974512263E+02  0.17126971660E+03  0.17264497277E+03  0.41800000000E+01 0. -1.
        -11    1    1    2    0    0 -0.24050784532E+02  0.12726947159E+02 -0.23263398939E+00  0.27211569950E+02  0.00000000000E+00 0. -1.
         11    1    1    2    0    0 -0.50209534472E+01  0.45580209934E+02  0.17266304975E+03  0.17864852158E+03  0.00000000000E+00 0.  1.
</event>
<event>
 7    1  0.2564986E-009  0.1164325E+03  0.7561462E-02  0.1249101E+00
          2   -1    0    0  501    0  0.00000000000E+00  0.00000000000E+00  0.10449810503E+03  0.10449810503E+03  0.00000000000E+00 0. -1.
         -2   -1    0    0    0  501 -0.00000000000E+00 -0.00000000000E+00 -0.16211778619E+03  0.16211778619E+03  0.00000000000E+00 0.  1.
         25    2    1    2    0    0 -0.64863771456E+02  0.22973197215E+02 -0.64156462200E+02  0.15651318040E+03  0.12508096321E+03 0.  0.
          5    1    3    3  502    0 -0.15231332239E+02  0.65289431886E+02 -0.61545105472E+02  0.91104203006E+02  0.41800000000E+01 0.  1.
         -5    1    3    3    0  502 -0.49632439216E+02 -0.42316234671E+02 -0.26113567286E+01  0.65408977391E+02  0.41800000000E+01 0.  1.
        -11    1    1    2    0    0  0.66173826322E+01 -0.39292699662E+02 -0.19363178819E+02  0.44301678226E+02  0.00000000000E+00 0.  1.
         11    1    1    2    0    0  0.58246388824E+02  0.16319502447E+02  0.25899959855E+02  0.65801032603E+02  0.00000000000E+00 0. -1.
</event>
<event>
 7    1  0.2564986E-009  0.1312026E+03  0.7561462E-02  0.1225682E+00
         -2   -1    0    0    0  501 -0.00000000000E+00  0.00000000000E+00  0.15909829887E+03  0.15909829887E+03  0.00000000000E+00 0.  1.
          2   -1    0    0  501    0  0.00000000000E+00 -0.00000000000E+00 -0.14217528775E+03  0.14217528775E+03  0.00000000000E+00 0. -1.
         25    2    1    2    0    0  0.28153819815E+02  0.98823212613E+02  0.17006560364E+02  0.16277817705E+03  0.12509535126E+03 0.  0.
          5    1    3    3  502    0 -0.43869236371E+02  0.14794911247E+02 -0.12555006977E+02  0.48150803719E+02  0.41800000000E+01 0. -1.
         -5    1    3    3    0  502  0.72023056186E+02  0.84028301365E+02  0.29561567340E+02  0.11462737333E+03  0.41800000000E+01 0. -1.
        -11    1    1    2    0    0 -0.90641952718E+01 -0.70089427706E+02 -0.43541960314E+02  0.83009576677E+02  0.00000000000E+00 0.  1.
         11    1    1    2    0    0 -0.19089624544E+02 -0.28733784907E+02  0.43458411068E+02  0.55485832902E+02  0.00000000000E+00 0. -1.
</event>
<event>
 7    1  0.2564986E-009  0.1035364E+03  0.7561462E-02  0.1273030E+00
          2   -1    0    0  501    0  0.00000000000E+00  0.00000000000E+00  0.25074509975E+03  0.25074509975E+03  0.00000000000E+00 0.  1.
         -2   -1    0    0    0  501 -0.00000000000E+00 -0.00000000000E+00 -0.57101476380E+02  0.57101476380E+02  0.00000000000E+00 0. -1.
         25    2    1    2    0    0  0.15710208757E+02 -0.10925254286E+02  0.16758826571E+03  0.21000111388E+03  0.12509384152E+03 0.  0.
          5    1    3    3  502    0  0.22326337791E+02 -0.66121173205E+02  0.10544148335E+03  0.12651424314E+03  0.41800000000E+01 0. -1.
         -5    1    3    3    0  502 -0.66161290342E+01  0.55195918919E+02  0.62146782360E+02  0.83486870743E+02  0.41800000000E+01 0. -1.
        -11    1    1    2    0    0  0.26892366466E+02 -0.15731764580E+02  0.34937463805E+02  0.46811474748E+02  0.00000000000E+00 0.  1.
         11    1    1    2    0    0 -0.42602575224E+02  0.26657018866E+02 -0.88821061497E+01  0.51033987500E+02  0.00000000000E+00 0. -1.
</event>
<event>
 7    1  0.2564986E-009  0.1359117E+03  0.7561462E-02  0.1218938E+00
          1   -1    0    0  501    0  0.00000000000E+00  0.00000000000E+00  0.50348077192E+02  0.50348077192E+02  0.00000000000E+00 0. -1.
         -1   -1    0    0    0  501 -0.00000000000E+00 -0.00000000000E+00 -0.39931754375E+03  0.39931754375E+03  0.00000000000E+00 0.  1.
         25    2    1    2    0    0 -0.92574783204E+01  0.90294493355E+02 -0.17641763754E+03  0.23454358243E+03  0.12509481519E+03 0.  0.
          5    1    3    3  502    0 -0.35209603743E+02 -0.20280668683E+02 -0.43987704123E+02  0.60028428532E+02  0.41800000000E+01 0. -1.
         -5    1    3    3    0  502  0.25952125423E+02  0.11057516204E+03 -0.13242993342E+03  0.17451515390E+03  0.41800000000E+01 0. -1.
        -11    1    1    2    0    0  0.28366070167E+02 -0.36582095062E+01 -0.10676093985E+02  0.30528599972E+02  0.00000000000E+00 0. -1.
         11    1    1    2    0    0 -0.19108591846E+02 -0.86636283848E+02 -0.16187573503E+03  0.18459343854E+03  0.00000000000E+00 0.  1.
</event>
<event>
 7    1  0.2564986E-009  0.1127793E+03  0.7561462E-02  0.1255508E+00
         -2   -1    0    0    0  501 -0.00000000000E+00  0.00000000000E+00  0.28373305242E+02  0.28373305242E+02  0.00000000000E+00 0. -1.
          2   -1    0    0  501    0  0.00000000000E+00 -0.00000000000E+00 -0.70307626697E+03  0.70307626697E+03  0.00000000000E+00 0.  1.
         25    2    1    2    0    0 -0.13654644505E+01 -0.32435214564E+02 -0.58625782511E+03  0.60033285248E+03  0.12508952244E+03 0.  0.
          5    1    3    3  502    0  0.42676666715E+02  0.29955622670E+02 -0.26283760799E+03  0.26799201068E+03  0.41800000000E+01 0. -1.
         -5    1    3    3    0  502 -0.44042131165E+02 -0.62390837234E+02 -0.32342021712E+03  0.33234084180E+03  0.41800000000E+01 0. -1.
        -11    1    1    2    0    0  0.35580892153E+02  0.47527628972E+02 -0.55767051463E+02  0.81454523699E+02  0.00000000000E+00 0.  1.
         11    1    1    2    0    0 -0.34215427703E+02 -0.15092414408E+02 -0.32678085152E+02  0.49662196032E+02  0.00000000000E+00 0. -1.
</event>
<event>
 7    1  0.2564986E-009  0.1203167E+03  0.7561462E-02  0.1242575E+00
          1   -1    0    0  501    0  0.00000000000E+00  0.00000000000E+00  0.25703583193E+02  0.25703583193E+02  0.00000000000E+00 0. -1.
         -1   -1    0    0    0  501 -0.00000000000E+00 -0.00000000000E+00 -0.58400093862E+03  0.58400093862E+03  0.00000000000E+00 0.  1.
         25    2    1    2    0    0  0.39919892022E+02 -0.39148096736E+02 -0.30184285473E+03  0.33148597980E+03  0.12509066551E+03 0.  0.
          5    1    3    3  502    0  0.83310593174E+02 -0.20078327220E+02 -0.22834054243E+03  0.24392759146E+03  0.41800000000E+01 0. -1.
         -5    1    3    3    0  502 -0.43390701152E+02 -0.19069769516E+02 -0.73502312299E+02  0.87558388343E+02  0.41800000000E+01 0. -1.
        -11    1    1    2    0    0 -0.58131983237E+02 -0.61275656923E+01 -0.15444458894E+03  0.16513632426E+03  0.00000000000E+00 0.  1.
         11    1    1    2    0    0  0.18212091215E+02  0.45275662428E+02 -0.10200991176E+03  0.11308221775E+03  0.00000000000E+00 0. -1.
</event>
<event>
 7    1  0.2564986E-009  0.1106976E+03  0.7561462E-02  0.1259283E+00
          1   -1    0    0  501    0  0.00000000000E+00  0.00000000000E+00  0.32880127744E+03  0.32880127744E+03  0.00000000000E+00 0. -1.
         -1   -1    0    0    0  501 -0.00000000000E+00 -0.00000000000E+00 -0.47942861723E+02  0.47942861723E+02  0.00000000000E+00 0.  1.
         25    2    1    2    0    0  0.26766478202E+02 -0.31649179210E+02  0.22940237302E+03  0.26455894157E+03  0.12509144620E+03 0.  0.
          5    1    3    3  502    0 -0.28481848099E+02 -0.54619461861E+02  0.65431775442E+02  0.89962719626E+02  0.41800000000E+01 0.  1.
         -5    1    3    3    0  502  0.55248326301E+02  0.22970282651E+02  0.16397059758E+03  0.17459622194E+03  0.41800000000E+01 0.  1.
        -11    1    1    2    0    0  0.18108760922E+02  0.48476647700E+02  0.25794610681E+02  0.57821056152E+02  0.00000000000E+00 0.  1.
         11    1    1    2    0    0 -0.44875239124E+02 -0.16827468490E+02  0.25661432012E+02  0.54364141446E+02  0.00000000000E+00 0. -1.
</event>
<event>
 7    1  0.2564986E-009  0.1671115E+03  0.7561462E-02  0.1180894E+00
          2   -1    0    0  501    0  0.00000000000E+00  0.00000000000E+00  0.34995375958E+03  0.34995375958E+03  0.00000000000E+00 0. -1.
         -2   -1    0    0    0  501 -0.00000000000E+00 -0.00000000000E+00 -0.95240880562E+02  0.95240880562E+02  0.00000000000E+00 0.  1.
         25    2    1    2    0    0  0.14569464575E+03  0.21870087893E+02  0.13931911209E+03  0.23824821182E+03  0.12508862816E+03 0.  0.
          5    1    3    3  502    0  0.16339233777E+03  0.29229224955E+02  0.98749887934E+02  0.19318492798E+03  0.41800000000E+01 0. -1.
         -5    1    3    3    0  502 -0.17697692018E+02 -0.73591370620E+01  0.40569224155E+02  0.45063283830E+02  0.41800000000E+01 0. -1.
        -11    1    1    2    0    0 -0.10781985020E+03 -0.75797640102E+01  0.29574827578E+02  0.11205910649E+03  0.00000000000E+00 0.  1.
         11    1    1    2    0    0 -0.37874795548E+02 -0.14290323883E+02  0.85818939353E+02  0.94887321841E+02  0.00000000000E+00 0. -1.
</event>
<event>
 7    1  0.2564986E-009  0.9521781E+02  0.7561462E-02  0.1290686E+00
         -3   -1    0    0    0  501 -0.00000000000E+00  0.00000000000E+00  0.78521604134E+02  0.78521604134E+02  0.00000000000E+00 0.  1.
          3   -1    0    0  501    0  0.00000000000E+00 -0.00000000000E+00 -0.16613699331E+03  0.16613699331E+03  0.00000000000E+00 0. -1.
         25    2    1    2    0    0  0.76765336258E+00  0.33796042052E+02 -0.32563788635E+02  0.13360875383E+03  0.12509251384E+03 0.  0.
          5    1    3    3  502    0 -0.49024156960E+02  0.50154470676E+02 -0.39460314434E+02  0.80581807560E+02  0.41800000000E+01 0. -1.
         -5    1    3    3    0  502  0.49791810323E+02 -0.16358428624E+02  0.68965257990E+01  0.53026946267E+02  0.41800000000E+01 0. -1.
        -11    1    1    2    0    0 -0.29478238020E+02 -0.20844804364E+02 -0.68004348359E+02  0.76993920419E+02  0.00000000000E+00 0. -1.
         11    1    1    2    0    0  0.28710584657E+02 -0.12951237688E+02  0.12952747817E+02  0.34055923200E+02  0.00000000000E+00 0.  1.
</event>
<event>
 7    1  0.2564986E-009  0.1422541E+03  0.7561462E-02  0.1210328E+00
         -2   -1    0    0    0  501 -0.00000000000E+00  0.00000000000E+00  0.42411795129E+02  0.42411795129E+02  0.00000000000E+00 0.  1.
          2   -1    0    0  501    0  0.00000000000E+00 -0.00000000000E+00 -0.49956417424E+03  0.49956417424E+03  0.00000000000E+00 0. -1.
         25    2    1    2    0    0  0.87766422735E+02  0.43707331031E+02 -0.29514963881E+03  0.33522314060E+03  0.12509184210E+03 0.  0.
          5    1    3    3  502    0  0.30093206356E+02 -0.43080858493E+02 -0.75616456346E+02  0.92178534961E+02  0.41800000000E+01 0. -1.
         -5    1    3    3    0  502  0.57673216379E+02  0.86788189524E+02 -0.21953318247E+03  0.24304460564E+03  0.41800000000E+01 0. -1.
        -11    1    1    2    0    0 -0.68426543086E+02  0.11157752860E+02 -0.10051997372E+03  0.12211041055E+03  0.00000000000E+00 0.  1.
         11    1    1    2    0    0 -0.19339879649E+02 -0.54865083891E+02 -0.61482766580E+02  0.84642418217E+02  0.00000000000E+00 0. -1.
</event>
<event>
 7    1  0.2564986E-009  0.1702006E+03  0.7561462E-02  0.1177639E+00
         -2   -1    0    0    0  501 -0.00000000000E+00  0.00000000000E+00  0.25875512758E+02  0.25875512758E+02  0.00000000000E+00 0.  1.
          2   -1    0    0  501    0  0.00000000000E+00 -0.00000000000E+00 -0.15990838851E+04  0.15990838851E+04  0.00000000000E+00 0. -1.
         25    2    1    2    0    0  0.16928291518E+03 -0.38663728056E+01 -0.94029729356E+03  0.96357730342E+03  0.12510221896E+03 0.  0.
          5    1    3    3  502    0  0.16459271144E+03 -0.44722541885E+01 -0.94258248474E+03  0.95686465848E+03  0.41800000000E+01 0. -1.
         -5    1    3    3    0  502  0.46902037435E+01  0.60588138288E+00  0.22851911784E+01  0.67126449427E+01  0.41800000000E+01 0. -1.
        -11    1    1    2    0    0 -0.67056300452E+02  0.36622825769E+01 -0.11245340339E+03  0.13097987509E+03  0.00000000000E+00 0.  1.
         11    1    1    2    0    0 -0.10222661473E+03  0.20409022874E+00 -0.52045767534E+03  0.53040221930E+03  0.00000000000E+00 0. -1.
</event>
<event>
 7    1  0.2564986E-009  0.1051868E+03  0.7561462E-02  0.1269752E+00
          2   -1    0    0  501    0  0.00000000000E+00  0.00000000000E+00  0.22438660806E+02  0.22438660806E+02  0.00000000000E+00 0. -1.
         -2   -1    0    0    0  501 -0.00000000000E+00 -0.00000000000E+00 -0.12862366763E+04  0.12862366763E+04  0.00000000000E+00 0.  1.
         25    2    1    2    0    0 -0.79221010211E+02  0.17406495826E+02 -0.10642217290E+04  0.10746152266E+04  0.12510412583E+03 0.  0.
          5    1    3    3  502    0 -0.10230048518E+03  0.57934034458E+01 -0.53458376890E+03  0.54433099412E+03  0.41800000000E+01 0. -1.
         -5    1    3    3    0  502  0.23079474969E+02  0.11613092380E+02 -0.52963796009E+03  0.53028423251E+03  0.41800000000E+01 0. -1.
        -11    1    1    2    0    0  0.50243906567E+02 -0.63800270803E+01 -0.24503938044E+02  0.56263646099E+02  0.00000000000E+00 0. -1.
         11    1    1    2    0    0  0.28977103644E+02 -0.11026468746E+02 -0.17507234841E+03  0.17779646433E+03  0.00000000000E+00 0.  1.
</event>
<event>
 7    1  0.2564986E-009  0.1392959E+03  0.7561462E-02  0.1214280E+00
          2   -1    0    0  501    0  0.00000000000E+00  0.00000000000E+00  0.21583048019E+03  0.21583048019E+03  0.00000000000E+00 0. -1.
         -2   -1    0    0    0  501 -0.00000000000E+00 -0.00000000000E+00 -0.10414012967E+03  0.10414012967E+03  0.00000000000E+00 0.  1.
         25    2    1    2    0    0  0.50473460751E+02 -0.87673482912E+02  0.76022650198E+02  0.17793559375E+03  0.12508965718E+03 0.  0.
          5    1    3    3  502    0  0.77302639664E+02 -0.86173375383E+02  0.90616676292E+02  0.14707278180E+03  0.41800000000E+01 0.  1.
         -5    1    3    3    0  502 -0.26829178913E+02 -0.15001075285E+01 -0.14594026093E+02  0.30862811948E+02  0.41800000000E+01 0.  1.
        -11    1    1    2    0    0  0.17049004109E+02  0.60356388645E+02  0.47239964670E+01  0.62895773578E+02  0.00000000000E+00 0. -1.
         11    1    1    2    0    0 -0.67522464860E+02  0.27317094267E+02  0.30943703858E+02  0.79139242531E+02  0.00000000000E+00 0.  1.
</event>
<event>
 7    1  0.2564986E-009  0.7979499E+02  0.7561462E-02  0.1329634E+00
          1   -1    0    0  501    0  0.00000000000E+00  0.00000000000E+00  0.34058545156E+03  0.34058545156E+03  0.00000000000E+00 0. -1.
         -1   -1    0    0    0  501 -0.00000000000E+00 -0.00000000000E+00 -0.63523011917E+02  0.63523011917E+02  0.00000000000E+00 0.  1.
         25    2    1    2    0    0  0.46585717138E+02  0.43338804095E+02  0.25522665210E+03  0.29126529926E+03  0.12508536936E+03 0.  0.
          5    1    3    3  502    0  0.19407277286E+02  0.28963934314E+02  0.97571372426E+00  0.35127999087E+02  0.41800000000E+01 0.  1.
         -5    1    3    3    0  502  0.27178439851E+02  0.14374869781E+02  0.25425093838E+03  0.25613730017E+03  0.41800000000E+01 0.  1.
        -11    1    1    2    0    0 -0.23262984370E+02  0.16963784241E+02 -0.20691314192E+02  0.35455139269E+02  0.00000000000E+00 0.  1.
         11    1    1    2    0    0 -0.23322732768E+02 -0.60302588336E+02  0.42527101736E+02  0.77388024951E+02  0.00000000000E+00 0. -1.
</event>
<event>
 7    1  0.2564986E-009  0.1089317E+03  0.7561462E-02  0.1262561E+00
         -3   -1    0    0    0  501 -0.00000000000E+00  0.00000000000E+00  0.30602250189E+03  0.30602250189E+03  0.00000000000E+00 0.  1.
          3   -1    0    0  501    0  0.00000000000E+00 -0.00000000000E+00 -0.52909695694E+02  0.52909695694E+02  0.00000000000E+00 0. -1.
         25    2    1    2    0    0 -0.46722294271E+02  0.43963224020E+02  0.12854288882E+03  0.19049051559E+03  0.12509046493E+03 0.  0.
          5    1    3    3  502    0 -0.79603023493E+02  0.42203422761E+02  0.12886840191E+03  0.15729687744E+03  0.41800000000E+01 0. -1.
         -5    1    3    3    0  502  0.32880729222E+02  0.17598012593E+01 -0.32551309456E+00  0.33193638147E+02  0.41800000000E+01 0. -1.
        -11    1    1    2    0    0  0.52185971545E+01  0.18644205298E+02 -0.37809695143E+01  0.19726527265E+02  0.00000000000E+00 0. -1.
         11    1    1    2    0    0  0.41503697117E+02 -0.62607429318E+02  0.12835088689E+03  0.14871515473E+03  0.00000000000E+00 0.  1.
</event>
<event>
 7    1  0.2564986E-009  0.1102589E+03  0.7561462E-02  0.1260091E+00
         -2   -1    0    0    0  501 -0.00000000000E+00  0.00000000000E+00  0.21343691793E+02  0.21343691793E+02  0.00000000000E+00 0.  1.
          2   -1    0    0  501    0  0.00000000000E+00 -0.00000000000E+00 -0.84944756189E+03  0.84944756189E+03  0.00000000000E+00 0. -1.
         25    2    1    2    0    0  0.70913823013E+02  0.40082827566E+02 -0.47129263947E+03  0.49436796384E+03  0.12509008070E+03 0.  0.
          5    1    3    3  502    0  0.33574780582E+02 -0.19704330172E+02 -0.36288423657E+03  0.36499036709E+03  0.41800000000E+01 0. -1.
         -5    1    3    3    0  502  0.37339042431E+02  0.59787157737E+02 -0.10840840290E+03  0.12937759675E+03  0.41800000000E+01 0. -1.
        -11    1    1    2    0    0  0.14954759979E+02 -0.15261834597E+02 -0.25512294362E+02  0.33278305319E+02  0.00000000000E+00 0.  1.
         11    1    1    2    0    0 -0.85868582992E+02 -0.24820992969E+02 -0.33129893626E+03  0.34314498453E+03  0.00000000000E+00 0. -1.
</event>
<event>
 7    1  0.2564986E-009  0.1175285E+03  0.7561462E-02  0.1247231E+00
         -1   -1    0    0    0  501 -0.00000000000E+00  0.00000000000E+00  0.19653379272E+02  0.19653379272E+02  0.00000000000E+00 0.  1.
          1   -1    0    0  501    0  0.00000000000E+00 -0.00000000000E+00 -0.83807617077E+03  0.83807617077E+03  0.00000000000E+00 0. -1.
         25    2    1    2    0    0  0.14400034887E+02  0.25770654455E+02 -0.39912833025E+03  0.41931165978E+03  0.12508939356E+03 0.  0.
          5    1    3    3  502    0  0.53197470812E+02  0.38728628846E+02 -0.11782146248E+03  0.13501572877E+03  0.41800000000E+01 0.  1.
         -5    1    3    3    0  502 -0.38797435925E+02 -0.12957974391E+02 -0.28130686777E+03  0.28429593101E+03  0.41800000000E+01 0.  1.
        -11    1    1    2    0    0 -0.18128525858E+02 -0.75748983065E+02 -0.24818410403E+03  0.26011901388E+03  0.00000000000E+00 0.  1.
         11    1    1    2    0    0  0.37284909707E+01  0.49978328610E+02 -0.17111035721E+03  0.17829887639E+03  0.00000000000E+00 0. -1.
</event>
<event>
 7    1  0.2564986E-009  0.1451463E+03  0.7561462E-02  0.1206567E+00
         -2   -1    0    0    0  501 -0.00000000000E+00  0.00000000000E+00  0.53066558108E+02  0.53066558108E+02  0.00000000000E+00 0.  1.
          2   -1    0    0  501    0  0.00000000000E+00 -0.00000000000E+00 -0.43189079695E+03  0.43189079695E+03  0.00000000000E+00 0. -1.
         25    2    1    2    0    0  0.40441655623E+01  0.10283420211E+03 -0.23523328424E+03  0.28560905570E+03  0.12508639528E+03 0.  0.
          5    1    3    3  502    0  0.59666143300E+02  0.37386553954E+02 -0.70197169267E+02  0.99513406363E+02  0.41800000000E+01 0. -1.
         -5    1    3    3    0  502 -0.55621977738E+02  0.65447648160E+02 -0.16503611497E+03  0.18609564933E+03  0.41800000000E+01 0. -1.
        -11    1    1    2    0    0 -0.43570502736E+02 -0.37906328336E+02 -0.37581990835E+02  0.68903443104E+02  0.00000000000E+00 0.  1.
         11    1    1    2    0    0  0.39526337173E+02 -0.64927873779E+02 -0.10600896377E+03  0.13044485625E+03  0.00000000000E+00 0. -1.
</event>
<event>
 7    1  0.2564986E-009  0.1212097E+03  0.7561462E-02  0.1241115E+00
          2   -1    0    0  501    0  0.00000000000E+00  0.00000000000E+00  0.11735900123E+04  0.11735900123E+04  0.00000000000E+00 0. -1.
         -2   -1    0    0    0  501 -0.00000000000E+00 -0.00000000000E+00 -0.14786978362E+02  0.14786978362E+02  0.00000000000E+00 0.  1.
         25    2    1    2    0    0 -0.43108133459E+02 -0.37091170905E+02  0.85189841520E+03  0.86290917970E+03  0.12508907415E+03 0.  0.
          5    1    3    3  502    0 -0.84940159621E+02 -0.35346669271E+02  0.66405798978E+03  0.67041383035E+03  0.41800000000E+01 0. -1.
         -5    1    3    3    0  502  0.41832026161E+02 -0.17445016342E+01  0.18784042542E+03  0.19249534935E+03  0.41800000000E+01 0. -1.
        -11    1    1    2    0    0 -0.23848991169E+02  0.33593710939E+02  0.12363267946E+03  0.13031635057E+03  0.00000000000E+00 0. -1.
         11    1    1    2    0    0  0.66957124629E+02  0.34974599656E+01  0.18327193926E+03  0.19515146037E+03  0.00000000000E+00 0.  1.
</event>
<event>
 7    1  0.2564986E-009  0.1128606E+03  0.7561462E-02  0.1255362E+00
         -2   -1    0    0    0  501 -0.00000000000E+00  0.00000000000E+00  0.14985611917E+02  0.14985611917E+02  0.00000000000E+00 0.  1.
          2   -1    0    0  501    0  0.00000000000E+00 -0.00000000000E+00 -0.91750944137E+03  0.91750944137E+03  0.00000000000E+00 0. -1.
         25    2    1    2    0    0  0.38914743134E+02 -0.14365902878E+02 -0.57547844193E+03  0.59037695482E+03  0.12509506491E+03 0.  0.
          5    1    3    3  502    0 -0.14889882736E+01  0.50477813882E+02 -0.15743829168E+03  0.16539200364E+03  0.41800000000E+01 0.  1.
         -5    1    3    3    0  502  0.40403731408E+02 -0.64843716760E+02 -0.41804015025E+03  0.42498495118E+03  0.41800000000E+01 0.  1.
        -11    1    1    2    0    0 -0.57753699012E+02 -0.18505480591E+02 -0.16765474513E+03  0.17828644403E+03  0.00000000000E+00 0.  1.
         11    1    1    2    0    0  0.18838955877E+02  0.32871383469E+02 -0.15939064239E+03  0.16383165443E+03  0.00000000000E+00 0. -1.
</event>
<event>
 7    1  0.2564986E-009  0.3294072E+03  0.7561462E-02  0.1071399E+00
         -1   -1    0    0    0  501 -0.00000000000E+00  0.00000000000E+00  0.22513670605E+03  0.22513670605E+03  0.00000000000E+00 0.  1.
          1   -1    0    0  501    0  0.00000000000E+00 -0.00000000000E+00 -0.49866604572E+03  0.49866604572E+03  0.00000000000E+00 0. -1.
         25    2    1    2    0    0 -0.42310846155E+02 -0.30884709966E+03 -0.14921417429E+03  0.36754466110E+03  0.12508984541E+03 0.  0.
          5    1    3    3  502    0  0.19613408105E+02 -0.13599850787E+02 -0.39841833336E+02  0.46631382164E+02  0.41800000000E+01 0.  1.
         -5    1    3    3    0  502 -0.61924254260E+02 -0.29524724887E+03 -0.10937234095E+03  0.32091327893E+03  0.41800000000E+01 0.  1.
        -11    1    1    2    0    0  0.79560118232E+02  0.25707025364E+03 -0.89511728723E+02  0.28359703330E+03  0.00000000000E+00 0.  1.
         11    1    1    2    0    0 -0.37249272077E+02  0.51776846019E+02 -0.34803436657E+02  0.72661057362E+02  0.00000000000E+00 0. -1.
</event>
<event>
 7    1  0.2564986E-009  0.8975442E+02  0.7561462E-02  0.1303447E+00
          1   -1    0    0  501    0  0.00000000000E+00  0.00000000000E+00  0.77497005589E+02  0.77497005589E+02  0.00000000000E+00 0. -1.
         -1   -1    0    0    0  501 -0.00000000000E+00 -0.00000000000E+00 -0.20636365658E+03  0.20636365658E+03  0.00000000000E+00 0.  1.
         25    2    1    2    0    0 -0.28072363758E+02 -0.51414281106E+02 -0.39934428758E+02  0.14378323595E+03  0.12508946571E+03 0.  0.
          5    1    3    3  502    0 -0.33767003967E+02 -0.16956869942E+02  0.40771584087E+02  0.55745317867E+02  0.41800000000E+01 0.  1.
         -5    1    3    3    0  502  0.56946402082E+01 -0.34457411163E+02 -0.80706012845E+02  0.88037918083E+02  0.41800000000E+01 0.  1.
        -11    1    1    2    0    0  0.59986200961E+02  0.25386270082E+02 -0.41370613743E+02  0.77164335647E+02  0.00000000000E+00 0. -1.
         11    1    1    2    0    0 -0.31913837203E+02  0.26028011024E+02 -0.47561608486E+02  0.62913090567E+02  0.00000000000E+00 0.  1.
</event>
<event>
 7    1  0.2564986E-009  0.9570568E+02  0.7561462E-02  0.1289595E+00
          1   -1    0    0  501    0  0.00000000000E+00  0.00000000000E+00  0.18943659273E+03  0.18943659273E+03  0.00000000000E+00 0. -1.
         -1   -1    0    0    0  501 -0.00000000000E+00 -0.00000000000E+00 -0.76893873773E+02  0.76893873773E+02  0.00000000000E+00 0.  1.
         25    2    1    2    0    0  0.34867310528E+02  0.78744762527E+01  0.16124846668E+02  0.13109628116E+03  0.12509391486E+03 0.  0.
          5    1    3    3  502    0  0.41758121845E+02  0.54170804954E+02  0.38984758339E+02  0.78838446408E+02  0.41800000000E+01 0.  1.
         -5    1    3    3    0  502 -0.68908113167E+01 -0.46296328701E+02 -0.22859911671E+02  0.52257834756E+02  0.41800000000E+01 0.  1.
        -11    1    1    2    0    0  0.16540645689E+02  0.12358211291E+02  0.71874783669E+02  0.74781701463E+02  0.00000000000E+00 0. -1.
         11    1    1    2    0    0 -0.51407956217E+02 -0.20232687544E+02  0.24543088618E+02  0.60452483874E+02  0.00000000000E+00 0.  1.
</event>
<event>
 7    1  0.2564986E-009  0.6399875E+02  0.7561462E-02  0.1381778E+00
          2   -1    0    0  501    0  0.00000000000E+00  0.00000000000E+00  0.69174478463E+02  0.69174478463E+02  0.00000000000E+00 0.  1.
         -2   -1    0    0    0  501 -0.00000000000E+00 -0.00000000000E+00 -0.18522937141E+03  0.18522937141E+03  0.00000000000E+00 0. -1.
         25    2    1    2    0    0 -0.22490250641E+02 -0.17254172617E+02 -0.71720939573E+02  0.14695559881E+03  0.12509411258E+03 0.  0.
          5    1    3    3  502    0 -0.32532351153E+02  0.19063680304E+02  0.23389143500E+02  0.44567950502E+02  0.41800000000E+01 0. -1.
         -5    1    3    3    0  502  0.10042100512E+02 -0.36317852920E+02 -0.95110083073E+02  0.10238764831E+03  0.41800000000E+01 0. -1.
        -11    1    1    2    0    0  0.20958686711E+02 -0.11124669890E+02 -0.67012031361E+02  0.71088938492E+02  0.00000000000E+00 0. -1.
         11    1    1    2    0    0  0.15315639303E+01  0.28378842507E+02  0.22678077983E+02  0.36359312577E+02  0.00000000000E+00 0.  1.
</event>
<event>
 7    1  0.2564986E-009  0.9876982E+02  0.7561462E-02  0.1282904E+00
          2   -1    0    0  501    0  0.00000000000E+00  0.00000000000E+00  0.61086968942E+03  0.61086968942E+03  0.00000000000E+00 0. -1.
         -2   -1    0    0    0  501 -0.00000000000E+00 -0.00000000000E+00 -0.27903414122E+02  0.27903414122E+02  0.00000000000E+00 0.  1.
         25    2    1    2    0    0 -0.52340943203E+01 -0.14314467292E+02  0.48925895226E+03  0.50522801540E+03  0.12509486586E+03 0.  0.
          5    1    3    3  502    0 -0.44537832628E+01  0.53256021268E+02  0.28627601134E+03  0.29125155288E+03  0.41800000000E+01 0.  1.
         -5    1    3    3    0  502 -0.78031105746E+00 -0.67570488559E+02  0.20298294092E+03  0.21397646252E+03  0.41800000000E+01 0.  1.
        -11    1    1    2    0    0  0.39880003058E+02  0.39916931005E+01  0.88328272474E+02  0.96996041032E+02  0.00000000000E+00 0. -1.
         11    1    1    2    0    0 -0.34645908738E+02  0.10322774191E+02  0.53790505641E+01  0.36549047105E+02  0.00000000000E+00 0.  1.
</event>
<event>
 7    1  0.2564986E-009  0.4933017E+02  0.7561462E-02  0.1448988E+00
         -1   -1    0    0    0  501 -0.00000000000E+00  0.00000000000E+00  0.39471036883E+03  0.39471036883E+03  0.00000000000E+00 0.  1.
          1   -1    0    0  501    0  0.00000000000E+00 -0.00000000000E+00 -0.33660155261E+02  0.33660155261E+02  0.00000000000E+00 0. -1.
         25    2    1    2    0    0 -0.72706126617E+01 -0.37284965800E+02  0.23066680040E+03  0.26513654935E+03  0.12508871456E+03 0.  0.
          5    1    3    3  502    0 -0.90821384246E+00 -0.22607032338E+02  0.24326417599E+03  0.24434981989E+03  0.41800000000E+01 0.  1.
         -5    1    3    3    0  502 -0.63623988193E+01 -0.14677933462E+02 -0.12597375592E+02  0.20786729450E+02  0.41800000000E+01 0.  1.
        -11    1    1    2    0    0 -0.17341271419E+02  0.27750863904E+02  0.13275970651E+03  0.13673320670E+03  0.00000000000E+00 0.  1.
         11    1    1    2    0    0  0.24611884080E+02  0.95341018963E+01 -0.23762933383E+01  0.26500768045E+02  0.00000000000E+00 0. -1.
</event>
<event>
 7    1  0.2564986E-009  0.1192778E+03  0.7561462E-02  0.1244293E+00
          2   -1    0    0  501    0  0.00000000000E+00  0.00000000000E+00  0.16185934707E+04  0.16185934707E+04  0.00000000000E+00 0. -1.
         -2   -1    0    0    0  501 -0.00000000000E+00 -0.00000000000E+00 -0.11702778153E+02  0.11702778153E+02  0.00000000000E+00 0.  1.
         25    2    1    2    0    0 -0.73006501964E+02 -0.83540154197E+01  0.11209185292E+04  0.11302678776E+04  0.12508951667E+03 0.  0.
          5    1    3    3  502    0  0.17080517993E+02  0.34341697321E+02  0.18090504003E+03  0.18497351751E+03  0.41800000000E+01 0. -1.
         -5    1    3    3    0  502 -0.90087019957E+02 -0.42695712741E+02  0.94001348915E+03  0.94529436010E+03  0.41800000000E+01 0. -1.
        -11    1    1    2    0    0 -0.49889680520E+00 -0.21027527924E+02  0.26727616633E+02  0.34011341042E+02  0.00000000000E+00 0.  1.
         11    1    1    2    0    0  0.73505398769E+02  0.29381543343E+02  0.45924454669E+03  0.46601703016E+03  0.00000000000E+00 0. -1.
</event>
<event>
 7    1  0.2564986E-009  0.2651522E+03  0.7561462E-02  0.1104087E+00
         -1   -1    0    0    0  501 -0.00000000000E+00  0.00000000000E+00  0.54652093409E+02  0.54652093409E+02  0.00000000000E+00 0.  1.
          1   -1    0    0  501    0  0.00000000000E+00 -0.00000000000E+00 -0.14884708925E+04  0.14884708925E+04  0.00000000000E+00 0. -1.
         25    2    1    2    0    0 -0.98821843677E+02  0.22392029977E+03 -0.46649124722E+03  0.54145041377E+03  0.12509360256E+03 0.  0.
          5    1    3    3  502    0 -0.70703976307E+02  0.23400308109E+03 -0.42178573680E+03  0.48752146044E+03  0.41800000000E+01 0.  1.
         -5    1    3    3    0  502 -0.28117867370E+02 -0.10082781325E+02 -0.44705510428E+02  0.53928953330E+02  0.41800000000E+01 0.  1.
        -11    1    1    2    0    0 -0.10140920160E+02 -0.45315533587E+02 -0.25751185798E+03  0.26166523049E+03  0.00000000000E+00 0. -1.
         11    1    1    2    0    0  0.10896276384E+03 -0.17860476618E+03 -0.70981569389E+03  0.74000734165E+03  0.00000000000E+00 0.  1.
</event>
<event>
 7    1  0.2564986E-009  0.1326700E+03  0.7561462E-02  0.1223547E+00
          2   -1    0    0  501    0  0.00000000000E+00  0.00000000000E+00  0.79896010946E+03  0.79896010946E+03  0.00000000000E+00 0. -1.
         -2   -1    0    0    0  501 -0.00000000000E+00 -0.00000000000E+00 -0.31368250852E+02  0.31368250852E+02  0.00000000000E+00 0.  1.
         25    2    1    2    0    0 -0.88326883986E+02 -0.12299680973E+02  0.60323051963E+03  0.62248438117E+03  0.12508726714E+03 0.  0.
          5    1    3    3  502    0  0.28025665026E+02 -0.25718301570E+01  0.54785098752E+02  0.61732743789E+02  0.41800000000E+01 0.  1.
         -5    1    3    3    0  502 -0.11635254901E+03 -0.97278508156E+01  0.54844542088E+03  0.56075163738E+03  0.41800000000E+01 0.  1.
        -11    1    1    2    0    0  0.43731489817E+02 -0.34282218530E+02  0.42446957938E+02  0.69924659078E+02  0.00000000000E+00 0. -1.
         11    1    1    2    0    0  0.44595394169E+02  0.46581899503E+02  0.12191438104E+03  0.13791932006E+03  0.00000000000E+00 0.  1.
</event>
<event>
 7    1  0.2564986E-009  0.1000501E+03  0.7561462E-02  0.1280191E+00
         -4   -1    0    0    0  501 -0.00000000000E+00  0.00000000000E+00  0.11217635650E+03  0.11217635650E+03  0.00000000000E+00 0.  1.
          4   -1    0    0  501    0  0.00000000000E+00 -0.00000000000E+00 -0.11573954529E+03  0.11573954529E+03  0.00000000000E+00 0. -1.
         25    2    1    2    0    0  0.32446817919E+01 -0.20433321900E+02 -0.32185143527E+02  0.13081071300E+03  0.12509000986E+03 0.  0.
          5    1    3    3  502    0 -0.34764999806E+02  0.31761945250E+02 -0.44524576682E+02  0.64941024833E+02  0.41800000000E+01 0.  1.
         -5    1    3    3    0  502  0.38009681598E+02 -0.52195267150E+02  0.12339433156E+02  0.65869688163E+02  0.41800000000E+01 0.  1.
        -11    1    1    2    0    0 -0.43545808772E+02  0.19749278359E+02  0.30568550507E+02  0.56751279610E+02  0.00000000000E+00 0.  1.
         11    1    1    2    0    0  0.40301126980E+02  0.68404354148E+00 -0.19465957776E+01  0.40353909186E+02  0.00000000000E+00 0. -1.
</event>
<event>
 7    1  0.2564986E-009  0.1021623E+03  0.7561462E-02  0.1275814E+00
         -2   -1    0    0    0  501 -0.00000000000E+00  0.00000000000E+00  0.28879355662E+02  0.28879355662E+02  0.00000000000E+00 0.  1.
          2   -1    0    0  501    0  0.00000000000E+00 -0.00000000000E+00 -0.41116643096E+03  0.41116643096E+03  0.00000000000E+00 0. -1.
         25    2    1    2    0    0 -0.45855491049E+01 -0.99746149432E+01 -0.26362810537E+03  0.29200577715E+03  0.12508827181E+03 0.  0.
          5    1    3    3  502    0  0.43413171341E+02  0.35776194203E+02 -0.91398953911E+02  0.10740521725E+03  0.41800000000E+01 0.  1.
         -5    1    3    3    0  502 -0.47998720446E+02 -0.45750809147E+02 -0.17222915146E+03  0.18460055990E+03  0.41800000000E+01 0.  1.
        -11    1    1    2    0    0 -0.22502002545E+02 -0.27310734225E+02 -0.23998275351E+02  0.42756678336E+02  0.00000000000E+00 0.  1.
         11    1    1    2    0    0  0.27087551650E+02  0.37285349169E+02 -0.94660694575E+02  0.10528333113E+03  0.00000000000E+00 0. -1.
</event>
<event>
 7    1  0.2564986E-009  0.1486507E+03  0.7561462E-02  0.1202141E+00
          2   -1    0    0  501    0  0.00000000000E+00  0.00000000000E+00  0.75100124125E+02  0.75100124125E+02  0.00000000000E+00 0. -1.
         -2   -1    0    0    0  501 -0.00000000000E+00 -0.00000000000E+00 -0.44385203331E+03  0.44385203331E+03  0.00000000000E+00 0.  1.
         25    2    1    2    0    0 -0.40980180019E+02  0.11536392994E+03 -0.80886649371E+02  0.19281630984E+03  0.12508903953E+03 0.  0.
          5    1    3    3  502    0 -0.34479867165E+02  0.13100337065E+03 -0.98871340886E+02  0.16776101695E+03  0.41800000000E+01 0. -1.
         -5    1    3    3    0  502 -0.65003128537E+01 -0.15639440711E+02  0.17984691515E+02  0.25055292890E+02  0.41800000000E+01 0. -1.
        -11    1    1    2    0    0  0.50322247902E+02 -0.30275492828E+02 -0.66082424754E+02  0.88407131846E+02  0.00000000000E+00 0. -1.
         11    1    1    2    0    0 -0.93420678837E+01 -0.85088437109E+02 -0.22178283506E+03  0.23772871574E+03  0.00000000000E+00 0.  1.
</event>
<event>
 7    1  0.2564986E-009  0.8689267E+02  0.7561462E-02  0.1310556E+00
          1   -1    0    0  501    0  0.00000000000E+00  0.00000000000E+00  0.50619113367E+03  0.50619113367E+03  0.00000000000E+00 0. -1.
         -1   -1    0    0    0  501 -0.00000000000E+00 -0.00000000000E+00 -0.33656232708E+02  0.33656232708E+02  0.00000000000E+00 0.  1.
         25    2    1    2    0    0 -0.68728289098E+02 -0.17846700704E+02  0.28370410130E+03  0.31808269703E+03  0.12508598086E+03 0.  0.
          5    1    3    3  502    0 -0.43739110068E+02 -0.43114742507E+02  0.43863488509E+02  0.75587490996E+02  0.41800000000E+01 0. -1.
         -5    1    3    3    0  502 -0.24989179030E+02  0.25268041803E+02  0.23984061279E+03  0.24249520603E+03  0.41800000000E+01 0. -1.
        -11    1    1    2    0    0  0.36410558067E+01  0.10295261085E+02 -0.85008325600E+01  0.13838852641E+02  0.00000000000E+00 0.  1.
         11    1    1    2    0    0  0.65087233291E+02  0.75514396184E+01  0.19733163223E+03  0.20792581672E+03  0.00000000000E+00 0. -1.
</event>
<event>
 7    1  0.2564986E-009  0.1061202E+03  0.7561462E-02  0.1267928E+00
         -1   -1    0    0    0  501 -0.00000000000E+00  0.00000000000E+00  0.62339057422E+02  0.62339057422E+02  0.00000000000E+00 0.  1.
          1   -1    0    0  501    0  0.00000000000E+00 -0.00000000000E+00 -0.21422810418E+03  0.21422810418E+03  0.00000000000E+00 0. -1.
         25    2    1    2    0    0  0.25339855975E+02 -0.24477663985E+02 -0.66962164667E+02  0.14619947798E+03  0.12509632900E+03 0.  0.
          5    1    3    3  502    0  0.67658851933E+02 -0.89933565203E+01 -0.73594162960E+02  0.10045981250E+03  0.41800000000E+01 0. -1.
         -5    1    3    3    0  502 -0.42318995958E+02 -0.15484307465E+02  0.66319982929E+01  0.45739665477E+02  0.41800000000E+01 0. -1.
        -11    1    1    2    0    0 -0.57148725358E+02 -0.20468105627E+01 -0.44140393192E+02  0.72239466739E+02  0.00000000000E+00 0. -1.
         11    1    1    2    0    0  0.31808869383E+02  0.26524474548E+02 -0.40786488901E+02  0.58128216886E+02  0.00000000000E+00 0.  1.
</event>
<event>
 7    1  0.2564986E-009  0.1557294E+03  0.7561462E-02  0.1193604E+00
         -3   -1    0    0    0  501 -0.00000000000E+00  0.00000000000E+00  0.52895098980E+02  0.52895098980E+02  0.00000000000E+00 0.  1.
          3   -1    0    0  501    0  0.00000000000E+00 -0.00000000000E+00 -0.49372598700E+03  0.49372598700E+03  0.00000000000E+00 0. -1.
         25    2    1    2    0    0  0.11017171430E+03 -0.69945991047E+01 -0.16263198970E+03  0.23298944363E+03  0.12509270849E+03 0.  0.
          5    1    3    3  502    0  0.77383437656E+01  0.49129427106E+02 -0.46033115241E+02  0.67897736861E+02  0.41800000000E+01 0.  1.
         -5    1    3    3    0  502  0.10243337053E+03 -0.56124026211E+02 -0.11659887446E+03  0.16509170677E+03  0.41800000000E+01 0.  1.
        -11    1    1    2    0    0 -0.11710427977E+03 -0.18228002620E+02 -0.23300831379E+03  0.26141642396E+03  0.00000000000E+00 0. -1.
         11    1    1    2    0    0  0.69325654741E+01  0.25222601725E+02 -0.45190584523E+02  0.52215218388E+02  0.00000000000E+00 0.  1.
</event>
<event>
 7    1  0.3144566E-009  0.8540866E+02  0.7561462E-02  0.1314367E+00
          1   -1    0    0  501    0  0.00000000000E+00  0.00000000000E+00  0.50268026127E+02  0.50268026127E+02  0.00000000000E+00 0. -1.
         -1   -1    0    0    0  501 -0.00000000000E+00 -0.00000000000E+00 -0.28838204700E+03  0.28838204700E+03  0.00000000000E+00 0.  1.
         25    2    1    2    0    0  0.14961458260E+02 -0.37745018170E+02 -0.87248283204E+02  0.15782986479E+03  0.12509784837E+03 0.  0.
          5    1    3    3  502    0 -0.33745798762E+02 -0.30173697279E+02 -0.97257839318E+02  0.10735823513E+03  0.41800000000E+01 0. -1.
         -5    1    3    3    0  502  0.48707257022E+02 -0.75713208913E+01  0.10009556114E+02  0.50471629657E+02  0.41800000000E+01 0. -1.
        -11    1    1    2    0    0 -0.35695247649E+02  0.35156660725E+01 -0.13160872512E+03  0.13640882354E+03  0.00000000000E+00 0.  1.
         11    1    1    2    0    0  0.20733789389E+02  0.34229352098E+02 -0.19257012555E+02  0.44411384802E+02  0.00000000000E+00 0. -1.
</event>
<event>
 7    1  0.2564986E-009  0.1818967E+03  0.7561462E-02  0.1165980E+00
         -2   -1    0    0    0  501 -0.00000000000E+00  0.00000000000E+00  0.26880393560E+02  0.26880393560E+02  0.00000000000E+00 0.  1.
          2   -1    0    0  501    0  0.00000000000E+00 -0.00000000000E+00 -0.13011603273E+04  0.13011603273E+04  0.00000000000E+00 0. -1.
         25    2    1    2    0    0  0.14874407591E+03  0.14904410613E+02 -0.60479779002E+03  0.63543269418E+03  0.12508956968E+03 0.  0.
          5    1    3    3  502    0 -0.14778604073E+02  0.23367286214E+02 -0.54201322211E+02  0.60989285393E+02  0.41800000000E+01 0. -1.
         -5    1    3    3    0  502  0.16352267998E+03 -0.84628756008E+01 -0.55059646781E+03  0.57444340879E+03  0.41800000000E+01 0. -1.
        -11    1    1    2    0    0 -0.13229780554E+03 -0.43315304836E+02 -0.59736303763E+03  0.61336899474E+03  0.00000000000E+00 0.  1.
         11    1    1    2    0    0 -0.16446270370E+02  0.28410894223E+02 -0.72119106071E+02  0.79239031923E+02  0.00000000000E+00 0. -1.
</event>
<event>
 7    1  0.2564986E-009  0.1024121E+03  0.7561462E-02  0.1275304E+00
         -1   -1    0    0    0  501 -0.00000000000E+00  0.00000000000E+00  0.39678242156E+02  0.39678242156E+02  0.00000000000E+00 0.  1.
          1   -1    0    0  501    0  0.00000000000E+00 -0.00000000000E+00 -0.46361722314E+03  0.46361722314E+03  0.00000000000E+00 0. -1.
         25    2    1    2    0    0 -0.66090978922E+02  0.45045587808E+02 -0.26316630314E+03  0.30216024818E+03  0.12508872850E+03 0.  0.
          5    1    3    3  502    0 -0.35965807163E+02  0.39847640252E+02 -0.26579533761E+03  0.27119367178E+03  0.41800000000E+01 0.  1.
         -5    1    3    3    0  502 -0.30125171758E+02  0.51979475552E+01  0.26290344636E+01  0.30966576409E+02  0.41800000000E+01 0.  1.
        -11    1    1    2    0    0  0.34436760268E+01 -0.56362193516E+02 -0.86670660119E+02  0.10344254003E+03  0.00000000000E+00 0.  1.
         11    1    1    2    0    0  0.62647302895E+02  0.11316605708E+02 -0.74102017728E+02  0.97692677085E+02  0.00000000000E+00 0. -1.
</event>
<event>
 7    1  0.2564986E-009  0.1201664E+03  0.7561462E-02  0.1242823E+00
         -2   -1    0    0    0  501 -0.00000000000E+00  0.00000000000E+00  0.14321989207E+02  0.14321989207E+02  0.00000000000E+00 0. -1.
          2   -1    0    0  501    0  0.00000000000E+00 -0.00000000000E+00 -0.34254646143E+04  0.34254646143E+04  0.00000000000E+00 0.  1.
         25    2    1    2    0    0 -0.54993606070E+02  0.44535691815E+02 -0.31691963369E+04  0.31724528674E+04  0.12507617568E+03 0.  0.
          5    1    3    3  502    0  0.25875045416E+02 -0.22303828016E+02 -0.11647488150E+04  0.11652571618E+04  0.41800000000E+01 0.  1.
         -5    1    3    3    0  502 -0.80868651486E+02  0.66839519831E+02 -0.20044475219E+04  0.20071957056E+04  0.41800000000E+01 0.  1.
        -11    1    1    2    0    0 -0.17657426961E+00 -0.45734748796E+02 -0.50677302402E+02  0.68263367955E+02  0.00000000000E+00 0. -1.
         11    1    1    2    0    0  0.55170180340E+02  0.11990569803E+01 -0.19126898578E+03  0.19907036810E+03  0.00000000000E+00 0.  1.
</event>
<event>
 7    1  0.2564986E-009  0.1048474E+03  0.7561462E-02  0.1270421E+00
          2   -1    0    0  501    0  0.00000000000E+00  0.00000000000E+00  0.60851074700E+03  0.60851074700E+03  0.00000000000E+00 0. -1.
         -2   -1    0    0    0  501 -0.00000000000E+00 -0.00000000000E+00 -0.23830490754E+02  0.23830490754E+02  0.00000000000E+00 0.  1.
         25    2    1    2    0    0 -0.51796569129E+02  0.70066097408E+01  0.34211087556E+03  0.36799384188E+03  0.12509052454E+03 0.  0.
          5    1    3    3  502    0 -0.31219226074E+02  0.62692495073E+02  0.13038982222E+03  0.14806744123E+03  0.41800000000E+01 0. -1.
         -5    1    3    3    0  502 -0.20577343055E+02 -0.55685885332E+02  0.21172105335E+03  0.21992640065E+03  0.41800000000E+01 0. -1.
        -11    1    1    2    0    0 -0.85313906142E+01 -0.16858519917E+02  0.57258242964E+01  0.19742831192E+02  0.00000000000E+00 0.  1.
         11    1    1    2    0    0  0.60327959744E+02  0.98519101759E+01  0.23684355639E+03  0.24460456469E+03  0.00000000000E+00 0. -1.
</event>
<event>
 7    1  0.2564986E-009  0.1355100E+03  0.7561462E-02  0.1219501E+00
          1   -1    0    0  501    0  0.00000000000E+00  0.00000000000E+00  0.11762531537E+04  0.11762531537E+04  0.00000000000E+00 0. -1.
         -1   -1    0    0    0  501 -0.00000000000E+00 -0.00000000000E+00 -0.18349628783E+02  0.18349628783E+02  0.00000000000E+00 0.  1.
         25    2    1    2    0    0  0.96853206776E+02 -0.11577711393E+01  0.71042490129E+03  0.72782743871E+03  0.12508939233E+03 0.  0.
          5    1    3    3  502    0  0.58591533174E+02  0.52441004179E+02  0.23492043686E+03  0.24776624212E+03  0.41800000000E+01 0.  1.
         -5    1    3    3    0  502  0.38261673602E+02 -0.53598775318E+02  0.47550446443E+03  0.48006119659E+03  0.41800000000E+01 0.  1.
        -11    1    1    2    0    0 -0.56024253172E+01  0.30055203546E+02  0.56397981832E+02  0.64151654572E+02  0.00000000000E+00 0.  1.
         11    1    1    2    0    0 -0.91250781459E+02 -0.28897432407E+02  0.39108064180E+03  0.40262368920E+03  0.00000000000E+00 0. -1.
</event>
<event>
 7    1  0.2564986E-009  0.9156777E+02  0.7561462E-02  0.1299099E+00
          2   -1    0    0  501    0  0.00000000000E+00  0.00000000000E+00  0.93349059800E+02  0.93349059800E+02  0.00000000000E+00 0. -1.
         -2   -1    0    0    0  501 -0.00000000000E+00 -0.00000000000E+00 -0.13351976658E+03  0.13351976658E+03  0.00000000000E+00 0.  1.
         25    2    1    2    0    0 -0.41397842923E+01  0.14929566505E+02 -0.26411999028E+01  0.12606808359E+03  0.12508459535E+03 0.  0.
          5    1    3    3  502    0  0.54998055992E+02 -0.29016298389E+01  0.21976166173E+02  0.59444342862E+02  0.41800000000E+01 0. -1.
         -5    1    3    3    0  502 -0.59137840284E+02  0.17831196344E+02 -0.24617366076E+02  0.66623740732E+02  0.41800000000E+01 0. -1.
        -11    1    1    2    0    0 -0.14074901112E+02  0.21249533862E+02 -0.51900514160E+02  0.57821353328E+02  0.00000000000E+00 0.  1.
         11    1    1    2    0    0  0.18214685404E+02 -0.36179100367E+02  0.14371007284E+02  0.42979389457E+02  0.00000000000E+00 0. -1.
</event>
<event>
 7    1  0.2564986E-009  0.1452083E+03  0.7561462E-02  0.1206488E+00
          1   -1    0    0  501    0  0.00000000000E+00  0.00000000000E+00  0.61065991762E+03  0.61065991762E+03  0.00000000000E+00 0. -1.
         -1   -1    0    0    0  501 -0.00000000000E+00 -0.00000000000E+00 -0.66097612521E+02  0.66097612521E+02  0.00000000000E+00 0.  1.
         25    2    1    2    0    0  0.35187502496E+02  0.62166336940E+02  0.45919498421E+03  0.48125654628E+03  0.12508003851E+03 0.  0.
          5    1    3    3  502    0  0.25640004430E+02  0.99717874506E+02  0.29429850416E+03  0.31181748872E+03  0.41800000000E+01 0. -1.
         -5    1    3    3    0  502  0.95474980662E+01 -0.37551537567E+02  0.16489648006E+03  0.16943905756E+03  0.41800000000E+01 0. -1.
        -11    1    1    2    0    0 -0.56212388627E+02  0.22955822415E+02 -0.14681393506E+02  0.62468758057E+02  0.00000000000E+00 0. -1.
         11    1    1    2    0    0  0.21024886131E+02 -0.85122159355E+02  0.10004871439E+03  0.13303222580E+03  0.00000000000E+00 0.  1.
</event>
<event>
 7    1  0.2564986E-009  0.2945892E+03  0.7561462E-02  0.1087977E+00
          2   -1    0    0  501    0  0.00000000000E+00  0.00000000000E+00  0.15806661303E+04  0.15806661303E+04  0.00000000000E+00 0.  1.
         -2   -1    0    0    0  501 -0.00000000000E+00 -0.00000000000E+00 -0.78908934116E+02  0.78908934116E+02  0.00000000000E+00 0. -1.
         25    2    1    2    0    0 -0.21247313611E+03 -0.17246119536E+03  0.30448980545E+03  0.42807638928E+03  0.12509059102E+03 0.  0.
          5    1    3    3  502    0 -0.89043097215E+02 -0.15121166644E+03  0.18127549986E+03  0.25233295559E+03  0.41800000000E+01 0.  1.
         -5    1    3    3    0  502 -0.12343003890E+03 -0.21249528920E+02  0.12321430560E+03  0.17574343369E+03  0.41800000000E+01 0.  1.
        -11    1    1    2    0    0  0.72242719923E+02  0.87475596973E+01  0.30614441309E+03  0.31467432696E+03  0.00000000000E+00 0. -1.
         11    1    1    2    0    0  0.14023041619E+03  0.16371363566E+03  0.89112297768E+03  0.91682434822E+03  0.00000000000E+00 0.  1.
</event>
<event>
 7    1  0.2564986E-009  0.8727848E+02  0.7561462E-02  0.1309579E+00
          1   -1    0    0  501    0  0.00000000000E+00  0.00000000000E+00  0.19446824223E+02  0.19446824223E+02  0.00000000000E+00 0. -1.
         -1   -1    0    0    0  501 -0.00000000000E+00 -0.00000000000E+00 -0.81759146392E+03  0.81759146392E+03  0.00000000000E+00 0.  1.
         25    2    1    2    0    0  0.23352528513E+02 -0.34497056525E+02 -0.60781049832E+03  0.62194543538E+03  0.12508850958E+03 0.  0.
          5    1    3    3  502    0 -0.20137339249E+02 -0.19032757193E+02 -0.25792985011E+02  0.38085545213E+02  0.41800000000E+01 0.  1.
         -5    1    3    3    0  502  0.43489867763E+02 -0.15464299333E+02 -0.58201751331E+03  0.58385989017E+03  0.41800000000E+01 0.  1.
        -11    1    1    2    0    0 -0.40212414965E+02  0.58419688505E+02 -0.13502765955E+03  0.15252005496E+03  0.00000000000E+00 0. -1.
         11    1    1    2    0    0  0.16859886452E+02 -0.23922631979E+02 -0.55306481832E+02  0.62572797800E+02  0.00000000000E+00 0.  1.
</event>
<event>
 7    1  0.2564986E-009  0.1038882E+03  0.7561462E-02  0.1272326E+00
         -2   -1    0    0    0  501 -0.00000000000E+00  0.00000000000E+00  0.32791984209E+02  0.32791984209E+02  0.00000000000E+00 0.  1.
          2   -1    0    0  501    0  0.00000000000E+00 -0.00000000000E+00 -0.44510499669E+03  0.44510499669E+03  0.00000000000E+00 0. -1.
         25    2    1    2    0    0  0.21736077025E+02 -0.41472982373E+02 -0.26444517048E+03  0.29626267963E+03  0.12509141394E+03 0.  0.
          5    1    3    3  502    0 -0.11464672302E+02  0.27126864072E+02 -0.11230657263E+02  0.31794740571E+02  0.41800000000E+01 0. -1.
         -5    1    3    3    0  502  0.33200749328E+02 -0.68599846445E+02 -0.25321451322E+03  0.26446793906E+03  0.41800000000E+01 0. -1.
        -11    1    1    2    0    0 -0.52754838605E+02  0.46449292784E+02 -0.77820924005E+02  0.10486518016E+03  0.00000000000E+00 0. -1.
         11    1    1    2    0    0  0.31018761580E+02 -0.49763104114E+01 -0.70046917997E+02  0.76769121111E+02  0.00000000000E+00 0.  1.
</event>
<event>
 7    1  0.2901725E-009  0.8089570E+02  0.7561462E-02  0.1326529E+00
         -2   -1    0    0    0  501 -0.00000000000E+00  0.00000000000E+00  0.69216691780E+02  0.69216691780E+02  0.00000000000E+00 0.  1.
          2   -1    0    0  501    0  0.00000000000E+00 -0.00000000000E+00 -0.21182711308E+03  0.21182711308E+03  0.00000000000E+00 0. -1.
         25    2    1    2    0    0 -0.29843952475E+02  0.44309626470E+02 -0.85813997983E+02  0.16083695069E+03  0.12510187033E+03 0.  0.
          5    1    3    3  502    0 -0.24395833080E+02  0.42367810868E+02 -0.11803892651E+03  0.12783132887E+03  0.41800000000E+01 0.  1.
         -5    1    3    3    0  502 -0.54481193949E+01  0.19418156018E+01  0.32224928528E+02  0.33005621815E+02  0.41800000000E+01 0.  1.
        -11    1    1    2    0    0 -0.31915282640E+02 -0.26016625330E+02 -0.17391660585E+02  0.44698097470E+02  0.00000000000E+00 0. -1.
         11    1    1    2    0    0  0.61759235114E+02 -0.18293001140E+02 -0.39404762731E+02  0.75508756701E+02  0.00000000000E+00 0.  1.
</event>
<event>
 7    1  0.2564986E-009  0.1078086E+03  0.7561462E-02  0.1264683E+00
         -2   -1    0    0    0  501 -0.00000000000E+00  0.00000000000E+00  0.92138555357E+01  0.92138555357E+01  0.00000000000E+00 0. -1.
          2   -1    0    0  501    0  0.00000000000E+00 -0.00000000000E+00 -0.16330389160E+04  0.16330389160E+04  0.00000000000E+00 0.  1.
         25    2    1    2    0    0  0.11128428437E+02 -0.10367787843E+02 -0.12954169834E+04  0.13015313282E+04  0.12508918527E+03 0.  0.
          5    1    3    3  502    0 -0.56397454779E+02  0.44898581653E+01 -0.59257590730E+03  0.59528523419E+03  0.41800000000E+01 0. -1.
         -5    1    3    3    0  502  0.67525883216E+02 -0.14857646008E+02 -0.70284107613E+03  0.70624609397E+03  0.41800000000E+01 0. -1.
        -11    1    1    2    0    0 -0.45206796795E+02  0.25974595654E+02 -0.16369669752E+03  0.17179913526E+03  0.00000000000E+00 0. -1.
         11    1    1    2    0    0  0.34078368358E+02 -0.15606807811E+02 -0.16471137953E+03  0.16892230814E+03  0.00000000000E+00 0.  1.
</event>
<event>
 7    1  0.2564986E-009  0.5153188E+02  0.7561462E-02  0.1437250E+00
         -2   -1    0    0    0  501 -0.00000000000E+00  0.00000000000E+00  0.21238742495E+03  0.21238742495E+03  0.00000000000E+00 0.  1.
          2   -1    0    0  501    0  0.00000000000E+00 -0.00000000000E+00 -0.65435855422E+02  0.65435855422E+02  0.00000000000E+00 0. -1.
         25    2    1    2    0    0 -0.22792596592E+02  0.11550637336E+02  0.13721943150E+03  0.18742936377E+03  0.12509066448E+03 0.  0.
          5    1    3    3  502    0  0.18542351853E+02 -0.63838346397E+01 -0.17261228118E+02  0.26457410174E+02  0.41800000000E+01 0.  1.
         -5    1    3    3    0  502 -0.41334948445E+02  0.17934471976E+02  0.15448065962E+03  0.16097195359E+03  0.41800000000E+01 0.  1.
        -11    1    1    2    0    0  0.48996475144E+01 -0.18066272395E+02  0.45871938264E+02  0.49544237446E+02  0.00000000000E+00 0.  1.
         11    1    1    2    0    0  0.17892949078E+02  0.65156350583E+01 -0.36139800231E+02  0.40849679163E+02  0.00000000000E+00 0. -1.
</event>
<event>
 7    1  0.2564986E-009  0.9064641E+02  0.7561462E-02  0.1301294E+00
          2   -1    0    0  501    0  0.00000000000E+00  0.00000000000E+00  0.59813110845E+02  0.59813110845E+02  0.00000000000E+00 0.  1.
         -2   -1    0    0    0  501 -0.00000000000E+00 -0.00000000000E+00 -0.20963429408E+03  0.20963429408E+03  0.00000000000E+00 0. -1.
         25    2    1    2    0    0  0.24210637877E+02  0.67708181715E+01 -0.10256785377E+03  0.16370565361E+03  0.12508947769E+03 0.  0.
          5    1    3    3  502    0  0.46933811314E+02 -0.28892646006E+02 -0.28898594579E+01  0.55347911662E+02  0.41800000000E+01 0. -1.
         -5    1    3    3    0  502 -0.22723173437E+02  0.35663464177E+02 -0.99677994316E+02  0.10835774194E+03  0.41800000000E+01 0. -1.
        -11    1    1    2    0    0  0.27810551311E+02  0.88944173483E+01 -0.42010471059E+02  0.51160698810E+02  0.00000000000E+00 0. -1.
         11    1    1    2    0    0 -0.52021189187E+02 -0.15665235520E+02 -0.52428583983E+01  0.54581052505E+02  0.00000000000E+00 0.  1.
</event>
<event>
 7    1  0.2564986E-009  0.1691328E+03  0.7561462E-02  0.1178755E+00
         -1   -1    0    0    0  501 -0.00000000000E+00  0.00000000000E+00  0.36160902504E+02  0.36160902504E+02  0.00000000000E+00 0.  1.
          1   -1    0    0  501    0  0.00000000000E+00 -0.00000000000E+00 -0.10598482187E+04  0.10598482187E+04  0.00000000000E+00 0. -1.
         25    2    1    2    0    0 -0.79056462544E+01 -0.15553005129E+03 -0.63608509382E+03  0.66671122709E+03  0.12509003818E+03 0.  0.
          5    1    3    3  502    0 -0.25135366330E+02 -0.10108803185E+03 -0.56919288958E+03  0.57866103617E+03  0.41800000000E+01 0. -1.
         -5    1    3    3    0  502  0.17229720075E+02 -0.54442019436E+02 -0.66892204236E+02  0.88050190924E+02  0.41800000000E+01 0. -1.
        -11    1    1    2    0    0  0.38259010442E+02  0.32996485488E+02 -0.61354900692E+02  0.79479203402E+02  0.00000000000E+00 0.  1.
         11    1    1    2    0    0 -0.30353364187E+02  0.12253356580E+03 -0.32624732170E+03  0.34981869072E+03  0.00000000000E+00 0. -1.
</event>
<event>
 7    1  0.2564986E-009  0.2527608E+03  0.7561462E-02  0.1111572E+00
         -2   -1    0    0    0  501 -0.00000000000E+00  0.00000000000E+00  0.30537625263E+02  0.30537625263E+02  0.00000000000E+00 0.  1.
          2   -1    0    0  501    0  0.00000000000E+00 -0.00000000000E+00 -0.27454248211E+04  0.27454248211E+04  0.00000000000E+00 0. -1.
         25    2    1    2    0    0 -0.24150402987E+03  0.58696637345E+01 -0.19579963206E+04  0.19768040714E+04  0.12508435474E+03 0.  0.
          5    1    3    3  502    0 -0.25205586428E+02 -0.24480386016E+02 -0.62712342026E+03  0.62812090199E+03  0.41800000000E+01 0.  1.
         -5    1    3    3    0  502 -0.21629844344E+03  0.30350049750E+02 -0.13308729003E+04  0.13486831694E+04  0.41800000000E+01 0.  1.
        -11    1    1    2    0    0  0.82132451798E+02  0.31532932854E+02 -0.34213146214E+03  0.35326194655E+03  0.00000000000E+00 0. -1.
         11    1    1    2    0    0  0.15937157807E+03 -0.37402596588E+02 -0.41475941315E+03  0.44589642847E+03  0.00000000000E+00 0.  1.
</event>
<event>
 7    1  0.2564986E-009  0.2988633E+03  0.7561462E-02  0.1085810E+00
          2   -1    0    0  501    0  0.00000000000E+00  0.00000000000E+00  0.40116687587E+03  0.40116687587E+03  0.00000000000E+00 0. -1.
         -2   -1    0    0    0  501 -0.00000000000E+00 -0.00000000000E+00 -0.23383686332E+03  0.23383686332E+03  0.00000000000E+00 0.  1.
         25    2    1    2    0    0  0.27562235224E+03  0.77178655339E+02  0.72231036974E+02  0.32060865374E+03  0.12509340612E+03 0.  0.
          5    1    3    3  502    0  0.27109825245E+03  0.49093118316E+02  0.86110067889E+02  0.28868116139E+03  0.41800000000E+01 0. -1.
         -5    1    3    3    0  502  0.45240997904E+01  0.28085537023E+02 -0.13879030915E+02  0.31927492352E+02  0.41800000000E+01 0. -1.
        -11    1    1    2    0    0 -0.20390887673E+02  0.11286771620E+02 -0.88873282246E+01  0.24943217849E+02  0.00000000000E+00 0. -1.
         11    1    1    2    0    0 -0.25523146457E+03 -0.88465426959E+02  0.10398630380E+03  0.28945186759E+03  0.00000000000E+00 0.  1.
</event>
<event>
 7    1  0.2564986E-009  0.1078315E+03  0.7561462E-02  0.1264639E+00
         -1   -1    0    0    0  501 -0.00000000000E+00  0.00000000000E+00  0.36420871947E+02  0.36420871947E+02  0.00000000000E+00 0.  1.
          1   -1    0    0  501    0  0.00000000000E+00 -0.00000000000E+00 -0.46926254035E+03  0.46926254035E+03  0.00000000000E+00 0. -1.
         25    2    1    2    0    0  0.64467776142E+02 -0.27687225197E+02 -0.21364179168E+03  0.25731249608E+03  0.12507689190E+03 0.  0.
          5    1    3    3  502    0 -0.37101288752E+02 -0.17095672398E+02 -0.66511095087E+02  0.78166270292E+02  0.41800000000E+01 0. -1.
         -5    1    3    3    0  502  0.10156906489E+03 -0.10591552800E+02 -0.14713069660E+03  0.17914622579E+03  0.41800000000E+01 0. -1.
        -11    1    1    2    0    0 -0.44740756098E+02  0.98805965430E+01 -0.21691111384E+03  0.22169752536E+03  0.00000000000E+00 0. -1.
         11    1    1    2    0    0 -0.19727020044E+02  0.17806628654E+02 -0.22887628762E+01  0.26673390848E+02  0.00000000000E+00 0.  1.
</event>
<event>
 7    1  0.2564986E-009  0.8272999E+02  0.7561462E-02  0.1321478E+00
         -2   -1    0    0    0  501 -0.00000000000E+00  0.00000000000E+00  0.13453596815E+03  0.13453596815E+03  0.00000000000E+00 0.  1.
          2   -1    0    0  501    0  0.00000000000E+00 -0.00000000000E+00 -0.18393230233E+03  0.18393230233E+03  0.00000000000E+00 0. -1.
         25    2    1    2    0    0  0.16424782771E+02 -0.29565800430E+02  0.83238421594E+02  0.15401325233E+03  0.12509011560E+03 0.  0.
          5    1    3    3  502    0 -0.16226355543E+02  0.36272544132E+02 -0.36671069312E+01  0.40123710512E+02  0.41800000000E+01 0.  1.
         -5    1    3    3    0  502  0.32651138314E+02 -0.65838344562E+02  0.86905528525E+02  0.11388954182E+03  0.41800000000E+01 0.  1.
        -11    1    1    2    0    0  0.81494781128E+01  0.25772257925E+02  0.24126923709E+01  0.27137508296E+02  0.00000000000E+00 0.  1.
         11    1    1    2    0    0 -0.24574260883E+02  0.37935425053E+01 -0.13504744814E+03  0.13731750985E+03  0.00000000000E+00 0. -1.
</event>
<event>
 7    1  0.2564986E-009  0.1159578E+03  0.7561462E-02  0.1249918E+00
         -1   -1    0    0    0  501 -0.00000000000E+00  0.00000000000E+00  0.20734605073E+03  0.20734605073E+03  0.00000000000E+00 0.  1.
          1   -1    0    0  501    0  0.00000000000E+00 -0.00000000000E+00 -0.98021854927E+02  0.98021854927E+02  0.00000000000E+00 0. -1.
         25    2    1    2    0    0 -0.81170221426E+02  0.29363384529E+02  0.95400512848E+02  0.17943825357E+03  0.12508403493E+03 0.  0.
          5    1    3    3  502    0  0.24320106612E+02  0.31328744711E+02  0.45437070026E+01  0.40138205043E+02  0.41800000000E+01 0. -1.
         -5    1    3    3    0  502 -0.10549032804E+03 -0.19653601820E+01  0.90856805846E+02  0.13930004852E+03  0.41800000000E+01 0. -1.
        -11    1    1    2    0    0  0.12074524933E+02 -0.26349962412E+01 -0.35020280401E+02  0.37137008454E+02  0.00000000000E+00 0. -1.
         11    1    1    2    0    0  0.69095696494E+02 -0.26728388288E+02  0.48943963351E+02  0.88792643631E+02  0.00000000000E+00 0.  1.
</event>
<event>
 7    1  0.2564986E-009  0.1968532E+03  0.7561462E-02  0.1152421E+00
         -2   -1    0    0    0  501 -0.00000000000E+00  0.00000000000E+00  0.14152765570E+03  0.14152765570E+03  0.00000000000E+00 0.  1.
          2   -1    0    0  501    0  0.00000000000E+00 -0.00000000000E+00 -0.34307367623E+03  0.34307367623E+03  0.00000000000E+00 0. -1.
         25    2    1    2    0    0  0.15474422957E+03  0.10890703551E+03 -0.76426190807E+02  0.23936032962E+03  0.12508351525E+03 0.  0.
          5    1    3    3  502    0  0.13375020439E+03  0.11303435787E+03 -0.16914592790E+02  0.17598141687E+03  0.41800000000E+01 0.  1.
         -5    1    3    3    0  502  0.20994025178E+02 -0.41273223657E+01 -0.59511598018E+02  0.63378912752E+02  0.41800000000E+01 0.  1.
        -11    1    1    2    0    0 -0.64491610678E+02 -0.14439315567E+02 -0.86781507807E+02  0.10908112476E+03  0.00000000000E+00 0. -1.
         11    1    1    2    0    0 -0.90252618891E+02 -0.94467719941E+02 -0.38338321918E+02  0.13615987755E+03  0.00000000000E+00 0.  1.
</event>
<event>
 7    1  0.2564986E-009  0.1067812E+03  0.7561462E-02  0.1266649E+00
         -1   -1    0    0    0  501 -0.00000000000E+00  0.00000000000E+00  0.20645797875E+03  0.20645797875E+03  0.00000000000E+00 0.  1.
          1   -1    0    0  501    0  0.00000000000E+00 -0.00000000000E+00 -0.85380489261E+02  0.85380489261E+02  0.00000000000E+00 0. -1.
         25    2    1    2    0    0  0.14995649647E+02  0.13696042684E+02 -0.14430228078E+02  0.12755560543E+03  0.12509896043E+03 0.  0.
          5    1    3    3  502    0 -0.52337348054E+02  0.44204904406E+01 -0.25547691724E+02  0.58556773216E+02  0.41800000000E+01 0.  1.
         -5    1    3    3    0  502  0.67332997701E+02  0.92755522439E+01  0.11117463646E+02  0.68998832213E+02  0.41800000000E+01 0.  1.
        -11    1    1    2    0    0 -0.51115549131E+02  0.62795219208E+01  0.79060579902E+02  0.94354687499E+02  0.00000000000E+00 0.  1.
         11    1    1    2    0    0  0.36119899483E+02 -0.19975564605E+02  0.56447137666E+02  0.69928175085E+02  0.00000000000E+00 0. -1.
</event>
<event>
 7    1  0.2564986E-009  0.1115607E+03  0.7561462E-02  0.1257707E+00
         -1   -1    0    0    0  501 -0.00000000000E+00  0.00000000000E+00  0.97708571569E+03  0.97708571569E+03  0.00000000000E+00 0.  1.
          1   -1    0    0  501    0  0.00000000000E+00 -0.00000000000E+00 -0.13874002513E+02  0.13874002513E+02  0.00000000000E+00 0. -1.
         25    2    1    2    0    0  0.15649552259E+02  0.37556657298E+02  0.59804687163E+03  0.61234354928E+03  0.12509656544E+03 0.  0.
          5    1    3    3  502    0  0.28843241423E+02 -0.37440944175E+02  0.13585769655E+03  0.14390463157E+03  0.41800000000E+01 0.  1.
         -5    1    3    3    0  502 -0.13193689163E+02  0.74997601473E+02  0.46218917508E+03  0.46843891771E+03  0.41800000000E+01 0.  1.
        -11    1    1    2    0    0 -0.21694256522E+02 -0.66444708934E+02  0.27500310242E+03  0.28374679990E+03  0.00000000000E+00 0. -1.
         11    1    1    2    0    0  0.60447042626E+01  0.28888051635E+02  0.90161739126E+02  0.94869369025E+02  0.00000000000E+00 0.  1.
</event>
<event>
 7    1  0.2564986E-009  0.9834003E+02  0.7561462E-02  0.1283826E+00
          1   -1    0    0  501    0  0.00000000000E+00  0.00000000000E+00  0.30335494266E+03  0.30335494266E+03  0.00000000000E+00 0.  1.
         -1   -1    0    0    0  501 -0.00000000000E+00 -0.00000000000E+00 -0.69801017876E+02  0.69801017876E+02  0.00000000000E+00 0. -1.
         25    2    1    2    0    0  0.86594401894E+02  0.16446717033E+02  0.75882289609E+02  0.17080728190E+03  0.12509164933E+03 0.  0.
          5    1    3    3  502    0  0.37353503393E+02  0.11439057197E+02 -0.32884937089E+02  0.51235024472E+02  0.41800000000E+01 0. -1.
         -5    1    3    3    0  502  0.49240898502E+02  0.50076598356E+01  0.10876722670E+03  0.11957225743E+03  0.41800000000E+01 0. -1.
        -11    1    1    2    0    0 -0.56248772232E+01  0.18643853904E+02 -0.23422971105E+01  0.19614252164E+02  0.00000000000E+00 0. -1.
         11    1    1    2    0    0 -0.80969524671E+02 -0.35090570937E+02  0.16001393229E+03  0.18273442648E+03  0.00000000000E+00 0.  1.
</event>
<event>
 7    1  0.2564986E-009  0.1137054E+03  0.7561462E-02  0.1253858E+00
          2   -1    0    0  501    0  0.00000000000E+00  0.00000000000E+00  0.54367781588E+03  0.54367781588E+03  0.00000000000E+00 0. -1.
         -2   -1    0    0    0  501 -0.00000000000E+00 -0.00000000000E+00 -0.33493699864E+02  0.33493699864E+02  0.00000000000E+00 0.  1.
         25    2    1    2    0    0  0.77862959492E+02 -0.41967798874E+01  0.26014199270E+03  0.29899598180E+03  0.12507792509E+03 0.  0.
          5    1    3    3  502    0  0.52767419042E+02 -0.57141586688E+02  0.90136534287E+02  0.11912862232E+03  0.41800000000E+01 0. -1.
         -5    1    3    3    0  502  0.25095540451E+02  0.52944806800E+02  0.17000545841E+03  0.17986735948E+03  0.41800000000E+01 0. -1.
        -11    1    1    2    0    0 -0.49833109857E+02 -0.20052233550E+02  0.22969910427E+03  0.23589639550E+03  0.00000000000E+00 0. -1.
         11    1    1    2    0    0 -0.28029849635E+02  0.24249013438E+02  0.20343019042E+02  0.42279138437E+02  0.00000000000E+00 0.  1.
</event>
<event>
 7    1  0.2564986E-009  0.1007695E+03  0.7561462E-02  0.1278686E+00
          2   -1    0    0  501    0  0.00000000000E+00  0.00000000000E+00  0.98285229651E+02  0.98285229651E+02  0.00000000000E+00 0. -1.
         -2   -1    0    0    0  501 -0.00000000000E+00 -0.00000000000E+00 -0.17611853491E+03  0.17611853491E+03  0.00000000000E+00 0.  1.
         25    2    1    2    0    0 -0.12693662979E+02  0.68293933063E+02 -0.72073070762E+02  0.16021004961E+03  0.12509013587E+03 0.  0.
          5    1    3    3  502    0 -0.34251184914E+02  0.25156703308E+02 -0.96840085299E+02  0.10583703468E+03  0.41800000000E+01 0. -1.
         -5    1    3    3    0  502  0.21557521936E+02  0.43137229754E+02  0.24767014537E+02  0.54373014924E+02  0.41800000000E+01 0. -1.
        -11    1    1    2    0    0  0.48629592704E+02 -0.51281287604E+02 -0.17366081412E+02  0.72774916891E+02  0.00000000000E+00 0.  1.
         11    1    1    2    0    0 -0.35935929725E+02 -0.17012645458E+02  0.11605846913E+02  0.41418798067E+02  0.00000000000E+00 0. -1.
</event>
<event>
 7    1  0.2564986E-009  0.2332720E+03  0.7561462E-02  0.1124358E+00
         -1   -1    0    0    0  501 -0.00000000000E+00  0.00000000000E+00  0.34897861136E+03  0.34897861136E+03  0.00000000000E+00 0.  1.
          1   -1    0    0  501    0  0.00000000000E+00 -0.00000000000E+00 -0.16251363465E+03  0.16251363465E+03  0.00000000000E+00 0. -1.
         25    2    1    2    0    0 -0.35045207404E+02  0.20659811685E+03  0.12643716518E+03  0.27485185896E+03  0.12508492788E+03 0.  0.
          5    1    3    3  502    0 -0.51290150533E+02  0.22599095149E+02  0.48828559709E+02  0.74451993167E+02  0.41800000000E+01 0.  1.
         -5    1    3    3    0  502  0.16244943129E+02  0.18399902170E+03  0.77608605475E+02  0.20039986579E+03  0.41800000000E+01 0.  1.
        -11    1    1    2    0    0 -0.96749316664E+01 -0.16244895234E+03  0.24850798041E+02  0.16462329295E+03  0.00000000000E+00 0.  1.
         11    1    1    2    0    0  0.44720139070E+02 -0.44149164515E+02  0.35177013488E+02  0.72017094108E+02  0.00000000000E+00 0. -1.
</event>
<event>
 7    1  0.2626236E-009  0.1243805E+03  0.7561462E-02  0.1236041E+00
          2   -1    0    0  501    0  0.00000000000E+00  0.00000000000E+00  0.98038247358E+03  0.98038247358E+03  0.00000000000E+00 0. -1.
         -2   -1    0    0    0  501 -0.00000000000E+00 -0.00000000000E+00 -0.25185802180E+02  0.25185802180E+02  0.00000000000E+00 0.  1.
         25    2    1    2    0    0  0.10381422528E+03 -0.15243337247E+02  0.65285830199E+03  0.67296629765E+03  0.12509965066E+03 0.  0.
          5    1    3    3  502    0  0.10455421062E+03  0.16921592440E+02  0.29184041423E+03  0.31049351527E+03  0.41800000000E+01 0. -1.
         -5    1    3    3    0  502 -0.73998534720E+00 -0.32164929687E+02  0.36101788776E+03  0.36247278237E+03  0.41800000000E+01 0. -1.
        -11    1    1    2    0    0 -0.70255283740E+02  0.26254662674E+02  0.28209004611E+03  0.29189022991E+03  0.00000000000E+00 0.  1.
         11    1    1    2    0    0 -0.33558941538E+02 -0.11011325427E+02  0.20248323305E+02  0.40711748200E+02  0.00000000000E+00 0. -1.
</event>
<event>
 7    1  0.2564986E-009  0.1039015E+03  0.7561462E-02  0.1272299E+00
         -1   -1    0    0    0  501 -0.00000000000E+00  0.00000000000E+00  0.76019657308E+02  0.76019657308E+02  0.00000000000E+00 0.  1.
          1   -1    0    0  501    0  0.00000000000E+00 -0.00000000000E+00 -0.18956981958E+03  0.18956981958E+03  0.00000000000E+00 0. -1.
         25    2    1    2    0    0 -0.48986703051E+02 -0.10944193695E+02 -0.80534240494E+02  0.15700978005E+03  0.12508730826E+03 0.  0.
          5    1    3    3  502    0  0.35878002754E+02  0.11738420087E+02 -0.52319261145E+02  0.64651365604E+02  0.41800000000E+01 0. -1.
         -5    1    3    3    0  502 -0.84864705805E+02 -0.22682613782E+02 -0.28214979349E+02  0.92358414446E+02  0.41800000000E+01 0. -1.
        -11    1    1    2    0    0 -0.14367237832E+02 -0.70727242307E+01 -0.39277682601E+02  0.42416710168E+02  0.00000000000E+00 0. -1.
         11    1    1    2    0    0  0.63353940883E+02  0.18016917926E+02  0.62617608200E+01  0.66162986673E+02  0.00000000000E+00 0.  1.
</event>
<event>
 7    1  0.2564986E-009  0.5836529E+02  0.7561462E-02  0.1404823E+00
          2   -1    0    0  501    0  0.00000000000E+00  0.00000000000E+00  0.45695259556E+02  0.45695259556E+02  0.00000000000E+00 0. -1.
         -2   -1    0    0    0  501 -0.00000000000E+00 -0.00000000000E+00 -0.28120192393E+03  0.28120192393E+03  0.00000000000E+00 0.  1.
         25    2    1    2    0    0  0.25129045977E+02 -0.10211524244E+02 -0.16360881922E+03  0.20772813106E+03  0.12508951406E+03 0.  0.
          5    1    3    3  502    0  0.32970602501E+02 -0.91511244124E+01 -0.18308099621E+03  0.18629795296E+03  0.41800000000E+01 0.  1.
         -5    1    3    3    0  502 -0.78415565243E+01 -0.10603998320E+01  0.19472176986E+02  0.21430178093E+02  0.41800000000E+01 0.  1.
        -11    1    1    2    0    0 -0.48681794062E+02  0.34397865470E+01 -0.79695793897E+02  0.93451424652E+02  0.00000000000E+00 0.  1.
         11    1    1    2    0    0  0.23552748086E+02  0.67717376973E+01  0.77979487416E+01  0.25717627776E+02  0.00000000000E+00 0. -1.
</event>
<event>
 7    1  0.2564986E-009  0.8759869E+02  0.7561462E-02  0.1308773E+00
         -1   -1    0    0    0  501 -0.00000000000E+00  0.00000000000E+00  0.13150145363E+03  0.13150145363E+03  0.00000000000E+00 0.  1.
          1   -1    0    0  501    0  0.00000000000E+00 -0.00000000000E+00 -0.12045818113E+03  0.12045818113E+03  0.00000000000E+00 0. -1.
         25    2    1    2    0    0 -0.72232214826E+01 -0.39562163559E+02  0.57370268464E+02  0.14337407032E+03  0.12508971429E+03 0.  0.
          5    1    3    3  502    0  0.31405295902E+02 -0.47947667671E+02  0.79332850086E+02  0.97961446236E+02  0.41800000000E+01 0.  1.
         -5    1    3    3    0  502 -0.38628517384E+02  0.83855041122E+01 -0.21962581622E+02  0.45412624082E+02  0.41800000000E+01 0.  1.
        -11    1    1    2    0    0 -0.29802205835E+02  0.21731964508E+02 -0.55348057492E+02  0.66512083279E+02  0.00000000000E+00 0. -1.
         11    1    1    2    0    0  0.37025427318E+02  0.17830199051E+02  0.90210615243E+01  0.42073481164E+02  0.00000000000E+00 0.  1.
</event>
<event>
 7    1  0.2880440E-009  0.1483270E+03  0.7561462E-02  0.1202544E+00
          2   -1    0    0  501    0  0.00000000000E+00  0.00000000000E+00  0.31903430771E+03  0.31903430771E+03  0.00000000000E+00 0. -1.
         -2   -1    0    0    0  501 -0.00000000000E+00 -0.00000000000E+00 -0.10460125222E+03  0.10460125222E+03  0.00000000000E+00 0.  1.
         25    2    1    2    0    0  0.73882710766E+02  0.10297163995E+03  0.27649644711E+02  0.18020261356E+03  0.12508663196E+03 0.  0.
          5    1    3    3  502    0  0.96560959589E+02  0.89016029448E+02  0.54412716078E+02  0.14221845340E+03  0.41800000000E+01 0.  1.
         -5    1    3    3    0  502 -0.22678248823E+02  0.13955610504E+02 -0.26763071367E+02  0.37984160162E+02  0.41800000000E+01 0.  1.
        -11    1    1    2    0    0 -0.52480064878E+01 -0.53351920733E+02  0.13224833837E+03  0.14270105823E+03  0.00000000000E+00 0. -1.
         11    1    1    2    0    0 -0.68634704279E+02 -0.49619719219E+02  0.54535072417E+02  0.10073188815E+03  0.00000000000E+00 0.  1.
</event>
<event>
 7    1  0.2564986E-009  0.1202631E+03  0.7561462E-02  0.1242664E+00
         -1   -1    0    0    0  501 -0.00000000000E+00  0.00000000000E+00  0.32835948957E+02  0.32835948957E+02  0.00000000000E+00 0.  1.
          1   -1    0    0  501    0  0.00000000000E+00 -0.00000000000E+00 -0.52748173701E+03  0.52748173701E+03  0.00000000000E+00 0. -1.
         25    2    1    2    0    0 -0.50851301425E+02 -0.51989343309E+02 -0.24122393734E+03  0.28129216181E+03  0.12509015019E+03 0.  0.
          5    1    3    3  502    0 -0.44845535623E+02  0.27626927861E+02 -0.15474611653E+03  0.16351820140E+03  0.41800000000E+01 0. -1.
         -5    1    3    3    0  502 -0.60057658019E+01 -0.79616271170E+02 -0.86477820805E+02  0.11777396040E+03  0.41800000000E+01 0. -1.
        -11    1    1    2    0    0  0.21477792530E+02 -0.20395594596E+02 -0.29228393716E+02  0.41612195930E+02  0.00000000000E+00 0.  1.
         11    1    1    2    0    0  0.29373508895E+02  0.72384937905E+02 -0.22419345700E+03  0.23741332823E+03  0.00000000000E+00 0. -1.
</event>
<event>
 7    1  0.2564986E-009  0.1457751E+03  0.7561462E-02  0.1205763E+00
          3   -1    0    0  501    0  0.00000000000E+00  0.00000000000E+00  0.36736098042E+03  0.36736098042E+03  0.00000000000E+00 0. -1.
         -3   -1    0    0    0  501 -0.00000000000E+00 -0.00000000000E+00 -0.80475468095E+02  0.80475468095E+02  0.00000000000E+00 0.  1.
         25    2    1    2    0    0  0.82263093487E+02 -0.93001758233E+02  0.96152261733E+02  0.20077485504E+03  0.12509492954E+03 0.  0.
          5    1    3    3  502    0 -0.26175188943E+02 -0.22160653313E+02 -0.68621828088E+01  0.35224948891E+02  0.41800000000E+01 0.  1.
         -5    1    3    3    0  502  0.10843828243E+03 -0.70841104921E+02  0.10301444454E+03  0.16554990615E+03  0.41800000000E+01 0.  1.
        -11    1    1    2    0    0 -0.66852074121E+01  0.24524847844E+02 -0.54096108577E+01  0.25988921669E+02  0.00000000000E+00 0.  1.
         11    1    1    2    0    0 -0.75577886075E+02  0.68476910390E+02  0.19614286145E+03  0.22107267180E+03  0.00000000000E+00 0. -1.
</event>
<event>
 7    1  0.2564986E-009  0.9457382E+02  0.7561462E-02  0.1292139E+00
         -2   -1    0    0    0  501 -0.00000000000E+00  0.00000000000E+00  0.47507595865E+02  0.47507595865E+02  0.00000000000E+00 0.  1.
          2   -1    0    0  501    0  0.00000000000E+00 -0.00000000000E+00 -0.40798904637E+03  0.40798904637E+03  0.00000000000E+00 0. -1.
         25    2    1    2    0    0  0.23769764128E+02  0.68708488377E+02 -0.12132175098E+03  0.18881963150E+03  0.12509207775E+03 0.  0.
          5    1    3    3  502    0  0.82285983043E+00  0.12450086738E+01  0.25331189914E+02  0.25717090180E+02  0.41800000000E+01 0.  1.
         -5    1    3    3    0  502  0.22946904297E+02  0.67463479703E+02 -0.14665294090E+03  0.16310254132E+03  0.41800000000E+01 0.  1.
        -11    1    1    2    0    0 -0.41268445486E+02  0.11763162678E+01 -0.12542816043E+03  0.13204806602E+03  0.00000000000E+00 0. -1.
         11    1    1    2    0    0  0.17498681358E+02 -0.69884804645E+02 -0.11373153910E+03  0.13462894472E+03  0.00000000000E+00 0.  1.
</event>
<event>
 7    1  0.2564986E-009  0.1081034E+03  0.7561462E-02  0.1264123E+00
          1   -1    0    0  501    0  0.00000000000E+00  0.00000000000E+00  0.51176938632E+03  0.51176938632E+03  0.00000000000E+00 0. -1.
         -1   -1    0    0    0  501 -0.00000000000E+00 -0.00000000000E+00 -0.40115557729E+02  0.40115557729E+02  0.00000000000E+00 0.  1.
         25    2    1    2    0    0  0.80215930184E+01 -0.61564986146E+02  0.38962920408E+03  0.41389973871E+03  0.12508990190E+03 0.  0.
          5    1    3    3  502    0 -0.53612864224E+02 -0.24459458221E+02  0.24863199129E+03  0.25555418955E+03  0.41800000000E+01 0. -1.
         -5    1    3    3    0  502  0.61634457243E+02 -0.37105527925E+02  0.14099721279E+03  0.15834554915E+03  0.41800000000E+01 0. -1.
        -11    1    1    2    0    0  0.23271647159E+02  0.42413140676E+02  0.88375832845E+02  0.10075084066E+03  0.00000000000E+00 0. -1.
         11    1    1    2    0    0 -0.31293240177E+02  0.19151845471E+02 -0.63512083315E+01  0.37234364678E+02  0.00000000000E+00 0.  1.
</event>
<event>
 7    1  0.2564986E-009  0.8393361E+02  0.7561462E-02  0.1318245E+00
         -1   -1    0    0    0  501 -0.00000000000E+00  0.00000000000E+00  0.74198924713E+02  0.74198924713E+02  0.00000000000E+00 0.  1.
          1   -1    0    0  501    0  0.00000000000E+00 -0.00000000000E+00 -0.19403519306E+03  0.19403519306E+03  0.00000000000E+00 0. -1.
         25    2    1    2    0    0  0.43778511379E+02 -0.24616676072E+02 -0.61360240942E+02  0.14810688768E+03  0.12509209491E+03 0.  0.
          5    1    3    3  502    0 -0.55588772488E+01 -0.25350279630E+02 -0.88023818592E+02  0.91865133937E+02  0.41800000000E+01 0. -1.
         -5    1    3    3    0  502  0.49337388628E+02  0.73360355844E+00  0.26663577650E+02  0.56241753742E+02  0.41800000000E+01 0. -1.
        -11    1    1    2    0    0 -0.27166563407E+02  0.52781044765E+02 -0.78771955612E+01  0.59882477100E+02  0.00000000000E+00 0.  1.
         11    1    1    2    0    0 -0.16611947973E+02 -0.28164368693E+02 -0.50598831843E+02  0.60244752993E+02  0.00000000000E+00 0. -1.
</event>
<event>
 7    1  0.2564986E-009  0.1131922E+03  0.7561462E-02  0.1254770E+00
         -1   -1    0    0    0  501 -0.00000000000E+00  0.00000000000E+00  0.18534679007E+02  0.18534679007E+02  0.00000000000E+00 0.  1.
          1   -1    0    0  501    0  0.00000000000E+00 -0.00000000000E+00 -0.78491716943E+03  0.78491716943E+03  0.00000000000E+00 0. -1.
         25    2    1    2    0    0  0.55375824780E+02  0.87100173129E+01 -0.39437553742E+03  0.41751714083E+03  0.12508457940E+03 0.  0.
          5    1    3    3  502    0  0.55668170523E+02  0.55761192570E+02 -0.31858959233E+03  0.32821495479E+03  0.41800000000E+01 0. -1.
         -5    1    3    3    0  502 -0.29234574297E+00 -0.47051175257E+02 -0.75785945084E+02  0.89302186040E+02  0.41800000000E+01 0. -1.
        -11    1    1    2    0    0 -0.55991237369E+02 -0.40086120371E+02 -0.29160231300E+03  0.29962280397E+03  0.00000000000E+00 0. -1.
         11    1    1    2    0    0  0.61541258933E+00  0.31376103058E+02 -0.80404640010E+02  0.86311903645E+02  0.00000000000E+00 0.  1.
</event>
<event>
 7    1  0.2564986E-009  0.8064912E+02  0.7561462E-02  0.1327219E+00
         -1   -1    0    0    0  501 -0.00000000000E+00  0.00000000000E+00  0.19710521157E+02  0.19710521157E+02  0.00000000000E+00 0.  1.
          1   -1    0    0  501    0  0.00000000000E+00 -0.00000000000E+00 -0.59893557314E+03  0.59893557314E+03  0.00000000000E+00 0. -1.
         25    2    1    2    0    0  0.38153089051E+01  0.28661710140E+02 -0.38336881894E+03  0.40429093524E+03  0.12507381331E+03 0.  0.
          5    1    3    3  502    0 -0.26421703651E+02  0.34031190248E+02 -0.36641650158E+03  0.36896443374E+03  0.41800000000E+01 0.  1.
         -5    1    3    3    0  502  0.30237012556E+02 -0.53694801082E+01 -0.16952317363E+02  0.35326501510E+02  0.41800000000E+01 0.  1.
        -11    1    1    2    0    0 -0.32505442401E+01 -0.57791813409E+02 -0.12553452291E+03  0.13823666727E+03  0.00000000000E+00 0.  1.
         11    1    1    2    0    0 -0.56476466496E+00  0.29130103269E+02 -0.70321710127E+02  0.76118491779E+02  0.00000000000E+00 0. -1.
</event>
<event>
 7    1  0.2564986E-009  0.9112123E+02  0.7561462E-02  0.1300159E+00
         -1   -1    0    0    0  501 -0.00000000000E+00  0.00000000000E+00  0.13435577747E+03  0.13435577747E+03  0.00000000000E+00 0.  1.
          1   -1    0    0  501    0  0.00000000000E+00 -0.00000000000E+00 -0.12977536123E+03  0.12977536123E+03  0.00000000000E+00 0. -1.
         25    2    1    2    0    0  0.56581648529E+02  0.36076628740E+02  0.36163386828E+02  0.14648779466E+03  0.12509147591E+03 0.  0.
          5    1    3    3  502    0  0.41327074156E+02  0.10648360995E+02 -0.43681682878E+02  0.61211734735E+02  0.41800000000E+01 0.  1.
         -5    1    3    3    0  502  0.15254574373E+02  0.25428267744E+02  0.79845069707E+02  0.85276059924E+02  0.41800000000E+01 0.  1.
        -11    1    1    2    0    0 -0.55582331555E+02 -0.62117879715E+02 -0.36714889386E+02  0.91082433345E+02  0.00000000000E+00 0.  1.
         11    1    1    2    0    0 -0.99931697492E+00  0.26041250976E+02  0.51319187952E+01  0.26560910702E+02  0.00000000000E+00 0. -1.
</event>
<event>
 7    1  0.2564986E-009  0.9792725E+02  0.7561462E-02  0.1284716E+00
         -1   -1    0    0    0  501 -0.00000000000E+00  0.00000000000E+00  0.45334898801E+03  0.45334898801E+03  0.00000000000E+00 0.  1.
          1   -1    0    0  501    0  0.00000000000E+00 -0.00000000000E+00 -0.35072414356E+02  0.35072414356E+02  0.00000000000E+00 0. -1.
         25    2    1    2    0    0  0.14448765384E+02 -0.63058578840E+02  0.22620286159E+03  0.26645504098E+03  0.12508158571E+03 0.  0.
          5    1    3    3  502    0  0.35010941805E+02 -0.81156190128E+02  0.85479976640E+02  0.12303004531E+03  0.41800000000E+01 0. -1.
         -5    1    3    3    0  502 -0.20562176422E+02  0.18097611288E+02  0.14072288495E+03  0.14342499567E+03  0.41800000000E+01 0. -1.
        -11    1    1    2    0    0  0.14519987551E+02  0.40253847474E+02  0.22336513398E+02  0.48271338346E+02  0.00000000000E+00 0.  1.
         11    1    1    2    0    0 -0.28968752934E+02  0.22804731366E+02  0.16973719866E+03  0.17369502304E+03  0.00000000000E+00 0. -1.
</event>
<event>
 7    1  0.2564986E-009  0.1583877E+03  0.7561462E-02  0.1190529E+00
         -2   -1    0    0    0  501 -0.00000000000E+00  0.00000000000E+00  0.73062587281E+02  0.73062587281E+02  0.00000000000E+00 0.  1.
          2   -1    0    0  501    0  0.00000000000E+00 -0.00000000000E+00 -0.60646091115E+03  0.60646091115E+03  0.00000000000E+00 0. -1.
         25    2    1    2    0    0  0.21994297193E+02 -0.13023746135E+03 -0.79486231824E+02  0.19852188841E+03  0.12508930283E+03 0.  0.
          5    1    3    3  502    0 -0.48980945341E+02 -0.81713059809E+02 -0.34605986186E+02  0.10144557077E+03  0.41800000000E+01 0. -1.
         -5    1    3    3    0  502  0.70975242533E+02 -0.48524401537E+02 -0.44880245638E+02  0.97076317636E+02  0.41800000000E+01 0. -1.
        -11    1    1    2    0    0 -0.14117062331E+02  0.18254251704E+02 -0.13998096954E+02  0.26989921683E+02  0.00000000000E+00 0.  1.
         11    1    1    2    0    0 -0.78772348617E+01  0.11198320964E+03 -0.43991399509E+03  0.45401168834E+03  0.00000000000E+00 0. -1.
</event>
<event>
 7    1  0.2564986E-009  0.1876970E+03  0.7561462E-02  0.1160555E+00
          1   -1    0    0  501    0  0.00000000000E+00  0.00000000000E+00  0.16898370761E+04  0.16898370761E+04  0.00000000000E+00 0. -1.
         -1   -1    0    0    0  501 -0.00000000000E+00 -0.00000000000E+00 -0.23567592328E+02  0.23567592328E+02  0.00000000000E+00 0.  1.
         25    2    1    2    0    0  0.32392612258E+02 -0.15785395644E+03  0.10502999817E+04  0.10699269782E+04  0.12508610731E+03 0.  0.
          5    1    3    3  502    0 -0.35224851381E+02 -0.40148683764E+02  0.51055838320E+03  0.51336151202E+03  0.41800000000E+01 0.  1.
         -5    1    3    3    0  502  0.67617463638E+02 -0.11770527267E+03  0.53974159845E+03  0.55656546615E+03  0.41800000000E+01 0.  1.
        -11    1    1    2    0    0  0.32892353915E+02  0.47126233654E+02  0.20119262959E+03  0.20923972627E+03  0.00000000000E+00 0. -1.
         11    1    1    2    0    0 -0.65284966173E+02  0.11072772278E+03  0.41477687254E+03  0.43423796402E+03  0.00000000000E+00 0.  1.
</event>
<event>
 7    1  0.2564986E-009  0.2683448E+03  0.7561462E-02  0.1102231E+00
          1   -1    0    0  501    0  0.00000000000E+00  0.00000000000E+00  0.32245184957E+03  0.32245184957E+03  0.00000000000E+00 0. -1.
         -1   -1    0    0    0  501 -0.00000000000E+00 -0.00000000000E+00 -0.23719844851E+03  0.23719844851E+03  0.00000000000E+00 0.  1.
         25    2    1    2    0    0 -0.20864947932E+03  0.14286953634E+03  0.69705407231E+02  0.29060492295E+03  0.12508424285E+03 0.  0.
          5    1    3    3  502    0 -0.15517597356E+02 -0.15254802860E+02  0.30812253579E+02  0.37952235884E+02  0.41800000000E+01 0. -1.
         -5    1    3    3    0  502 -0.19313188197E+03  0.15812433920E+03  0.38893153652E+02  0.25265268707E+03  0.41800000000E+01 0. -1.
        -11    1    1    2    0    0  0.81215444693E+02 -0.10340397886E+03 -0.14547905214E+02  0.13228746292E+03  0.00000000000E+00 0. -1.
         11    1    1    2    0    0  0.12743403463E+03 -0.39465557479E+02  0.30095899044E+02  0.13675791220E+03  0.00000000000E+00 0.  1.
</event>
<event>
 7    1  0.2564986E-009  0.1549161E+03  0.7561462E-02  0.1194559E+00
         -1   -1    0    0    0  501 -0.00000000000E+00  0.00000000000E+00  0.58511425954E+02  0.58511425954E+02  0.00000000000E+00 0.  1.
          1   -1    0    0  501    0  0.00000000000E+00 -0.00000000000E+00 -0.42024405790E+03  0.42024405790E+03  0.00000000000E+00 0. -1.
         25    2    1    2    0    0  0.50729653410E+02  0.99813757760E+02 -0.21228468048E+03  0.27064371682E+03  0.12508777684E+03 0.  0.
          5    1    3    3  502    0  0.31545810395E+02  0.12836002619E+03 -0.17940594128E+03  0.22287978519E+03  0.41800000000E+01 0.  1.
         -5    1    3    3    0  502  0.19183843014E+02 -0.28546268430E+02 -0.32878739195E+02  0.47763931634E+02  0.41800000000E+01 0.  1.
        -11    1    1    2    0    0  0.17710991586E+02 -0.62556779394E+02 -0.51460282706E+02  0.82916768915E+02  0.00000000000E+00 0.  1.
         11    1    1    2    0    0 -0.68440644996E+02 -0.37256978366E+02 -0.97987668757E+02  0.12519499811E+03  0.00000000000E+00 0. -1.
</event>
<event>
 7    1  0.2564986E-009  0.1077442E+03  0.7561462E-02  0.1264805E+00
          2   -1    0    0  501    0  0.00000000000E+00  0.00000000000E+00  0.38371529293E+03  0.38371529293E+03  0.00000000000E+00 0.  1.
         -2   -1    0    0    0  501 -0.00000000000E+00 -0.00000000000E+00 -0.48580175723E+02  0.48580175723E+02  0.00000000000E+00 0. -1.
         25    2    1    2    0    0 -0.68007900806E+02  0.28525156817E+02  0.12696996924E+03  0.19289301263E+03  0.12509029575E+03 0.  0.
          5    1    3    3  502    0 -0.18512370976E+02  0.47394034429E+02 -0.43429940891E+01  0.51237060574E+02  0.41800000000E+01 0. -1.
         -5    1    3    3    0  502 -0.49495529830E+02 -0.18868877612E+02  0.13131296333E+03  0.14165595206E+03  0.41800000000E+01 0. -1.
        -11    1    1    2    0    0  0.71265276623E+02 -0.51608014573E+02  0.12385077314E+03  0.15192478675E+03  0.00000000000E+00 0. -1.
         11    1    1    2    0    0 -0.32573758163E+01  0.23082857756E+02  0.84314374822E+02  0.87477669271E+02  0.00000000000E+00 0.  1.
</event>
<event>
 7    1  0.2564986E-009  0.1101684E+03  0.7561462E-02  0.1260258E+00
         -1   -1    0    0    0  501 -0.00000000000E+00  0.00000000000E+00  0.29871187824E+02  0.29871187824E+02  0.00000000000E+00 0.  1.
          1   -1    0    0  501    0  0.00000000000E+00 -0.00000000000E+00 -0.11908816104E+04  0.11908816104E+04  0.00000000000E+00 0. -1.
         25    2    1    2    0    0 -0.80042682136E+02  0.37133867827E+02 -0.10195230338E+04  0.10309513267E+04  0.12509063260E+03 0.  0.
          5    1    3    3  502    0 -0.68448538353E+02  0.48125538973E+02 -0.30668560348E+03  0.31792263475E+03  0.41800000000E+01 0. -1.
         -5    1    3    3    0  502 -0.11594143782E+02 -0.10991671145E+02 -0.71283743033E+03  0.71302869191E+03  0.41800000000E+01 0. -1.
        -11    1    1    2    0    0  0.88340548564E+02 -0.68061701217E+01 -0.74344267673E+02  0.11566091219E+03  0.00000000000E+00 0.  1.
         11    1    1    2    0    0 -0.82978664286E+01 -0.30327697706E+02 -0.67143121130E+02  0.74140559415E+02  0.00000000000E+00 0. -1.
</event>
<event>
 7    1  0.2564986E-009  0.7223778E+02  0.7561462E-02  0.1352645E+00
          1   -1    0    0  501    0  0.00000000000E+00  0.00000000000E+00  0.17345809466E+03  0.17345809466E+03  0.00000000000E+00 0. -1.
         -1   -1    0    0    0  501 -0.00000000000E+00 -0.00000000000E+00 -0.83067266926E+02  0.83067266926E+02  0.00000000000E+00 0.  1.
         25    2    1    2    0    0 -0.10158497327E+02 -0.50129786256E+02  0.62060485530E+02  0.14870718241E+03  0.12508449823E+03 0.  0.
          5    1    3    3  502    0 -0.39159803085E+02 -0.16865661640E+02  0.87623233045E+02  0.97535860531E+02  0.41800000000E+01 0. -1.
         -5    1    3    3    0  502  0.29001305758E+02 -0.33264124616E+02 -0.25562747516E+02  0.51171321878E+02  0.41800000000E+01 0. -1.
        -11    1    1    2    0    0 -0.57488852847E+01  0.34598506711E+02 -0.29520279382E+02  0.45842701093E+02  0.00000000000E+00 0.  1.
         11    1    1    2    0    0  0.15907382612E+02  0.15531279544E+02  0.57850621582E+02  0.61975478080E+02  0.00000000000E+00 0. -1.
</event>
<event>
 7    1  0.2564986E-009  0.1192738E+03  0.7561462E-02  0.1244300E+00
         -2   -1    0    0    0  501 -0.00000000000E+00  0.00000000000E+00  0.62724169751E+02  0.62724169751E+02  0.00000000000E+00 0.  1.
          2   -1    0    0  501    0  0.00000000000E+00 -0.00000000000E+00 -0.29769951414E+03  0.29769951414E+03  0.00000000000E+00 0. -1.
         25    2    1    2    0    0  0.80679668263E+02  0.16577865326E+02 -0.13987947252E+03  0.20493407803E+03  0.12509066719E+03 0.  0.
          5    1    3    3  502    0  0.95842717600E+02 -0.30158179721E+01 -0.14980780815E+03  0.17791788403E+03  0.41800000000E+01 0. -1.
         -5    1    3    3    0  502 -0.15163049337E+02  0.19593683298E+02  0.99283356267E+01  0.27016194008E+02  0.41800000000E+01 0. -1.
        -11    1    1    2    0    0 -0.89516269206E+01  0.30404863734E+02 -0.48397336192E+02  0.57852307764E+02  0.00000000000E+00 0. -1.
         11    1    1    2    0    0 -0.71728041342E+02 -0.46982729060E+02 -0.46698535684E+02  0.97637298097E+02  0.00000000000E+00 0.  1.
</event>
<event>
 7    1  0.2564986E-009  0.1212986E+03  0.7561462E-02  0.1240970E+00
          2   -1    0    0  501    0  0.00000000000E+00  0.00000000000E+00  0.54500173956E+03  0.54500173956E+03  0.00000000000E+00 0.  1.
         -2   -1    0    0    0  501 -0.00000000000E+00 -0.00000000000E+00 -0.39521108035E+02  0.39521108035E+02  0.00000000000E+00 0. -1.
         25    2    1    2    0    0 -0.72598632411E+02 -0.65885306395E+02  0.31712576986E+03  0.35471983545E+03  0.12508386278E+03 0.  0.
          5    1    3    3  502    0 -0.79964024747E+02 -0.63364502951E+02  0.12071483240E+03  0.15811024207E+03  0.41800000000E+01 0.  1.
         -5    1    3    3    0  502  0.73653923369E+01 -0.25208034442E+01  0.19641093746E+03  0.19660959338E+03  0.41800000000E+01 0.  1.
        -11    1    1    2    0    0  0.63842871763E+02 -0.13395005272E+01  0.91816185047E+02  0.11183880531E+03  0.00000000000E+00 0.  1.
         11    1    1    2    0    0  0.87557606477E+01  0.67224806922E+02  0.96538676620E+02  0.11796420683E+03  0.00000000000E+00 0. -1.
</event>
<event>
 7    1  0.2564986E-009  0.2467110E+03  0.7561462E-02  0.1115401E+00
         -1   -1    0    0    0  501 -0.00000000000E+00  0.00000000000E+00  0.88038081206E+02  0.88038081206E+02  0.00000000000E+00 0.  1.
          1   -1    0    0  501    0  0.00000000000E+00 -0.00000000000E+00 -0.80965759685E+03  0.80965759685E+03  0.00000000000E+00 0. -1.
         25    2    1    2    0    0 -0.22499155696E+03  0.20902440026E+02 -0.21719656166E+03  0.33746027539E+03  0.12508788258E+03 0.  0.
          5    1    3    3  502    0 -0.18412258032E+03 -0.33627538071E+02 -0.13613595578E+03  0.23147873932E+03  0.41800000000E+01 0.  1.
         -5    1    3    3    0  502 -0.40868976640E+02  0.54529978097E+02 -0.81060605879E+02  0.10598153607E+03  0.41800000000E+01 0.  1.
        -11    1    1    2    0    0  0.93285516493E+01  0.16592873455E+02 -0.15502973702E+02  0.24549694885E+02  0.00000000000E+00 0.  1.
         11    1    1    2    0    0  0.21566300531E+03 -0.37495313481E+02 -0.48891998028E+03  0.53568570777E+03  0.00000000000E+00 0. -1.
</event>
<event>
 7    1  0.2564986E-009  0.9293693E+02  0.7561462E-02  0.1295891E+00
         -2   -1    0    0    0  501 -0.00000000000E+00  0.00000000000E+00  0.26231939869E+02  0.26231939869E+02  0.00000000000E+00 0.  1.
          2   -1    0    0  501    0  0.00000000000E+00 -0.00000000000E+00 -0.48530603718E+03  0.48530603718E+03  0.00000000000E+00 0. -1.
         25    2    1    2    0    0  0.28457313355E+01 -0.32593054376E+02 -0.27502108394E+03  0.30389789285E+03  0.12508767840E+03 0.  0.
          5    1    3    3  502    0  0.42789333784E+02 -0.71955991582E+01 -0.26802358500E+02  0.51171696807E+02  0.41800000000E+01 0. -1.
         -5    1    3    3    0  502 -0.39943602448E+02 -0.25397455217E+02 -0.24821872544E+03  0.25272619604E+03  0.41800000000E+01 0. -1.
        -11    1    1    2    0    0 -0.38527908081E+02 -0.94007859722E+01 -0.94587815826E+02  0.10256524451E+03  0.00000000000E+00 0. -1.
         11    1    1    2    0    0  0.35682176745E+02  0.41993840348E+02 -0.89465197544E+02  0.10507483969E+03  0.00000000000E+00 0.  1.
</event>
<event>
 7    1  0.2564986E-009  0.1031463E+03  0.7561462E-02  0.1273815E+00
          1   -1    0    0  501    0  0.00000000000E+00  0.00000000000E+00  0.48432402083E+02  0.48432402083E+02  0.00000000000E+00 0.  1.
         -1   -1    0    0    0  501 -0.00000000000E+00 -0.00000000000E+00 -0.25842492443E+03  0.25842492443E+03  0.00000000000E+00 0. -1.
         25    2    1    2    0    0  0.18211706398E+02 -0.54742728916E+01 -0.90283380574E+02  0.15545101379E+03  0.12510913223E+03 0.  0.
          5    1    3    3  502    0 -0.51320591657E+02  0.13231043027E+02 -0.49250368781E+02  0.72470234253E+02  0.41800000000E+01 0.  1.
         -5    1    3    3    0  502  0.69532298055E+02 -0.18705315918E+02 -0.41033011793E+02  0.82980779541E+02  0.41800000000E+01 0.  1.
        -11    1    1    2    0    0 -0.44883714062E+02  0.21626426515E+02 -0.34311564324E+02  0.60494078703E+02  0.00000000000E+00 0.  1.
         11    1    1    2    0    0  0.26672007664E+02 -0.16152153624E+02 -0.85397577452E+02  0.90912234018E+02  0.00000000000E+00 0. -1.
</event>
<event>
 7    1  0.2564986E-009  0.1406346E+03  0.7561462E-02  0.1212478E+00
          2   -1    0    0  501    0  0.00000000000E+00  0.00000000000E+00  0.18270408389E+03  0.18270408389E+03  0.00000000000E+00 0. -1.
         -2   -1    0    0    0  501 -0.00000000000E+00 -0.00000000000E+00 -0.15978701104E+03  0.15978701104E+03  0.00000000000E+00 0.  1.
         25    2    1    2    0    0  0.10999385013E+03  0.46950513892E+02  0.68373368315E+02  0.18607908918E+03  0.12509001605E+03 0.  0.
          5    1    3    3  502    0  0.12912176006E+03  0.43671202075E+02  0.25364860625E+02  0.13870995410E+03  0.41800000000E+01 0.  1.
         -5    1    3    3    0  502 -0.19127909933E+02  0.32793118170E+01  0.43008507690E+02  0.47369135078E+02  0.41800000000E+01 0.  1.
        -11    1    1    2    0    0 -0.93758975183E+02 -0.23734071006E+02 -0.69627207847E+02  0.11917214283E+03  0.00000000000E+00 0.  1.
         11    1    1    2    0    0 -0.16234874945E+02 -0.23216442887E+02  0.24170912383E+02  0.37239862919E+02  0.00000000000E+00 0. -1.
</event>
<event>
 7    1  0.2564986E-009  0.1923803E+03  0.7561462E-02  0.1156332E+00
         -2   -1    0    0    0  501 -0.00000000000E+00  0.00000000000E+00  0.34069528244E+03  0.34069528244E+03  0.00000000000E+00 0.  1.
          2   -1    0    0  501    0  0.00000000000E+00 -0.00000000000E+00 -0.15186745159E+03  0.15186745159E+03  0.00000000000E+00 0. -1.
         25    2    1    2    0    0  0.17981314358E+03 -0.31689907878E+02  0.10672229037E+02  0.22157532917E+03  0.12507882778E+03 0.  0.
          5    1    3    3  502    0  0.16097348993E+03 -0.42630166003E+02  0.52141901577E+02  0.17454525434E+03  0.41800000000E+01 0.  1.
         -5    1    3    3    0  502  0.18839653651E+02  0.10940258125E+02 -0.41469672540E+02  0.47030074826E+02  0.41800000000E+01 0.  1.
        -11    1    1    2    0    0 -0.16425231170E+03  0.40724404272E+01  0.17349415142E+03  0.23894691303E+03  0.00000000000E+00 0.  1.
         11    1    1    2    0    0 -0.15560831882E+02  0.27617467451E+02  0.46614503922E+01  0.32040491835E+02  0.00000000000E+00 0. -1.
</event>
<event>
 7    1  0.2564986E-009  0.2343919E+03  0.7561462E-02  0.1123586E+00
         -2   -1    0    0    0  501 -0.00000000000E+00  0.00000000000E+00  0.40826630379E+02  0.40826630379E+02  0.00000000000E+00 0.  1.
          2   -1    0    0  501    0  0.00000000000E+00 -0.00000000000E+00 -0.14239684935E+04  0.14239684935E+04  0.00000000000E+00 0. -1.
         25    2    1    2    0    0 -0.19831219849E+03  0.80953309525E+02 -0.66536180700E+03  0.71009493748E+03  0.12508924667E+03 0.  0.
          5    1    3    3  502    0  0.86494797378E+01  0.31784907528E+02 -0.62214269978E+02  0.70520788674E+02  0.41800000000E+01 0. -1.
         -5    1    3    3    0  502 -0.20696167823E+03  0.49168401996E+02 -0.60314753702E+03  0.63957414881E+03  0.41800000000E+01 0. -1.
        -11    1    1    2    0    0  0.10951895016E+03 -0.77105958807E+02 -0.53423489299E+03  0.55076914421E+03  0.00000000000E+00 0. -1.
         11    1    1    2    0    0  0.88793248327E+02 -0.38473507175E+01 -0.18354516310E+03  0.20393104216E+03  0.00000000000E+00 0.  1.
</event>
<event>
 7    1  0.2564986E-009  0.2144983E+03  0.7561462E-02  0.1138053E+00
          2   -1    0    0  501    0  0.00000000000E+00  0.00000000000E+00  0.13196395713E+04  0.13196395713E+04  0.00000000000E+00 0. -1.
         -2   -1    0    0    0  501 -0.00000000000E+00 -0.00000000000E+00 -0.41178057212E+02  0.41178057212E+02  0.00000000000E+00 0.  1.
         25    2    1    2    0    0  0.14156082810E+03  0.13602369329E+03  0.83784656155E+03  0.86958408538E+03  0.12509079764E+03 0.  0.
          5    1    3    3  502    0 -0.12128740873E+02  0.58959948435E+02  0.24260519295E+03  0.24999626782E+03  0.41800000000E+01 0. -1.
         -5    1    3    3    0  502  0.15368956897E+03  0.77063744859E+02  0.59524136860E+03  0.61958781756E+03  0.41800000000E+01 0. -1.
        -11    1    1    2    0    0 -0.87575611452E+02 -0.76069684029E+02  0.14995916034E+03  0.18958859227E+03  0.00000000000E+00 0.  1.
         11    1    1    2    0    0 -0.53985216644E+02 -0.59954009265E+02  0.29065579223E+03  0.30164495090E+03  0.00000000000E+00 0. -1.
</event>
<event>
 7    1  0.2564986E-009  0.1397901E+03  0.7561462E-02  0.1213612E+00
         -4   -1    0    0    0  501 -0.00000000000E+00  0.00000000000E+00  0.37703516915E+02  0.37703516915E+02  0.00000000000E+00 0. -1.
          4   -1    0    0  501    0  0.00000000000E+00 -0.00000000000E+00 -0.57092415523E+03  0.57092415523E+03  0.00000000000E+00 0.  1.
         25    2    1    2    0    0 -0.73161130239E+02  0.53544743413E+02 -0.21053349695E+03  0.26113654820E+03  0.12509337691E+03 0.  0.
          5    1    3    3  502    0 -0.65639521800E+02 -0.28721694513E+02 -0.96558661210E+02  0.12031014094E+03  0.41800000000E+01 0. -1.
         -5    1    3    3    0  502 -0.75216084384E+01  0.82266437926E+02 -0.11397483573E+03  0.14082640727E+03  0.41800000000E+01 0. -1.
        -11    1    1    2    0    0  0.19898651779E+02 -0.67221126065E+02 -0.13791951338E+03  0.15471402103E+03  0.00000000000E+00 0.  1.
         11    1    1    2    0    0  0.53262478459E+02  0.13676382652E+02 -0.18476762799E+03  0.19277710291E+03  0.00000000000E+00 0. -1.
</event>
<event>
 7    1  0.2564986E-009  0.1493941E+03  0.7561462E-02  0.1201219E+00
         -2   -1    0    0    0  501 -0.00000000000E+00  0.00000000000E+00  0.10734200547E+03  0.10734200547E+03  0.00000000000E+00 0.  1.
          2   -1    0    0  501    0  0.00000000000E+00 -0.00000000000E+00 -0.25782095057E+03  0.25782095057E+03  0.00000000000E+00 0. -1.
         25    2    1    2    0    0 -0.11787122559E+03 -0.40815340895E+02 -0.58940345360E+02  0.18623005333E+03  0.12509256804E+03 0.  0.
          5    1    3    3  502    0 -0.10716009955E+03  0.22564740147E+02 -0.52434229827E+02  0.12148775778E+03  0.41800000000E+01 0. -1.
         -5    1    3    3    0  502 -0.10711126044E+02 -0.63380081042E+02 -0.65061155328E+01  0.64742295552E+02  0.41800000000E+01 0. -1.
        -11    1    1    2    0    0  0.84785947857E+02  0.30964640952E+02 -0.10794577686E+03  0.14071160821E+03  0.00000000000E+00 0. -1.
         11    1    1    2    0    0  0.33085277738E+02  0.98506999434E+01  0.16407177120E+02  0.38221294502E+02  0.00000000000E+00 0.  1.
</event>
<event>
 7    1  0.2564986E-009  0.1028777E+03  0.7561462E-02  0.1274358E+00
         -2   -1    0    0    0  501 -0.00000000000E+00  0.00000000000E+00  0.25015407750E+02  0.25015407750E+02  0.00000000000E+00 0. -1.
          2   -1    0    0  501    0  0.00000000000E+00 -0.00000000000E+00 -0.58711709477E+03  0.58711709477E+03  0.00000000000E+00 0.  1.
         25    2    1    2    0    0  0.49678615335E+02 -0.19091276809E+02 -0.32169982225E+03  0.34924343299E+03  0.12509099959E+03 0.  0.
          5    1    3    3  502    0  0.79860489912E+02  0.17511363224E+02 -0.14799589357E+03  0.16912895259E+03  0.41800000000E+01 0.  1.
         -5    1    3    3    0  502 -0.30181874577E+02 -0.36602640034E+02 -0.17370392868E+03  0.18011448040E+03  0.41800000000E+01 0.  1.
        -11    1    1    2    0    0 -0.45924458184E+02 -0.99437865725E+01 -0.22491021290E+03  0.22976626954E+03  0.00000000000E+00 0.  1.
         11    1    1    2    0    0 -0.37541571516E+01  0.29035063382E+02 -0.15491651869E+02  0.33122799989E+02  0.00000000000E+00 0. -1.
</event>
<event>
 7    1  0.2564986E-009  0.1207369E+03  0.7561462E-02  0.1241886E+00
          2   -1    0    0  501    0  0.00000000000E+00  0.00000000000E+00  0.33996542358E+03  0.33996542358E+03  0.00000000000E+00 0. -1.
         -2   -1    0    0    0  501 -0.00000000000E+00 -0.00000000000E+00 -0.54783234742E+02  0.54783234742E+02  0.00000000000E+00 0.  1.
         25    2    1    2    0    0  0.61154455008E+02  0.23660416703E+02  0.82494935212E+02  0.16355964864E+03  0.12508661655E+03 0.  0.
          5    1    3    3  502    0 -0.45348815338E+01  0.58392180431E+02  0.98096634131E+01  0.59530780125E+02  0.41800000000E+01 0.  1.
         -5    1    3    3    0  502  0.65689336541E+02 -0.34731763728E+02  0.72685271799E+02  0.10402886851E+03  0.41800000000E+01 0.  1.
        -11    1    1    2    0    0  0.10474611596E+02 -0.34349585158E+02  0.44281987633E+02  0.57013208271E+02  0.00000000000E+00 0.  1.
         11    1    1    2    0    0 -0.71629066603E+02  0.10689168455E+02  0.15840526599E+03  0.17417580142E+03  0.00000000000E+00 0. -1.
</event>
<event>
 7    1  0.2564986E-009  0.2212775E+03  0.7561462E-02  0.1132934E+00
         -2   -1    0    0    0  501 -0.00000000000E+00  0.00000000000E+00  0.95472072600E+02  0.95472072600E+02  0.00000000000E+00 0.  1.
          2   -1    0    0  501    0  0.00000000000E+00 -0.00000000000E+00 -0.56780831481E+03  0.56780831481E+03  0.00000000000E+00 0. -1.
         25    2    1    2    0    0 -0.18573822815E+03 -0.82356443213E+02 -0.29698036937E+03  0.38095459611E+03  0.12509113227E+03 0.  0.
          5    1    3    3  502    0  0.95002496398E+01 -0.33909942064E+02 -0.63581806089E+02  0.72802866561E+02  0.41800000000E+01 0. -1.
         -5    1    3    3    0  502 -0.19523847779E+03 -0.48446501149E+02 -0.23339856328E+03  0.30815172955E+03  0.41800000000E+01 0. -1.
        -11    1    1    2    0    0  0.65685056756E+02  0.12101738917E+02 -0.10988050511E+03  0.12858734063E+03  0.00000000000E+00 0. -1.
         11    1    1    2    0    0  0.12005317139E+03  0.70254704296E+02 -0.65475367734E+02  0.15373845068E+03  0.00000000000E+00 0.  1.
</event>
<event>
 7    1  0.2564986E-009  0.1200139E+03  0.7561462E-02  0.1243074E+00
          2   -1    0    0  501    0  0.00000000000E+00  0.00000000000E+00  0.34021804470E+03  0.34021804470E+03  0.00000000000E+00 0. -1.
         -2   -1    0    0    0  501 -0.00000000000E+00 -0.00000000000E+00 -0.44689899355E+02  0.44689899355E+02  0.00000000000E+00 0.  1.
         25    2    1    2    0    0 -0.30758635052E+02  0.33870893459E+02  0.13226739260E+03  0.18771084852E+03  0.12508944181E+03 0.  0.
          5    1    3    3  502    0 -0.49540846570E+02  0.72021723750E+02  0.10638016835E+03  0.13775208451E+03  0.41800000000E+01 0.  1.
         -5    1    3    3    0  502  0.18782211517E+02 -0.38150830291E+02  0.25887224253E+02  0.49958764005E+02  0.41800000000E+01 0.  1.
        -11    1    1    2    0    0  0.54932622427E+02  0.13530446479E+02  0.72138092250E+02  0.91676443769E+02  0.00000000000E+00 0. -1.
         11    1    1    2    0    0 -0.24173987375E+02 -0.47401339938E+02  0.91122660500E+02  0.10552065177E+03  0.00000000000E+00 0.  1.
</event>
<event>
 7    1  0.2564986E-009  0.9633031E+02  0.7561462E-02  0.1288208E+00
         -2   -1    0    0    0  501 -0.00000000000E+00  0.00000000000E+00  0.79698976703E+02  0.79698976703E+02  0.00000000000E+00 0.  1.
          2   -1    0    0  501    0  0.00000000000E+00 -0.00000000000E+00 -0.15589782545E+03  0.15589782545E+03  0.00000000000E+00 0. -1.
         25    2    1    2    0    0 -0.44578896895E+01 -0.29730466364E+02 -0.50108442151E+02  0.13806708305E+03  0.12509152663E+03 0.  0.
          5    1    3    3  502    0 -0.56943139048E+02  0.15441439080E+02 -0.26184671016E+02  0.64684376180E+02  0.41800000000E+01 0.  1.
         -5    1    3    3    0  502  0.52485249359E+02 -0.45171905444E+02 -0.23923771135E+02  0.73382706867E+02  0.41800000000E+01 0.  1.
        -11    1    1    2    0    0 -0.24565776076E+02  0.24412012039E+02 -0.49118558658E+02  0.60100386777E+02  0.00000000000E+00 0. -1.
         11    1    1    2    0    0  0.29023665766E+02  0.53184543247E+01  0.23028152066E+02  0.37429332327E+02  0.00000000000E+00 0.  1.
</event>
<event>
 7    1  0.2564986E-009  0.1264604E+03  0.7561462E-02  0.1232804E+00
         -1   -1    0    0    0  501 -0.00000000000E+00  0.00000000000E+00  0.36314522304E+03  0.36314522304E+03  0.00000000000E+00 0.  1.
          1   -1    0    0  501    0  0.00000000000E+00 -0.00000000000E+00 -0.57506675969E+02  0.57506675969E+02  0.00000000000E+00 0. -1.
         25    2    1    2    0    0  0.40435192097E+02 -0.86238927750E+02  0.18509410828E+03  0.24285741889E+03  0.12509092521E+03 0.  0.
          5    1    3    3  502    0  0.64370285565E+02 -0.22428133030E+02  0.32394723633E+02  0.75587335805E+02  0.41800000000E+01 0. -1.
         -5    1    3    3    0  502 -0.23935093467E+02 -0.63810794720E+02  0.15269938465E+03  0.16727008308E+03  0.41800000000E+01 0. -1.
        -11    1    1    2    0    0 -0.64720794897E+01  0.81845277070E+02  0.11759798173E+03  0.14342183411E+03  0.00000000000E+00 0.  1.
         11    1    1    2    0    0 -0.33963112608E+02  0.43936506801E+01  0.29464570489E+01  0.34372646006E+02  0.00000000000E+00 0. -1.
</event>
<event>
 7    1  0.2564986E-009  0.1465999E+03  0.7561462E-02  0.1204714E+00
          1   -1    0    0  501    0  0.00000000000E+00  0.00000000000E+00  0.18105258353E+03  0.18105258353E+03  0.00000000000E+00 0. -1.
         -1   -1    0    0    0  501 -0.00000000000E+00 -0.00000000000E+00 -0.24790904985E+03  0.24790904985E+03  0.00000000000E+00 0.  1.
         25    2    1    2    0    0  0.26659553250E+02 -0.13747635075E+03  0.81508658631E+02  0.20470024537E+03  0.12509216692E+03 0.  0.
          5    1    3    3  502    0  0.10979617276E+02 -0.41565780506E+02 -0.33069308217E+02  0.54399610757E+02  0.41800000000E+01 0. -1.
         -5    1    3    3    0  502  0.15679935973E+02 -0.95910570244E+02  0.11457796685E+03  0.15030063461E+03  0.41800000000E+01 0. -1.
        -11    1    1    2    0    0 -0.33571034493E+02  0.29966399636E+02 -0.92593439315E+02  0.10294923248E+03  0.00000000000E+00 0.  1.
         11    1    1    2    0    0  0.69114812437E+01  0.10750995111E+03 -0.55771685640E+02  0.12131215554E+03  0.00000000000E+00 0. -1.
</event>
<event>
 7    1  0.2564986E-009  0.1506929E+03  0.7561462E-02  0.1199624E+00
         -2   -1    0    0    0  501 -0.00000000000E+00  0.00000000000E+00  0.92699447985E+02  0.92699447985E+02  0.00000000000E+00 0.  1.
          2   -1    0    0  501    0  0.00000000000E+00 -0.00000000000E+00 -0.27872617477E+03  0.27872617477E+03  0.00000000000E+00 0. -1.
         25    2    1    2    0    0  0.65625624945E+02 -0.97062107671E+02 -0.77912324477E+02  0.18827320929E+03  0.12509474663E+03 0.  0.
          5    1    3    3  502    0 -0.36470266864E+02 -0.12796876382E+02 -0.20032367374E+02  0.43733380305E+02  0.41800000000E+01 0.  1.
         -5    1    3    3    0  502  0.10209589181E+03 -0.84265231289E+02 -0.57879957103E+02  0.14453982898E+03  0.41800000000E+01 0.  1.
        -11    1    1    2    0    0 -0.25593448641E+02  0.84221217677E+02 -0.11022347572E+03  0.14105833091E+03  0.00000000000E+00 0. -1.
         11    1    1    2    0    0 -0.40032176304E+02  0.12840889994E+02  0.21090734089E+01  0.42094082555E+02  0.00000000000E+00 0.  1.
</event>
<event>
 7    1  0.2564986E-009  0.1399524E+03  0.7561462E-02  0.1213393E+00
         -2   -1    0    0    0  501 -0.00000000000E+00  0.00000000000E+00  0.10146401351E+03  0.10146401351E+03  0.00000000000E+00 0.  1.
          2   -1    0    0  501    0  0.00000000000E+00 -0.00000000000E+00 -0.26555070809E+03  0.26555070809E+03  0.00000000000E+00 0. -1.
         25    2    1    2    0    0  0.68273181236E+02  0.70802343777E+02 -0.61250013573E+01  0.15924495952E+03  0.12508893768E+03 0.  0.
          5    1    3    3  502    0  0.99506357795E+02  0.39739577819E+02  0.18181840424E+02  0.10876029150E+03  0.41800000000E+01 0. -1.
         -5    1    3    3    0  502 -0.31233176559E+02  0.31062765958E+02 -0.24306841781E+02  0.50484668012E+02  0.41800000000E+01 0. -1.
        -11    1    1    2    0    0 -0.50902057709E+01 -0.64755601803E+02 -0.11175344750E+03  0.12925954970E+03  0.00000000000E+00 0. -1.
         11    1    1    2    0    0 -0.63182975465E+02 -0.60467419736E+01 -0.46208245719E+02  0.78510212390E+02  0.00000000000E+00 0.  1.
</event>
<event>
 7    1  0.2564986E-009  0.2149785E+03  0.7561462E-02  0.1137683E+00
         -2   -1    0    0    0  501 -0.00000000000E+00  0.00000000000E+00  0.47048103726E+02  0.47048103726E+02  0.00000000000E+00 0.  1.
          2   -1    0    0  501    0  0.00000000000E+00 -0.00000000000E+00 -0.10317624067E+04  0.10317624067E+04  0.00000000000E+00 0. -1.
         25    2    1    2    0    0 -0.10116182881E+03 -0.16054642290E+03 -0.45301184990E+03  0.50682902586E+03  0.12508819205E+03 0.  0.
          5    1    3    3  502    0  0.23520279123E+02 -0.18541810537E+02 -0.12159094328E+03  0.12529498057E+03  0.41800000000E+01 0.  1.
         -5    1    3    3    0  502 -0.12468210793E+03 -0.14200461236E+03 -0.33142090661E+03  0.38153404528E+03  0.41800000000E+01 0.  1.
        -11    1    1    2    0    0  0.11264629221E+03  0.10506128469E+03 -0.39802053135E+03  0.42678730542E+03  0.00000000000E+00 0.  1.
         11    1    1    2    0    0 -0.11484463401E+02  0.55485138206E+02 -0.13368192169E+03  0.14519417912E+03  0.00000000000E+00 0. -1.
</event>
<event>
 7    1  0.2564986E-009  0.1437433E+03  0.7561462E-02  0.1208379E+00
         -4   -1    0    0    0  501 -0.00000000000E+00  0.00000000000E+00  0.75454905311E+02  0.75454905311E+02  0.00000000000E+00 0. -1.
          4   -1    0    0  501    0  0.00000000000E+00 -0.00000000000E+00 -0.41279017075E+03  0.41279017075E+03  0.00000000000E+00 0.  1.
         25    2    1    2    0    0 -0.76016503445E+02  0.10835406821E+03 -0.12048335659E+03  0.21836523816E+03  0.12509206660E+03 0.  0.
          5    1    3    3  502    0 -0.55598485643E+01  0.43103601378E+02  0.20097650993E+02  0.48064751568E+02  0.41800000000E+01 0. -1.
         -5    1    3    3    0  502 -0.70456654881E+02  0.65250466827E+02 -0.14058100759E+03  0.17030048659E+03  0.41800000000E+01 0. -1.
        -11    1    1    2    0    0  0.39951581808E+02 -0.10396042263E+03 -0.10805362382E+03  0.15517565525E+03  0.00000000000E+00 0. -1.
         11    1    1    2    0    0  0.36064921637E+02 -0.43936455798E+01 -0.10879828502E+03  0.11470418265E+03  0.00000000000E+00 0.  1.
</event>
<event>
 7    1  0.2564986E-009  0.3642430E+03  0.7561462E-02  0.1056916E+00
         -1   -1    0    0    0  501 -0.00000000000E+00  0.00000000000E+00  0.71361230133E+02  0.71361230133E+02  0.00000000000E+00 0.  1.
          1   -1    0    0  501    0  0.00000000000E+00 -0.00000000000E+00 -0.20644891582E+04  0.20644891582E+04  0.00000000000E+00 0. -1.
         25    2    1    2    0    0 -0.16084253855E+03 -0.32109624171E+03 -0.79830070943E+03  0.88425300115E+03  0.12508488603E+03 0.  0.
          5    1    3    3  502    0 -0.14826121296E+03 -0.29729575461E+03 -0.78791162779E+03  0.85509552600E+03  0.41800000000E+01 0. -1.
         -5    1    3    3    0  502 -0.12581325590E+02 -0.23800487099E+02 -0.10389081644E+02  0.29157475151E+02  0.41800000000E+01 0. -1.
        -11    1    1    2    0    0  0.11742178411E+03  0.29694051243E+03 -0.96490947440E+03  0.10163718990E+04  0.00000000000E+00 0. -1.
         11    1    1    2    0    0  0.43420754446E+02  0.24155729274E+02 -0.22991774423E+03  0.23522548817E+03  0.00000000000E+00 0.  1.
</event>
<event>
 7    1  0.2564986E-009  0.8970712E+02  0.7561462E-02  0.1303562E+00
         -1   -1    0    0    0  501 -0.00000000000E+00  0.00000000000E+00  0.23132338680E+03  0.23132338680E+03  0.00000000000E+00 0.  1.
          1   -1    0    0  501    0  0.00000000000E+00 -0.00000000000E+00 -0.55928421083E+02  0.55928421083E+02  0.00000000000E+00 0. -1.
         25    2    1    2    0    0 -0.13675572336E+02  0.36277376529E+01  0.17428099065E+03  0.21499253448E+03  0.12509094460E+03 0.  0.
          5    1    3    3  502    0  0.41252406043E+02 -0.21427014813E+02  0.13501129913E+03  0.14285097571E+03  0.41800000000E+01 0.  1.
         -5    1    3    3    0  502 -0.54927978379E+02  0.25054752466E+02  0.39269691524E+02  0.72141558774E+02  0.41800000000E+01 0.  1.
        -11    1    1    2    0    0 -0.23358565379E+02 -0.20915464110E+02  0.14472004748E+01  0.31387475284E+02  0.00000000000E+00 0. -1.
         11    1    1    2    0    0  0.37034137715E+02  0.17287726457E+02 -0.33322540902E+00  0.40871798119E+02  0.00000000000E+00 0.  1.
</event>
<event>
 7    1  0.2564986E-009  0.8938366E+02  0.7561462E-02  0.1304351E+00
          1   -1    0    0  501    0  0.00000000000E+00  0.00000000000E+00  0.89342659540E+02  0.89342659540E+02  0.00000000000E+00 0. -1.
         -1   -1    0    0    0  501 -0.00000000000E+00 -0.00000000000E+00 -0.17796318735E+03  0.17796318735E+03  0.00000000000E+00 0.  1.
         25    2    1    2    0    0  0.29422821070E+02  0.55148678145E+02 -0.64403213764E+02  0.15395224258E+03  0.12508573041E+03 0.  0.
          5    1    3    3  502    0  0.93683151018E+01  0.49652387213E+02 -0.10022656416E+03  0.11232079704E+03  0.41800000000E+01 0.  1.
         -5    1    3    3    0  502  0.20054505969E+02  0.54962909318E+01  0.35823350400E+02  0.41631445538E+02  0.41800000000E+01 0.  1.
        -11    1    1    2    0    0 -0.15166399918E+02 -0.78252084845E+02 -0.45647191984E+01  0.79838869796E+02  0.00000000000E+00 0.  1.
         11    1    1    2    0    0 -0.14256421153E+02  0.23103406700E+02 -0.19652594843E+02  0.33514734510E+02  0.00000000000E+00 0. -1.
</event>
<event>
 7    1  0.2564986E-009  0.9758542E+02  0.7561462E-02  0.1285457E+00
          2   -1    0    0  501    0  0.00000000000E+00  0.00000000000E+00  0.25316381076E+03  0.25316381076E+03  0.00000000000E+00 0. -1.
         -2   -1    0    0    0  501 -0.00000000000E+00 -0.00000000000E+00 -0.79667077003E+02  0.79667077003E+02  0.00000000000E+00 0.  1.
         25    2    1    2    0    0 -0.37255565080E+02  0.65325872321E+02  0.15300273767E+03  0.21145242364E+03  0.12508734151E+03 0.  0.
          5    1    3    3  502    0  0.60396193050E+01  0.48118739100E+01  0.13434008537E+03  0.13462675095E+03  0.41800000000E+01 0.  1.
         -5    1    3    3    0  502 -0.43295184385E+02  0.60513998411E+02  0.18662652299E+02  0.76825672698E+02  0.41800000000E+01 0.  1.
        -11    1    1    2    0    0  0.59764977802E+02 -0.23213469505E+02  0.32870523722E+02  0.72049906786E+02  0.00000000000E+00 0. -1.
         11    1    1    2    0    0 -0.22509412722E+02 -0.42112402816E+02 -0.12376527640E+02  0.49328557332E+02  0.00000000000E+00 0.  1.
</event>
<event>
 7    1  0.2564986E-009  0.1178422E+03  0.7561462E-02  0.1246700E+00
         -2   -1    0    0    0  501 -0.00000000000E+00  0.00000000000E+00  0.41103637453E+02  0.41103637453E+02  0.00000000000E+00 0.  1.
          2   -1    0    0  501    0  0.00000000000E+00 -0.00000000000E+00 -0.53058337877E+03  0.53058337877E+03  0.00000000000E+00 0. -1.
         25    2    1    2    0    0 -0.13012780616E+02  0.89701959924E+02 -0.18430263813E+03  0.24048888269E+03  0.12510661934E+03 0.  0.
          5    1    3    3  502    0 -0.11841153953E+02  0.97770555858E+02 -0.19962490028E+03  0.22263617795E+03  0.41800000000E+01 0. -1.
         -5    1    3    3    0  502 -0.11716266629E+01 -0.80685959342E+01  0.15322262147E+02  0.17852704745E+02  0.41800000000E+01 0. -1.
        -11    1    1    2    0    0  0.51465242800E+02 -0.40422134086E+02 -0.17370453975E+03  0.18562297075E+03  0.00000000000E+00 0. -1.
         11    1    1    2    0    0 -0.38452462184E+02 -0.49279825838E+02 -0.13147256344E+03  0.14557516279E+03  0.00000000000E+00 0.  1.
</event>
<event>
 7    1  0.2564986E-009  0.7800225E+02  0.7561462E-02  0.1334818E+00
          1   -1    0    0  501    0  0.00000000000E+00  0.00000000000E+00  0.19420811234E+03  0.19420811234E+03  0.00000000000E+00 0. -1.
         -1   -1    0    0    0  501 -0.00000000000E+00 -0.00000000000E+00 -0.94031300195E+02  0.94031300195E+02  0.00000000000E+00 0.  1.
         25    2    1    2    0    0  0.15341649289E+02 -0.15431435757E+02 -0.27767517880E+02  0.12996603114E+03  0.12508652521E+03 0.  0.
          5    1    3    3  502    0  0.30701252959E+02 -0.28843678899E+02 -0.70614187868E+02  0.82330800275E+02  0.41800000000E+01 0. -1.
         -5    1    3    3    0  502 -0.15359603671E+02  0.13412243142E+02  0.42846669987E+02  0.47635230870E+02  0.41800000000E+01 0. -1.
        -11    1    1    2    0    0 -0.28140423932E+02  0.49236265473E+02  0.84367225314E+02  0.10165590000E+03  0.00000000000E+00 0.  1.
         11    1    1    2    0    0  0.12798774643E+02 -0.33804829717E+02  0.43577104713E+02  0.56617481397E+02  0.00000000000E+00 0. -1.
</event>
<event>
 7    1  0.2564986E-009  0.8892617E+02  0.7561462E-02  0.1305473E+00
          4   -1    0    0  501    0  0.00000000000E+00  0.00000000000E+00  0.58061845809E+02  0.58061845809E+02  0.00000000000E+00 0.  1.
         -4   -1    0    0    0  501 -0.00000000000E+00 -0.00000000000E+00 -0.26043813565E+03  0.26043813565E+03  0.00000000000E+00 0. -1.
         25    2    1    2    0    0 -0.46115246611E+02 -0.29866062954E+02 -0.11851390064E+03  0.18086311060E+03  0.12508925792E+03 0.  0.
          5    1    3    3  502    0 -0.59875544193E+00  0.10151690504E+02  0.23749675143E+02  0.26171258998E+02  0.41800000000E+01 0. -1.
         -5    1    3    3    0  502 -0.45516491169E+02 -0.40017753458E+02 -0.14226357578E+03  0.15469185161E+03  0.41800000000E+01 0. -1.
        -11    1    1    2    0    0 -0.27834147090E+02  0.69622899454E+01 -0.93198682133E+01  0.30167418998E+02  0.00000000000E+00 0.  1.
         11    1    1    2    0    0  0.73949393701E+02  0.22903773009E+02 -0.74542520995E+02  0.10746945186E+03  0.00000000000E+00 0. -1.
</event>
<event>
 7    1  0.2564986E-009  0.6854512E+02  0.7561462E-02  0.1365111E+00
         -1   -1    0    0    0  501 -0.00000000000E+00  0.00000000000E+00  0.22439183354E+03  0.22439183354E+03  0.00000000000E+00 0.  1.
          1   -1    0    0  501    0  0.00000000000E+00 -0.00000000000E+00 -0.69260676150E+02  0.69260676150E+02  0.00000000000E+00 0. -1.
         25    2    1    2    0    0 -0.22361554763E+02  0.30155939042E+02  0.30081933271E+02  0.13402406420E+03  0.12509239499E+03 0.  0.
          5    1    3    3  502    0 -0.19005270741E+02 -0.14882960022E+02 -0.42138225343E+02  0.48742232715E+02  0.41800000000E+01 0. -1.
         -5    1    3    3    0  502 -0.33562840217E+01  0.45038899064E+02  0.72220158614E+02  0.85281831486E+02  0.41800000000E+01 0. -1.
        -11    1    1    2    0    0  0.45492114939E+01 -0.44273412101E+02  0.12908703855E+03  0.13654410959E+03  0.00000000000E+00 0.  1.
         11    1    1    2    0    0  0.17812343269E+02  0.14117473059E+02 -0.40378144291E+01  0.23084335894E+02  0.00000000000E+00 0. -1.
</event>
<event>
 7    1  0.2564986E-009  0.1024228E+03  0.7561462E-02  0.1275282E+00
          2   -1    0    0  501    0  0.00000000000E+00  0.00000000000E+00  0.29493334974E+03  0.29493334974E+03  0.00000000000E+00 0.  1.
         -2   -1    0    0    0  501 -0.00000000000E+00 -0.00000000000E+00 -0.58405927485E+02  0.58405927485E+02  0.00000000000E+00 0. -1.
         25    2    1    2    0    0  0.27597635926E+01  0.58087641527E+02  0.18731162814E+03  0.23262469753E+03  0.12508722347E+03 0.  0.
          5    1    3    3  502    0 -0.30248672329E+02 -0.12561126466E+02  0.13415419129E+03  0.13815782105E+03  0.41800000000E+01 0.  1.
         -5    1    3    3    0  502  0.33008435922E+02  0.70648767993E+02  0.53157436841E+02  0.94466876483E+02  0.41800000000E+01 0.  1.
        -11    1    1    2    0    0  0.33923144101E+02 -0.14843920668E+02  0.52118898798E+02  0.63933569417E+02  0.00000000000E+00 0.  1.
         11    1    1    2    0    0 -0.36682907693E+02 -0.43243720859E+02 -0.29031046828E+01  0.56781010271E+02  0.00000000000E+00 0. -1.
</event>
<event>
 7    1  0.2564986E-009  0.1245348E+03  0.7561462E-02  0.1235798E+00
          2   -1    0    0  501    0  0.00000000000E+00  0.00000000000E+00  0.11606108998E+04  0.11606108998E+04  0.00000000000E+00 0.  1.
         -2   -1    0    0    0  501 -0.00000000000E+00 -0.00000000000E+00 -0.19782030571E+02  0.19782030571E+02  0.00000000000E+00 0. -1.
         25    2    1    2    0    0 -0.10481807796E+03  0.12531689476E+01  0.62646411487E+03  0.64737416532E+03  0.12509045851E+03 0.  0.
          5    1    3    3  502    0 -0.42777584644E+02 -0.14117473527E+02  0.50265565275E+02  0.67626357725E+02  0.41800000000E+01 0.  1.
         -5    1    3    3    0  502 -0.62040493315E+02  0.15370642475E+02  0.57619854959E+03  0.57974780760E+03  0.41800000000E+01 0.  1.
        -11    1    1    2    0    0 -0.16689052860E+02  0.67579740663E+01  0.65380971406E+02  0.67814940248E+02  0.00000000000E+00 0. -1.
         11    1    1    2    0    0  0.12150713082E+03 -0.80111430138E+01  0.44898378292E+03  0.46520382476E+03  0.00000000000E+00 0.  1.
</event>
<event>
 7    1  0.2564986E-009  0.1336205E+03  0.7561462E-02  0.1222180E+00
         -1   -1    0    0    0  501 -0.00000000000E+00  0.00000000000E+00  0.48875317665E+02  0.48875317665E+02  0.00000000000E+00 0.  1.
          1   -1    0    0  501    0  0.00000000000E+00 -0.00000000000E+00 -0.46811431798E+03  0.46811431798E+03  0.00000000000E+00 0. -1.
         25    2    1    2    0    0  0.73000410766E+02  0.69260364918E+02 -0.16316386651E+03  0.22890281603E+03  0.12509194111E+03 0.  0.
          5    1    3    3  502    0  0.84293471742E+02  0.91248431619E+02 -0.95506541544E+02  0.15675023933E+03  0.41800000000E+01 0. -1.
         -5    1    3    3    0  502 -0.11293060976E+02 -0.21988066701E+02 -0.67657324969E+02  0.72152576706E+02  0.41800000000E+01 0. -1.
        -11    1    1    2    0    0 -0.48494574176E+02 -0.45806588338E+01 -0.17432412816E+03  0.18100167904E+03  0.00000000000E+00 0. -1.
         11    1    1    2    0    0 -0.24505836590E+02 -0.64679706084E+02 -0.81751005649E+02  0.10708514057E+03  0.00000000000E+00 0.  1.
</event>
<event>
 7    1  0.2564986E-009  0.9369818E+02  0.7561462E-02  0.1294135E+00
         -1   -1    0    0    0  501 -0.00000000000E+00  0.00000000000E+00  0.81051676577E+02  0.81051676577E+02  0.00000000000E+00 0.  1.
          1   -1    0    0  501    0  0.00000000000E+00 -0.00000000000E+00 -0.17524631421E+03  0.17524631421E+03  0.00000000000E+00 0. -1.
         25    2    1    2    0    0  0.67861898074E+01  0.46540199267E+02 -0.65264433541E+02  0.14872545164E+03  0.12509105148E+03 0.  0.
          5    1    3    3  502    0  0.49863577350E+02 -0.11617964615E+02 -0.55418907563E+02  0.75565078994E+02  0.41800000000E+01 0.  1.
         -5    1    3    3    0  502 -0.43077387543E+02  0.58158163882E+02 -0.98455259787E+01  0.73160372644E+02  0.41800000000E+01 0.  1.
        -11    1    1    2    0    0  0.17703514729E+02 -0.12823554343E+02  0.28934736882E+02  0.36263990102E+02  0.00000000000E+00 0.  1.
         11    1    1    2    0    0 -0.24489704536E+02 -0.33716644924E+02 -0.57864940971E+02  0.71308549044E+02  0.00000000000E+00 0. -1.
</event>
<event>
 7    1  0.2564986E-009  0.7793194E+02  0.7561462E-02  0.1335025E+00
          2   -1    0    0  501    0  0.00000000000E+00  0.00000000000E+00  0.32437630434E+03  0.32437630434E+03  0.00000000000E+00 0. -1.
         -2   -1    0    0    0  501 -0.00000000000E+00 -0.00000000000E+00 -0.54434864737E+02  0.54434864737E+02  0.00000000000E+00 0.  1.
         25    2    1    2    0    0 -0.75875937964E+02  0.82245164206E+01  0.15599165872E+03  0.21402358741E+03  0.12509155745E+03 0.  0.
          5    1    3    3  502    0 -0.59667120355E+02 -0.12396637895E+01  0.17622915087E+03  0.18610719501E+03  0.41800000000E+01 0.  1.
         -5    1    3    3    0  502 -0.16208817610E+02  0.94641802100E+01 -0.20237492159E+02  0.27916392393E+02  0.41800000000E+01 0.  1.
        -11    1    1    2    0    0  0.92530063166E+01 -0.39118846493E+01 -0.15884077735E+02  0.18794278196E+02  0.00000000000E+00 0.  1.
         11    1    1    2    0    0  0.66622931648E+02 -0.43126317713E+01  0.12983385862E+03  0.14599330347E+03  0.00000000000E+00 0. -1.
</event>
<event>
 7    1  0.2564986E-009  0.1847450E+03  0.7561462E-02  0.1163288E+00
         -2   -1    0    0    0  501 -0.00000000000E+00  0.00000000000E+00  0.56460071927E+02  0.56460071927E+02  0.00000000000E+00 0.  1.
          2   -1    0    0  501    0  0.00000000000E+00 -0.00000000000E+00 -0.72052283810E+03  0.72052283810E+03  0.00000000000E+00 0. -1.
         25    2    1    2    0    0  0.13972437787E+03 -0.65925021724E+02 -0.48370463591E+03  0.52295901921E+03  0.12508777205E+03 0.  0.
          5    1    3    3  502    0  0.15435033705E+03 -0.27239561114E+02 -0.36778992184E+03  0.39981610678E+03  0.41800000000E+01 0. -1.
         -5    1    3    3    0  502 -0.14625959175E+02 -0.38685460610E+02 -0.11591471407E+03  0.12314291243E+03  0.41800000000E+01 0. -1.
        -11    1    1    2    0    0 -0.12747035500E+03  0.26968766773E+02 -0.16535040949E+03  0.21051547141E+03  0.00000000000E+00 0.  1.
         11    1    1    2    0    0 -0.12254022876E+02  0.38956254951E+02 -0.15007720781E+02  0.43508419409E+02  0.00000000000E+00 0. -1.
</event>
<event>
 7    1  0.2564986E-009  0.1608851E+03  0.7561462E-02  0.1187701E+00
         -2   -1    0    0    0  501 -0.00000000000E+00  0.00000000000E+00  0.20842514252E+02  0.20842514252E+02  0.00000000000E+00 0.  1.
          2   -1    0    0  501    0  0.00000000000E+00 -0.00000000000E+00 -0.17201391520E+04  0.17201391520E+04  0.00000000000E+00 0. -1.
         25    2    1    2    0    0  0.13532199937E+03 -0.28701216208E+02 -0.12188279398E+04  0.12330149339E+04  0.12509387346E+03 0.  0.
          5    1    3    3  502    0 -0.15334636289E+02 -0.10501642160E+02 -0.38404520741E+02  0.42869746576E+02  0.41800000000E+01 0.  1.
         -5    1    3    3    0  502  0.15065663566E+03 -0.18199574048E+02 -0.11804234190E+04  0.11901451873E+04  0.41800000000E+01 0.  1.
        -11    1    1    2    0    0 -0.35828304838E+02 -0.19020383908E+02 -0.54508042710E+02  0.67945339440E+02  0.00000000000E+00 0.  1.
         11    1    1    2    0    0 -0.99493694531E+02  0.47721600116E+02 -0.42596065532E+03  0.44002139295E+03  0.00000000000E+00 0. -1.
</event>
<event>
 7    1  0.2564986E-009  0.1296223E+03  0.7561462E-02  0.1228017E+00
         -2   -1    0    0    0  501 -0.00000000000E+00  0.00000000000E+00  0.20787189734E+03  0.20787189734E+03  0.00000000000E+00 0.  1.
          2   -1    0    0  501    0  0.00000000000E+00 -0.00000000000E+00 -0.89695742083E+02  0.89695742083E+02  0.00000000000E+00 0. -1.
         25    2    1    2    0    0  0.79426800266E+01 -0.71054817751E+02  0.19618033289E+02  0.14541023279E+03  0.12508954903E+03 0.  0.
          5    1    3    3  502    0  0.59119129478E+02 -0.38491506522E+01  0.52590550080E+01  0.59623967417E+02  0.41800000000E+01 0.  1.
         -5    1    3    3    0  502 -0.51176449451E+02 -0.67205667099E+02  0.14358978281E+02  0.85786265369E+02  0.41800000000E+01 0.  1.
        -11    1    1    2    0    0 -0.41244645679E+02  0.53180601868E+01  0.43415315964E+02  0.60118983871E+02  0.00000000000E+00 0.  1.
         11    1    1    2    0    0  0.33301965653E+02  0.65736757565E+02  0.55142806006E+02  0.92038422768E+02  0.00000000000E+00 0. -1.
</event>
<event>
 7    1  0.2784728E-009  0.1252234E+03  0.7561462E-02  0.1234721E+00
          2   -1    0    0  501    0  0.00000000000E+00  0.00000000000E+00  0.49660623282E+03  0.49660623282E+03  0.00000000000E+00 0. -1.
         -2   -1    0    0    0  501 -0.00000000000E+00 -0.00000000000E+00 -0.35487481409E+02  0.35487481409E+02  0.00000000000E+00 0.  1.
         25    2    1    2    0    0 -0.30167546890E+02 -0.68968786639E+02  0.27808830387E+03  0.31408184511E+03  0.12509007261E+03 0.  0.
          5    1    3    3  502    0  0.17123808634E+02 -0.88292454528E+02  0.21289941055E+03  0.23115452355E+03  0.41800000000E+01 0. -1.
         -5    1    3    3    0  502 -0.47291355524E+02  0.19323667889E+02  0.65188893319E+02  0.82927321554E+02  0.41800000000E+01 0. -1.
        -11    1    1    2    0    0  0.19658178682E+02 -0.14876744435E+02  0.12382050798E+02  0.27587618528E+02  0.00000000000E+00 0.  1.
         11    1    1    2    0    0  0.10509368208E+02  0.83845531073E+02  0.17064839675E+03  0.19042425059E+03  0.00000000000E+00 0. -1.
</event>
<event>
 7    1  0.2564986E-009  0.1105584E+03  0.7561462E-02  0.1259539E+00
         -1   -1    0    0    0  501 -0.00000000000E+00  0.00000000000E+00  0.21400128909E+02  0.21400128909E+02  0.00000000000E+00 0.  1.
          1   -1    0    0  501    0  0.00000000000E+00 -0.00000000000E+00 -0.25141423558E+04  0.25141423558E+04  0.00000000000E+00 0. -1.
         25    2    1    2    0    0  0.19474474284E+02  0.82597516643E+02 -0.23074525784E+04  0.23123984070E+04  0.12508951212E+03 0.  0.
          5    1    3    3  502    0  0.28347109036E+02  0.90025361486E+02 -0.22836568248E+04  0.22856102227E+04  0.41800000000E+01 0.  1.
         -5    1    3    3    0  502 -0.88726347521E+01 -0.74278448427E+01 -0.23795753674E+02  0.26788184323E+02  0.41800000000E+01 0.  1.
        -11    1    1    2    0    0 -0.19534416777E+02 -0.97498979709E+02 -0.11840790485E+03  0.15462236712E+03  0.00000000000E+00 0.  1.
         11    1    1    2    0    0  0.59942493545E-01  0.14901463066E+02 -0.66881743577E+02  0.68521710563E+02  0.00000000000E+00 0. -1.
</event>
<event>
 7    1  0.2564986E-009  0.1968393E+03  0.7561462E-02  0.1152433E+00
          2   -1    0    0  501    0  0.00000000000E+00  0.00000000000E+00  0.18213525136E+04  0.18213525136E+04  0.00000000000E+00 0. -1.
         -2   -1    0    0    0  501 -0.00000000000E+00 -0.00000000000E+00 -0.27994335332E+02  0.27994335332E+02  0.00000000000E+00 0.  1.
         25    2    1    2    0    0 -0.55857647132E+02  0.16756861236E+03  0.12752852785E+04  0.12935220975E+04  0.12509020206E+03 0.  0.
          5    1    3    3  502    0  0.38778042124E+02  0.53437646211E+02  0.47817386685E+03  0.48272874156E+03  0.41800000000E+01 0. -1.
         -5    1    3    3    0  502 -0.94635689256E+02  0.11413096614E+03  0.79711141162E+03  0.81079335594E+03  0.41800000000E+01 0. -1.
        -11    1    1    2    0    0  0.60911142154E+01 -0.64058263436E+02  0.32387843779E+03  0.33020872982E+03  0.00000000000E+00 0. -1.
         11    1    1    2    0    0  0.49766532917E+02 -0.10351034892E+03  0.19419446202E+03  0.22561602162E+03  0.00000000000E+00 0.  1.
</event>
<event>
 7    1  0.2564986E-009  0.9024183E+02  0.7561462E-02  0.1302267E+00
         -2   -1    0    0    0  501 -0.00000000000E+00  0.00000000000E+00  0.37073894148E+02  0.37073894148E+02  0.00000000000E+00 0. -1.
          2   -1    0    0  501    0  0.00000000000E+00 -0.00000000000E+00 -0.88767107462E+03  0.88767107462E+03  0.00000000000E+00 0.  1.
         25    2    1    2    0    0  0.19746460999E+01 -0.11856696825E+02 -0.81365936686E+03  0.82330660607E+03  0.12509085436E+03 0.  0.
          5    1    3    3  502    0 -0.36322231293E+02 -0.37640192814E+02 -0.67636448753E+03  0.67839699365E+03  0.41800000000E+01 0.  1.
         -5    1    3    3    0  502  0.38296877392E+02  0.25783495989E+02 -0.13729487933E+03  0.14490961242E+03  0.41800000000E+01 0.  1.
        -11    1    1    2    0    0  0.16111673095E+02  0.42844150199E+02 -0.45511782244E+02  0.64548660244E+02  0.00000000000E+00 0.  1.
         11    1    1    2    0    0 -0.18086319195E+02 -0.30987453375E+02  0.85739686306E+01  0.36889702449E+02  0.00000000000E+00 0. -1.
</event>
<event>
 7    1  0.2564986E-009  0.2163044E+03  0.7561462E-02  0.1136669E+00
         -1   -1    0    0    0  501 -0.00000000000E+00  0.00000000000E+00  0.48608083260E+03  0.48608083260E+03  0.00000000000E+00 0.  1.
          1   -1    0    0  501    0  0.00000000000E+00 -0.00000000000E+00 -0.99773464582E+02  0.99773464582E+02  0.00000000000E+00 0. -1.
         25    2    1    2    0    0 -0.41407247043E+02  0.18579048637E+03  0.17476330388E+03  0.28709356428E+03  0.12509131597E+03 0.  0.
          5    1    3    3  502    0 -0.42005465942E+02  0.20288055876E+03  0.14644345184E+03  0.25374817690E+03  0.41800000000E+01 0.  1.
         -5    1    3    3    0  502  0.59821889836E+00 -0.17090072385E+02  0.28319852039E+02  0.33345387380E+02  0.41800000000E+01 0.  1.
        -11    1    1    2    0    0  0.66726344930E+02 -0.14728794752E+03  0.18450189620E+03  0.24533058165E+03  0.00000000000E+00 0.  1.
         11    1    1    2    0    0 -0.25319097887E+02 -0.38502538853E+02  0.27042167940E+02  0.53430151252E+02  0.00000000000E+00 0. -1.
</event>
<event>
 7    1  0.2564986E-009  0.1311181E+03  0.7561462E-02  0.1225806E+00
          2   -1    0    0  501    0  0.00000000000E+00  0.00000000000E+00  0.35511616538E+02  0.35511616538E+02  0.00000000000E+00 0. -1.
         -2   -1    0    0    0  501 -0.00000000000E+00 -0.00000000000E+00 -0.62115060749E+03  0.62115060749E+03  0.00000000000E+00 0.  1.
         25    2    1    2    0    0 -0.79959370537E+02  0.46556810981E+02 -0.40145968182E+03  0.43055664559E+03  0.12509241124E+03 0.  0.
          5    1    3    3  502    0 -0.89694212369E+02  0.80097178035E+02 -0.31678522741E+03  0.33886717511E+03  0.41800000000E+01 0. -1.
         -5    1    3    3    0  502  0.97348418324E+01 -0.33540367054E+02 -0.84674454406E+02  0.91689470478E+02  0.41800000000E+01 0. -1.
        -11    1    1    2    0    0  0.69210381417E+02 -0.11613159116E+02 -0.17480114897E+03  0.18836237428E+03  0.00000000000E+00 0.  1.
         11    1    1    2    0    0  0.10748989120E+02 -0.34943651864E+02 -0.93781601662E+01  0.37743204167E+02  0.00000000000E+00 0. -1.
</event>
<event>
 7    1  0.2564986E-009  0.9560781E+02  0.7561462E-02  0.1289813E+00
         -1   -1    0    0    0  501 -0.00000000000E+00  0.00000000000E+00  0.59662756590E+02  0.59662756590E+02  0.00000000000E+00 0.  1.
          1   -1    0    0  501    0  0.00000000000E+00 -0.00000000000E+00 -0.22532383363E+03  0.22532383363E+03  0.00000000000E+00 0. -1.
         25    2    1    2    0    0 -0.29623153046E+02 -0.27750648560E+02 -0.12052514422E+03  0.17838670536E+03  0.12509147280E+03 0.  0.
          5    1    3    3  502    0 -0.48856097018E+02 -0.51660965256E+02 -0.12804095497E+03  0.14651870903E+03  0.41800000000E+01 0. -1.
         -5    1    3    3    0  502  0.19232943972E+02  0.23910316696E+02  0.75158107539E+01  0.31867996323E+02  0.41800000000E+01 0. -1.
        -11    1    1    2    0    0  0.20796387764E+02  0.55834400447E+02 -0.94299286529E+01  0.60323242384E+02  0.00000000000E+00 0.  1.
         11    1    1    2    0    0  0.88267652820E+01 -0.28083751887E+02 -0.35706004168E+02  0.46276642478E+02  0.00000000000E+00 0. -1.
</event>
<event>
 7    1  0.2564986E-009  0.1514904E+03  0.7561462E-02  0.1198653E+00
         -1   -1    0    0    0  501 -0.00000000000E+00  0.00000000000E+00  0.11538382049E+03  0.11538382049E+03  0.00000000000E+00 0.  1.
          1   -1    0    0  501    0  0.00000000000E+00 -0.00000000000E+00 -0.29711017548E+03  0.29711017548E+03  0.00000000000E+00 0. -1.
         25    2    1    2    0    0 -0.22865597265E+02  0.13139056179E+03 -0.16690298327E+03  0.24756901151E+03  0.12508994512E+03 0.  0.
          5    1    3    3  502    0  0.14056762009E+02  0.21097812288E+02  0.16369388391E+02  0.30465382286E+02  0.41800000000E+01 0.  1.
         -5    1    3    3    0  502 -0.36922359274E+02  0.11029274950E+03 -0.18327237166E+03  0.21710362922E+03  0.41800000000E+01 0.  1.
        -11    1    1    2    0    0  0.55878023036E+02 -0.58573286184E+02 -0.24036354612E+02  0.84444832025E+02  0.00000000000E+00 0. -1.
         11    1    1    2    0    0 -0.33012425770E+02 -0.72817275602E+02  0.92129828959E+01  0.80480152430E+02  0.00000000000E+00 0.  1.
</event>
<event>
 7    1  0.2564986E-009  0.8599539E+02  0.7561462E-02  0.1312850E+00
         -2   -1    0    0    0  501 -0.00000000000E+00  0.00000000000E+00  0.56890168496E+02  0.56890168496E+02  0.00000000000E+00 0.  1.
          2   -1    0    0  501    0  0.00000000000E+00 -0.00000000000E+00 -0.22573902450E+03  0.22573902450E+03  0.00000000000E+00 0. -1.
         25    2    1    2    0    0 -0.28465641308E+02 -0.21457015813E+01 -0.72359154678E+02  0.14730526022E+03  0.12509234850E+03 0.  0.
          5    1    3    3  502    0  0.14622451193E+01  0.56027829539E+02 -0.10504392393E+02  0.57175785987E+02  0.41800000000E+01 0. -1.
         -5    1    3    3    0  502 -0.29927886427E+02 -0.58173531121E+02 -0.61854762285E+02  0.90129474237E+02  0.41800000000E+01 0. -1.
        -11    1    1    2    0    0  0.93786548120E+00  0.18295090242E+02  0.12223513320E+02  0.22022810822E+02  0.00000000000E+00 0.  1.
         11    1    1    2    0    0  0.27527775826E+02 -0.16149388661E+02 -0.10871321465E+03  0.11330112195E+03  0.00000000000E+00 0. -1.
</event>
<event>
 7    1  0.2564986E-009  0.1220018E+03  0.7561462E-02  0.1239831E+00
          1   -1    0    0  501    0  0.00000000000E+00  0.00000000000E+00  0.15434894003E+03  0.15434894003E+03  0.00000000000E+00 0. -1.
         -1   -1    0    0    0  501 -0.00000000000E+00 -0.00000000000E+00 -0.12964208099E+03  0.12964208099E+03  0.00000000000E+00 0.  1.
         25    2    1    2    0    0  0.75400620881E+02 -0.47102017913E+02 -0.23344957020E+01  0.15348123675E+03  0.12508871429E+03 0.  0.
          5    1    3    3  502    0  0.92015816727E+02 -0.76210252708E+02 -0.45033306859E+01  0.11963555296E+03  0.41800000000E+01 0. -1.
         -5    1    3    3    0  502 -0.16615195845E+02  0.29108234795E+02  0.21688349839E+01  0.33845683787E+02  0.41800000000E+01 0. -1.
        -11    1    1    2    0    0 -0.16005974358E+02  0.19368179279E+02  0.54056431195E+02  0.59610530422E+02  0.00000000000E+00 0. -1.
         11    1    1    2    0    0 -0.59394646523E+02  0.27733838635E+02 -0.27015076453E+02  0.70899253852E+02  0.00000000000E+00 0.  1.
</event>
<event>
 7    1  0.2564986E-009  0.1233710E+03  0.7561462E-02  0.1237637E+00
         -3   -1    0    0    0  501 -0.00000000000E+00  0.00000000000E+00  0.17373809088E+02  0.17373809088E+02  0.00000000000E+00 0. -1.
          3   -1    0    0  501    0  0.00000000000E+00 -0.00000000000E+00 -0.10456107247E+04  0.10456107247E+04  0.00000000000E+00 0.  1.
         25    2    1    2    0    0  0.70949319968E+02  0.15499217093E+01 -0.71757119189E+03  0.73184178204E+03  0.12509104779E+03 0.  0.
          5    1    3    3  502    0  0.47997511665E+02 -0.56701163403E+02 -0.27678368276E+03  0.28661029726E+03  0.41800000000E+01 0. -1.
         -5    1    3    3    0  502  0.22951808302E+02  0.58251085112E+02 -0.44078750914E+03  0.44523148477E+03  0.41800000000E+01 0. -1.
        -11    1    1    2    0    0 -0.98375881985E+01  0.36362910264E+02 -0.64580178507E+02  0.74763887275E+02  0.00000000000E+00 0.  1.
         11    1    1    2    0    0 -0.61111731769E+02 -0.37912831973E+02 -0.24608554518E+03  0.25637886445E+03  0.00000000000E+00 0. -1.
</event>
<event>
 7    1  0.2564986E-009  0.1039438E+03  0.7561462E-02  0.1272215E+00
         -1   -1    0    0    0  501 -0.00000000000E+00  0.00000000000E+00  0.83770927566E+02  0.83770927566E+02  0.00000000000E+00 0.  1.
          1   -1    0    0  501    0  0.00000000000E+00 -0.00000000000E+00 -0.16563607065E+03  0.16563607065E+03  0.00000000000E+00 0. -1.
         25    2    1    2    0    0  0.25865043744E+02  0.28999479772E+02 -0.16362568956E+01  0.13101170336E+03  0.12510563043E+03 0.  0.
          5    1    3    3  502    0  0.75031131060E+02  0.74740414982E+01  0.92662503593E+01  0.76084608957E+02  0.41800000000E+01 0.  1.
         -5    1    3    3    0  502 -0.49166087316E+02  0.21525438274E+02 -0.10902507255E+02  0.54927094400E+02  0.41800000000E+01 0.  1.
        -11    1    1    2    0    0  0.11022243943E+02 -0.38827069899E+02 -0.15474085502E+02  0.43225901270E+02  0.00000000000E+00 0.  1.
         11    1    1    2    0    0 -0.36887287687E+02  0.98275901267E+01 -0.64754800686E+02  0.75169393588E+02  0.00000000000E+00 0. -1.
</event>
<event>
 7    1  0.2564986E-009  0.1393947E+03  0.7561462E-02  0.1214146E+00
         -1   -1    0    0    0  501 -0.00000000000E+00  0.00000000000E+00  0.93226334597E+02  0.93226334597E+02  0.00000000000E+00 0.  1.
          1   -1    0    0  501    0  0.00000000000E+00 -0.00000000000E+00 -0.44705288780E+03  0.44705288780E+03  0.00000000000E+00 0. -1.
         25    2    1    2    0    0 -0.10920313200E+03 -0.19816956022E+02 -0.35579647619E+03  0.39313632993E+03  0.12508799166E+03 0.  0.
          5    1    3    3  502    0 -0.95481827261E+02  0.21833031292E+02 -0.32480096676E+03  0.33927363735E+03  0.41800000000E+01 0.  1.
         -5    1    3    3    0  502 -0.13721304740E+02 -0.41649987313E+02 -0.30995509425E+02  0.53862692576E+02  0.41800000000E+01 0.  1.
        -11    1    1    2    0    0  0.19274358945E+02 -0.28661859452E+02 -0.23594500302E+02  0.41829457856E+02  0.00000000000E+00 0. -1.
         11    1    1    2    0    0  0.89928773056E+02  0.48478815473E+02  0.25564423283E+02  0.10531343462E+03  0.00000000000E+00 0.  1.
</event>
<event>
 7    1  0.2564986E-009  0.3430696E+03  0.7561462E-02  0.1065496E+00
         -2   -1    0    0    0  501 -0.00000000000E+00  0.00000000000E+00  0.22468633900E+03  0.22468633900E+03  0.00000000000E+00 0.  1.
          2   -1    0    0  501    0  0.00000000000E+00 -0.00000000000E+00 -0.66103050125E+03  0.66103050125E+03  0.00000000000E+00 0. -1.
         25    2    1    2    0    0 -0.29237304629E+03 -0.17298319711E+03 -0.53569868323E+02  0.36595369243E+03  0.12508872664E+03 0.  0.
          5    1    3    3  502    0 -0.21284024651E+03 -0.14026686644E+03 -0.92845631937E+02  0.27131816770E+03  0.41800000000E+01 0.  1.
         -5    1    3    3    0  502 -0.79532799780E+02 -0.32716330664E+02  0.39275763614E+02  0.94635524727E+02  0.41800000000E+01 0.  1.
        -11    1    1    2    0    0  0.45892687290E+02  0.55608714311E+02 -0.12494889994E+03  0.14425912606E+03  0.00000000000E+00 0. -1.
         11    1    1    2    0    0  0.24648035900E+03  0.11737448279E+03 -0.25782539398E+03  0.37550402177E+03  0.00000000000E+00 0.  1.
</event>
<event>
 7    1  0.2564986E-009  0.1041520E+03  0.7561462E-02  0.1271799E+00
          1   -1    0    0  501    0  0.00000000000E+00  0.00000000000E+00  0.90770926909E+03  0.90770926909E+03  0.00000000000E+00 0. -1.
         -1   -1    0    0    0  501 -0.00000000000E+00 -0.00000000000E+00 -0.25815805284E+02  0.25815805284E+02  0.00000000000E+00 0.  1.
         25    2    1    2    0    0 -0.77668295735E+02 -0.27095247886E+02  0.68009470835E+03  0.69637794526E+03  0.12508762407E+03 0.  0.
          5    1    3    3  502    0 -0.47506313581E+02 -0.38129510033E+01  0.63663236057E+03  0.63842746130E+03  0.41800000000E+01 0.  1.
         -5    1    3    3    0  502 -0.30161982155E+02 -0.23282296883E+02  0.43462347782E+02  0.57950483953E+02  0.41800000000E+01 0.  1.
        -11    1    1    2    0    0  0.40999535146E+02 -0.32391031776E+02  0.63813839763E+02  0.82476341862E+02  0.00000000000E+00 0.  1.
         11    1    1    2    0    0  0.36668760590E+02  0.59486279662E+02  0.13798491569E+03  0.15467078725E+03  0.00000000000E+00 0. -1.
</event>
<event>
 7    1  0.2564986E-009  0.1172359E+03  0.7561462E-02  0.1247728E+00
         -2   -1    0    0    0  501 -0.00000000000E+00  0.00000000000E+00  0.22835154234E+02  0.22835154234E+02  0.00000000000E+00 0.  1.
          2   -1    0    0  501    0  0.00000000000E+00 -0.00000000000E+00 -0.78120090784E+03  0.78120090784E+03  0.00000000000E+00 0. -1.
         25    2    1    2    0    0  0.47346291252E+02 -0.55332042518E+02 -0.49838748395E+03  0.51898022387E+03  0.12508829834E+03 0.  0.
          5    1    3    3  502    0 -0.33589223741E+02 -0.37069556798E+02 -0.98490070476E+02  0.11054480709E+03  0.41800000000E+01 0. -1.
         -5    1    3    3    0  502  0.80935514993E+02 -0.18262485720E+02 -0.39989741348E+03  0.40843541677E+03  0.41800000000E+01 0. -1.
        -11    1    1    2    0    0  0.98133098546E+01  0.41151879454E+02 -0.43378915512E+02  0.60592974377E+02  0.00000000000E+00 0.  1.
         11    1    1    2    0    0 -0.57159601107E+02  0.14180163065E+02 -0.21659935414E+03  0.22446286383E+03  0.00000000000E+00 0. -1.
</event>
<event>
 7    1  0.2564986E-009  0.1839199E+03  0.7561462E-02  0.1164062E+00
          2   -1    0    0  501    0  0.00000000000E+00  0.00000000000E+00  0.34446172071E+03  0.34446172071E+03  0.00000000000E+00 0. -1.
         -2   -1    0    0    0  501 -0.00000000000E+00 -0.00000000000E+00 -0.13128545582E+03  0.13128545582E+03  0.00000000000E+00 0.  1.
         25    2    1    2    0    0  0.17304251127E+03 -0.17161215508E+02  0.49891906275E+02  0.21995100821E+03  0.12510405939E+03 0.  0.
          5    1    3    3  502    0  0.10422551255E+03 -0.47309598978E+02  0.79140822209E+02  0.13921888436E+03  0.41800000000E+01 0.  1.
         -5    1    3    3    0  502  0.68816998714E+02  0.30148383470E+02 -0.29248915933E+02  0.80732123848E+02  0.41800000000E+01 0.  1.
        -11    1    1    2    0    0 -0.14989570377E+03  0.11308716032E+01  0.84376854094E+02  0.17201585504E+03  0.00000000000E+00 0.  1.
         11    1    1    2    0    0 -0.23146807499E+02  0.16030343904E+02  0.78907504519E+02  0.83780313276E+02  0.00000000000E+00 0. -1.
</event>
<event>
 7    1  0.2564986E-009  0.1466225E+03  0.7561462E-02  0.1204686E+00
         -2   -1    0    0    0  501 -0.00000000000E+00  0.00000000000E+00  0.14466443681E+02  0.14466443681E+02  0.00000000000E+00 0.  1.
          2   -1    0    0  501    0  0.00000000000E+00 -0.00000000000E+00 -0.15660629138E+04  0.15660629138E+04  0.00000000000E+00 0. -1.
         25    2    1    2    0    0 -0.10362106224E+03 -0.28375938180E+01 -0.94147571185E+03  0.95538953400E+03  0.12508904509E+03 0.  0.
          5    1    3    3  502    0 -0.24987008278E+02 -0.56450156514E+02 -0.25849690123E+03  0.26579896745E+03  0.41800000000E+01 0. -1.
         -5    1    3    3    0  502 -0.78634053964E+02  0.53612562696E+02 -0.68297881062E+03  0.68959056655E+03  0.41800000000E+01 0. -1.
        -11    1    1    2    0    0  0.11780848454E+03  0.13189777835E+02 -0.52302007537E+03  0.53628612559E+03  0.00000000000E+00 0.  1.
         11    1    1    2    0    0 -0.14187422295E+02 -0.10352184017E+02 -0.87100682879E+02  0.88853697859E+02  0.00000000000E+00 0. -1.
</event>
<event>
 7    1  0.2564986E-009  0.7149199E+02  0.7561462E-02  0.1355092E+00
          2   -1    0    0  501    0  0.00000000000E+00  0.00000000000E+00  0.22632709562E+03  0.22632709562E+03  0.00000000000E+00 0. -1.
         -2   -1    0    0    0  501 -0.00000000000E+00 -0.00000000000E+00 -0.52611905710E+02  0.52611905710E+02  0.00000000000E+00 0.  1.
         25    2    1    2    0    0  0.13540706187E+02 -0.57085910783E+01  0.10123263554E+03  0.16159130108E+03  0.12509102026E+03 0.  0.
          5    1    3    3  502    0 -0.26663626268E+02  0.26938809782E+02 -0.94789776598E+01  0.39293407280E+02  0.41800000000E+01 0. -1.
         -5    1    3    3    0  502  0.40204332455E+02 -0.32647400860E+02  0.11071161320E+03  0.12229789380E+03  0.41800000000E+01 0. -1.
        -11    1    1    2    0    0  0.70526815380E+01 -0.19269477384E+02 -0.14109328808E+02  0.24902333926E+02  0.00000000000E+00 0.  1.
         11    1    1    2    0    0 -0.20593387725E+02  0.24978068463E+02  0.86591883184E+02  0.92445366327E+02  0.00000000000E+00 0. -1.
</event>
<event>
 7    1  0.2564986E-009  0.1291662E+03  0.7561462E-02  0.1228698E+00
         -2   -1    0    0    0  501 -0.00000000000E+00  0.00000000000E+00  0.38222204932E+02  0.38222204932E+02  0.00000000000E+00 0.  1.
          2   -1    0    0  501    0  0.00000000000E+00 -0.00000000000E+00 -0.51507317844E+03  0.51507317844E+03  0.00000000000E+00 0. -1.
         25    2    1    2    0    0 -0.75398768010E+02 -0.12919201988E+02 -0.17012256521E+03  0.22458603211E+03  0.12508124811E+03 0.  0.
          5    1    3    3  502    0 -0.73066855682E+01 -0.57864905428E+02 -0.10470611406E+03  0.11992738493E+03  0.41800000000E+01 0.  1.
         -5    1    3    3    0  502 -0.68092082441E+02  0.44945703440E+02 -0.65416451147E+02  0.10465864718E+03  0.41800000000E+01 0.  1.
        -11    1    1    2    0    0  0.25631157522E+02 -0.38726825839E+02 -0.12360041894E+03  0.13203706615E+03  0.00000000000E+00 0.  1.
         11    1    1    2    0    0  0.49767610488E+02  0.51646027828E+02 -0.18312798936E+03  0.19667228511E+03  0.00000000000E+00 0. -1.
</event>
<event>
 7    1  0.2564986E-009  0.1168899E+03  0.7561462E-02  0.1248318E+00
          3   -1    0    0  501    0  0.00000000000E+00  0.00000000000E+00  0.28947430431E+03  0.28947430431E+03  0.00000000000E+00 0. -1.
         -3   -1    0    0    0  501 -0.00000000000E+00 -0.00000000000E+00 -0.92071980815E+02  0.92071980815E+02  0.00000000000E+00 0.  1.
         25    2    1    2    0    0  0.18416883461E+02  0.86174464956E+02  0.67938376247E+01  0.15316774436E+03  0.12509588992E+03 0.  0.
          5    1    3    3  502    0  0.31104307082E+02  0.89810183435E+02 -0.40863316045E+02  0.10354047501E+03  0.41800000000E+01 0.  1.
         -5    1    3    3    0  502 -0.12687423621E+02 -0.36357184783E+01  0.47657153670E+02  0.49627269348E+02  0.41800000000E+01 0.  1.
        -11    1    1    2    0    0 -0.45047377888E+02 -0.12932841905E+02  0.58043687647E+02  0.74602911002E+02  0.00000000000E+00 0. -1.
         11    1    1    2    0    0  0.26630494427E+02 -0.73241623051E+02  0.13256479822E+03  0.15377562976E+03  0.00000000000E+00 0.  1.
</event>
<event>
 7    1  0.2564986E-009  0.8575262E+02  0.7561462E-02  0.1313476E+00
          2   -1    0    0  501    0  0.00000000000E+00  0.00000000000E+00  0.12318075416E+03  0.12318075416E+03  0.00000000000E+00 0. -1.
         -2   -1    0    0    0  501 -0.00000000000E+00 -0.00000000000E+00 -0.11022949949E+03  0.11022949949E+03  0.00000000000E+00 0.  1.
         25    2    1    2    0    0 -0.41124094717E+02  0.29792061396E+02 -0.14538431766E+00  0.13501256192E+03  0.12509841186E+03 0.  0.
          5    1    3    3  502    0 -0.20197255702E+02 -0.38859329895E+02  0.33829866403E+02  0.55496927110E+02  0.41800000000E+01 0. -1.
         -5    1    3    3    0  502 -0.20926839014E+02  0.68651391291E+02 -0.33975250720E+02  0.79515634807E+02  0.41800000000E+01 0. -1.
        -11    1    1    2    0    0  0.14591785797E+02  0.14127393848E+01  0.44456583576E+02  0.46811364737E+02  0.00000000000E+00 0. -1.
         11    1    1    2    0    0  0.26532308920E+02 -0.31204800781E+02 -0.31359944590E+02  0.51586326997E+02  0.00000000000E+00 0.  1.
</event>
<event>
 7    1  0.2564986E-009  0.1196512E+03  0.7561462E-02  0.1243674E+00
          2   -1    0    0  501    0  0.00000000000E+00  0.00000000000E+00  0.61110694436E+03  0.61110694436E+03  0.00000000000E+00 0. -1.
         -2   -1    0    0    0  501 -0.00000000000E+00 -0.00000000000E+00 -0.34151420386E+02  0.34151420386E+02  0.00000000000E+00 0.  1.
         25    2    1    2    0    0  0.84843844080E+02  0.43840273740E+02  0.33608695234E+03  0.37110642049E+03  0.12508032746E+03 0.  0.
          5    1    3    3  502    0  0.68261476124E+02  0.62221356945E+02  0.33325269074E+03  0.34584093839E+03  0.41800000000E+01 0. -1.
         -5    1    3    3    0  502  0.16582367956E+02 -0.18381083205E+02  0.28342615960E+01  0.25265482098E+02  0.41800000000E+01 0. -1.
        -11    1    1    2    0    0 -0.52046000641E+02  0.15181796606E+02  0.15923677219E+03  0.16821302787E+03  0.00000000000E+00 0. -1.
         11    1    1    2    0    0 -0.32797843439E+02 -0.59022070346E+02  0.81631799451E+02  0.10593891638E+03  0.00000000000E+00 0.  1.
</event>
<event>
 7    1  0.2564986E-009  0.9375568E+02  0.7561462E-02  0.1294003E+00
          2   -1    0    0  501    0  0.00000000000E+00  0.00000000000E+00  0.14195104323E+03  0.14195104323E+03  0.00000000000E+00 0. -1.
         -2   -1    0    0    0  501 -0.00000000000E+00 -0.00000000000E+00 -0.86349229411E+02  0.86349229411E+02  0.00000000000E+00 0.  1.
         25    2    1    2    0    0  0.24191971665E+02 -0.74409387462E+00  0.25624834064E+02  0.12995944196E+03  0.12508804605E+03 0.  0.
          5    1    3    3  502    0  0.36192093414E+02 -0.43540763694E+02 -0.25370564029E+02  0.62183628455E+02  0.41800000000E+01 0.  1.
         -5    1    3    3    0  502 -0.12000121748E+02  0.42796669819E+02  0.50995398093E+02  0.67775813505E+02  0.41800000000E+01 0.  1.
        -11    1    1    2    0    0 -0.30237043104E+02 -0.37049103099E+02  0.35651971908E+02  0.59648788060E+02  0.00000000000E+00 0.  1.
         11    1    1    2    0    0  0.60450714383E+01  0.37793196973E+02 -0.56749921546E+01  0.38692042620E+02  0.00000000000E+00 0. -1.
</event>
<event>
 7    1  0.2564986E-009  0.2569941E+03  0.7561462E-02  0.1108963E+00
          1   -1    0    0  501    0  0.00000000000E+00  0.00000000000E+00  0.62705101938E+03  0.62705101938E+03  0.00000000000E+00 0. -1.
         -1   -1    0    0    0  501 -0.00000000000E+00 -0.00000000000E+00 -0.12011741430E+03  0.12011741430E+03  0.00000000000E+00 0.  1.
         25    2    1    2    0    0 -0.26141393410E+02  0.24022867977E+03  0.16427702551E+03  0.31784884881E+03  0.12509100107E+03 0.  0.
          5    1    3    3  502    0  0.10203851726E+02 -0.94179548057E+01  0.26902954959E+02  0.30562359992E+02  0.41800000000E+01 0.  1.
         -5    1    3    3    0  502 -0.36345245136E+02  0.24964663458E+03  0.13737407055E+03  0.28728648882E+03  0.41800000000E+01 0.  1.
        -11    1    1    2    0    0 -0.12451655251E+02 -0.12574746985E+03  0.23806934377E+03  0.26952640379E+03  0.00000000000E+00 0. -1.
         11    1    1    2    0    0  0.38593048661E+02 -0.11448120992E+03  0.10458723579E+03  0.15979318108E+03  0.00000000000E+00 0.  1.
</event>
<event>
 7    1  0.3692107E-009  0.9120239E+02  0.7561462E-02  0.1299966E+00
          2   -1    0    0  501    0  0.00000000000E+00  0.00000000000E+00  0.12636683599E+04  0.12636683599E+04  0.00000000000E+00 0. -1.
         -2   -1    0    0    0  501 -0.00000000000E+00 -0.00000000000E+00 -0.11614521482E+02  0.11614521482E+02  0.00000000000E+00 0.  1.
         25    2    1    2    0    0 -0.13647300522E+02 -0.16606550500E+02  0.96034544739E+03  0.96869646822E+03  0.12508973930E+03 0.  0.
          5    1    3    3  502    0  0.12928239623E+01  0.39266726052E+02  0.11967023214E+03  0.12602374391E+03  0.41800000000E+01 0.  1.
         -5    1    3    3    0  502 -0.14940124484E+02 -0.55873276553E+02  0.84067521525E+03  0.84267272431E+03  0.41800000000E+01 0.  1.
        -11    1    1    2    0    0  0.20021380264E+02 -0.30985387051E+02  0.64006684187E+02  0.73876961896E+02  0.00000000000E+00 0.  1.
         11    1    1    2    0    0 -0.63740797426E+01  0.47591937551E+02  0.22770170688E+03  0.23270945131E+03  0.00000000000E+00 0. -1.
</event>
<event>
 7    1  0.2564986E-009  0.1030761E+03  0.7561462E-02  0.1273957E+00
         -2   -1    0    0    0  501 -0.00000000000E+00  0.00000000000E+00  0.37979549327E+02  0.37979549327E+02  0.00000000000E+00 0.  1.
          2   -1    0    0  501    0  0.00000000000E+00 -0.00000000000E+00 -0.39288325893E+03  0.39288325893E+03  0.00000000000E+00 0. -1.
         25    2    1    2    0    0 -0.12409368748E+02  0.38673153552E+02 -0.13074368013E+03  0.18544908244E+03  0.12509135480E+03 0.  0.
          5    1    3    3  502    0  0.32028929223E+02 -0.24414903540E+02 -0.88624417696E+02  0.97435617892E+02  0.41800000000E+01 0.  1.
         -5    1    3    3    0  502 -0.44438297972E+02  0.63088057091E+02 -0.42119262438E+02  0.88013464552E+02  0.41800000000E+01 0.  1.
        -11    1    1    2    0    0  0.33062810245E+02 -0.53545547105E+02 -0.96256325132E+02  0.11500241373E+03  0.00000000000E+00 0.  1.
         11    1    1    2    0    0 -0.20653441496E+02  0.14872393553E+02 -0.12790370434E+03  0.13041131208E+03  0.00000000000E+00 0. -1.
</event>
<event>
 7    1  0.2564986E-009  0.5966859E+02  0.7561462E-02  0.1399228E+00
         -2   -1    0    0    0  501 -0.00000000000E+00  0.00000000000E+00  0.30887780429E+03  0.30887780429E+03  0.00000000000E+00 0. -1.
          2   -1    0    0  501    0  0.00000000000E+00 -0.00000000000E+00 -0.52203688878E+02  0.52203688878E+02  0.00000000000E+00 0.  1.
         25    2    1    2    0    0 -0.27792542328E+02 -0.48036182915E+02  0.19845924273E+03  0.24106909172E+03  0.12509330790E+03 0.  0.
          5    1    3    3  502    0 -0.28448740067E+02 -0.49089720001E+02  0.16747438530E+02  0.59304978867E+02  0.41800000000E+01 0. -1.
         -5    1    3    3    0  502  0.65619773853E+00  0.10535370859E+01  0.18171180420E+03  0.18176411285E+03  0.41800000000E+01 0. -1.
        -11    1    1    2    0    0  0.56278099042E+01  0.26817481888E+02 -0.21349184687E+02  0.34736684729E+02  0.00000000000E+00 0.  1.
         11    1    1    2    0    0  0.22164732424E+02  0.21218701027E+02  0.79564057365E+02  0.85275716714E+02  0.00000000000E+00 0. -1.
</event>
<event>
 7    1  0.2564986E-009  0.1064065E+03  0.7561462E-02  0.1267373E+00
         -2   -1    0    0    0  501 -0.00000000000E+00  0.00000000000E+00  0.35235351016E+02  0.35235351016E+02  0.00000000000E+00 0. -1.
          2   -1    0    0  501    0  0.00000000000E+00 -0.00000000000E+00 -0.41822487971E+03  0.41822487971E+03  0.00000000000E+00 0.  1.
         25    2    1    2    0    0  0.22686930119E+02  0.12729094038E+02 -0.30463152869E+03  0.33033975838E+03  0.12508901254E+03 0.  0.
          5    1    3    3  502    0  0.22694357788E+02 -0.53636264406E+02 -0.17766295791E+03  0.18701198290E+03  0.41800000000E+01 0. -1.
         -5    1    3    3    0  502 -0.74276690000E-02  0.66365358444E+02 -0.12696857078E+03  0.14332777548E+03  0.41800000000E+01 0. -1.
        -11    1    1    2    0    0 -0.27164945396E+02  0.32567215760E+02 -0.14743879611E+02  0.44899218108E+02  0.00000000000E+00 0. -1.
         11    1    1    2    0    0  0.44780152770E+01 -0.45296309798E+02 -0.63614120388E+02  0.78221254239E+02  0.00000000000E+00 0.  1.
</event>
<event>
 7    1  0.2564986E-009  0.1197333E+03  0.7561462E-02  0.1243538E+00
         -1   -1    0    0    0  501 -0.00000000000E+00  0.00000000000E+00  0.15394503250E+03  0.15394503250E+03  0.00000000000E+00 0.  1.
          1   -1    0    0  501    0  0.00000000000E+00 -0.00000000000E+00 -0.14414434654E+03  0.14414434654E+03  0.00000000000E+00 0. -1.
         25    2    1    2    0    0  0.77499309808E+02 -0.13852583987E+02  0.72401563349E+02  0.16458346846E+03  0.12509074550E+03 0.  0.
          5    1    3    3  502    0 -0.16045299334E+01 -0.49408247234E+02 -0.28380370918E+01  0.49691812863E+02  0.41800000000E+01 0.  1.
         -5    1    3    3    0  502  0.79103839741E+02  0.35555663248E+02  0.75239600441E+02  0.11489165559E+03  0.41800000000E+01 0.  1.
        -11    1    1    2    0    0 -0.81405414278E+02 -0.70999401327E+01 -0.17420677332E+02  0.83550766737E+02  0.00000000000E+00 0.  1.
         11    1    1    2    0    0  0.39061044706E+01  0.20952524119E+02 -0.45180200056E+02  0.49955143841E+02  0.00000000000E+00 0. -1.
</event>
<event>
 7    1  0.2564986E-009  0.1198345E+03  0.7561462E-02  0.1243370E+00
          2   -1    0    0  501    0  0.00000000000E+00  0.00000000000E+00  0.37147747261E+02  0.37147747261E+02  0.00000000000E+00 0. -1.
         -2   -1    0    0    0  501 -0.00000000000E+00 -0.00000000000E+00 -0.50574781142E+03  0.50574781142E+03  0.00000000000E+00 0.  1.
         25    2    1    2    0    0  0.28516483681E+02  0.79248183313E+02 -0.21340820477E+03  0.26131204145E+03  0.12508979472E+03 0.  0.
          5    1    3    3  502    0 -0.45161607548E+02  0.10989203688E+02 -0.42967108898E+02  0.63434834603E+02  0.41800000000E+01 0. -1.
         -5    1    3    3    0  502  0.73678091229E+02  0.68258979626E+02 -0.17044109587E+03  0.19787720685E+03  0.41800000000E+01 0. -1.
        -11    1    1    2    0    0 -0.28462085907E+02 -0.24003371878E+02 -0.20020524726E+03  0.20363789733E+03  0.00000000000E+00 0.  1.
         11    1    1    2    0    0 -0.54397773775E-01 -0.55244811436E+02 -0.54986612127E+02  0.77945619909E+02  0.00000000000E+00 0. -1.
</event>
<event>
 7    1  0.2564986E-009  0.1184135E+03  0.7561462E-02  0.1245737E+00
          1   -1    0    0  501    0  0.00000000000E+00  0.00000000000E+00  0.33858183687E+03  0.33858183687E+03  0.00000000000E+00 0. -1.
         -1   -1    0    0    0  501 -0.00000000000E+00 -0.00000000000E+00 -0.93985142884E+02  0.93985142884E+02  0.00000000000E+00 0.  1.
         25    2    1    2    0    0 -0.57954972246E+02 -0.42708871032E+02  0.27573685343E+03  0.31122445162E+03  0.12508805089E+03 0.  0.
          5    1    3    3  502    0  0.29989013145E+02 -0.45861300979E+02  0.12653818116E+03  0.13795645519E+03  0.41800000000E+01 0. -1.
         -5    1    3    3    0  502 -0.87943985391E+02  0.31524299466E+01  0.14919867227E+03  0.17326799643E+03  0.41800000000E+01 0. -1.
        -11    1    1    2    0    0 -0.65835501101E+01 -0.89460871639E+01  0.20895056310E+02  0.23663875122E+02  0.00000000000E+00 0. -1.
         11    1    1    2    0    0  0.64538522356E+02  0.51654958196E+02 -0.52035215758E+02  0.97678653006E+02  0.00000000000E+00 0.  1.
</event>
<event>
 7    1  0.2603300E-009  0.1128901E+03  0.7561462E-02  0.1255310E+00
          2   -1    0    0  501    0  0.00000000000E+00  0.00000000000E+00  0.50155592111E+03  0.50155592111E+03  0.00000000000E+00 0. -1.
         -2   -1    0    0    0  501 -0.00000000000E+00 -0.00000000000E+00 -0.38749742582E+02  0.38749742582E+02  0.00000000000E+00 0.  1.
         25    2    1    2    0    0  0.15353305612E+02 -0.57780892382E+02  0.12908053315E+03  0.18942734603E+03  0.12508628969E+03 0.  0.
          5    1    3    3  502    0 -0.50539839440E+02 -0.41101125762E+02  0.37432549644E+02  0.75247897528E+02  0.41800000000E+01 0. -1.
         -5    1    3    3    0  502  0.65893145052E+02 -0.16679766620E+02  0.91647983507E+02  0.11417944850E+03  0.41800000000E+01 0. -1.
        -11    1    1    2    0    0 -0.40723221547E+02  0.16476792724E+02  0.69332392425E+02  0.82078292569E+02  0.00000000000E+00 0.  1.
         11    1    1    2    0    0  0.25369915935E+02  0.41304099658E+02  0.26439325296E+03  0.26880002510E+03  0.00000000000E+00 0. -1.
</event>
<event>
 7    1  0.2564986E-009  0.8646676E+02  0.7561462E-02  0.1311641E+00
          2   -1    0    0  501    0  0.00000000000E+00  0.00000000000E+00  0.52110048250E+03  0.52110048250E+03  0.00000000000E+00 0.  1.
         -2   -1    0    0    0  501 -0.00000000000E+00 -0.00000000000E+00 -0.22785752519E+02  0.22785752519E+02  0.00000000000E+00 0. -1.
         25    2    1    2    0    0  0.12343939670E+02  0.13461960446E+02  0.28496247082E+03  0.31174601096E+03  0.12509343846E+03 0.  0.
          5    1    3    3  502    0 -0.35672669954E+02  0.81409515586E+01  0.24814155268E+03  0.25085955641E+03  0.41800000000E+01 0.  1.
         -5    1    3    3    0  502  0.48016609624E+02  0.53210088872E+01  0.36820918144E+02  0.60886454555E+02  0.41800000000E+01 0.  1.
        -11    1    1    2    0    0  0.88623237957E+01 -0.47058197489E+02  0.82504801880E+02  0.95394219255E+02  0.00000000000E+00 0. -1.
         11    1    1    2    0    0 -0.21206263465E+02  0.33596237043E+02  0.13084745728E+03  0.13674600480E+03  0.00000000000E+00 0.  1.
</event>
<event>
 7    1  0.2870964E-009  0.1033717E+03  0.7561462E-02  0.1273361E+00
          2   -1    0    0  501    0  0.00000000000E+00  0.00000000000E+00  0.95022983838E+02  0.95022983838E+02  0.00000000000E+00 0. -1.
         -2   -1    0    0    0  501 -0.00000000000E+00 -0.00000000000E+00 -0.15239925293E+03  0.15239925293E+03  0.00000000000E+00 0.  1.
         25    2    1    2    0    0 -0.19080055508E+02  0.46147490309E+02 -0.15377900751E+02  0.13556332643E+03  0.12508915325E+03 0.  0.
          5    1    3    3  502    0  0.44278399024E+02 -0.14581314015E+02 -0.65024777570E+01  0.47254057556E+02  0.41800000000E+01 0. -1.
         -5    1    3    3    0  502 -0.63358454532E+02  0.60728804323E+02 -0.88754229938E+01  0.88309268871E+02  0.41800000000E+01 0. -1.
        -11    1    1    2    0    0  0.37221000257E+02 -0.31469574096E+02 -0.63553025666E+02  0.80091972289E+02  0.00000000000E+00 0.  1.
         11    1    1    2    0    0 -0.18140944749E+02 -0.14677916212E+02  0.21554657325E+02  0.31766938051E+02  0.00000000000E+00 0. -1.
</event>
<event>
 7    1  0.2564986E-009  0.4099583E+03  0.7561462E-02  0.1040385E+00
         -2   -1    0    0    0  501 -0.00000000000E+00  0.00000000000E+00  0.73453784546E+02  0.73453784546E+02  0.00000000000E+00 0.  1.
          2   -1    0    0  501    0  0.00000000000E+00 -0.00000000000E+00 -0.23767831666E+04  0.23767831666E+04  0.00000000000E+00 0. -1.
         25    2    1    2    0    0  0.29157724617E+03 -0.26925165874E+03 -0.13712722480E+04  0.14330209194E+04  0.12509049232E+03 0.  0.
          5    1    3    3  502    0  0.24427680262E+03 -0.14743911636E+03 -0.93211439723E+03  0.97481494205E+03  0.41800000000E+01 0. -1.
         -5    1    3    3    0  502  0.47300443557E+02 -0.12181254238E+03 -0.43915785075E+03  0.45820597739E+03  0.41800000000E+01 0. -1.
        -11    1    1    2    0    0 -0.15864246446E+03  0.19560291220E+03 -0.51379617542E+03  0.57220139869E+03  0.00000000000E+00 0.  1.
         11    1    1    2    0    0 -0.13293478171E+03  0.73648746537E+02 -0.41826095868E+03  0.44501463303E+03  0.00000000000E+00 0. -1.
</event>
<event>
 7    1  0.2564986E-009  0.1218090E+03  0.7561462E-02  0.1240142E+00
         -4   -1    0    0    0  501 -0.00000000000E+00  0.00000000000E+00  0.70707702796E+02  0.70707702796E+02  0.00000000000E+00 0.  1.
          4   -1    0    0  501    0  0.00000000000E+00 -0.00000000000E+00 -0.45113577835E+03  0.45113577835E+03  0.00000000000E+00 0. -1.
         25    2    1    2    0    0 -0.93902215836E+02 -0.14583836798E+01 -0.35560354488E+03  0.38848451835E+03  0.12508631757E+03 0.  0.
          5    1    3    3  502    0 -0.99514086638E+02 -0.42340021528E+02 -0.30133489020E+03  0.32018107269E+03  0.41800000000E+01 0.  1.
         -5    1    3    3    0  502  0.56118708024E+01  0.40881637848E+02 -0.54268654684E+02  0.68303445655E+02  0.41800000000E+01 0.  1.
        -11    1    1    2    0    0  0.40910539100E+02  0.80540220570E+00  0.34707532645E+02  0.53655695918E+02  0.00000000000E+00 0.  1.
         11    1    1    2    0    0  0.52991676736E+02  0.65298147409E+00 -0.59532063314E+02  0.79703266875E+02  0.00000000000E+00 0. -1.
</event>
<event>
 7    1  0.2564986E-009  0.1021057E+03  0.7561462E-02  0.1275929E+00
         -2   -1    0    0    0  501 -0.00000000000E+00  0.00000000000E+00  0.12079967047E+03  0.12079967047E+03  0.00000000000E+00 0.  1.
          2   -1    0    0  501    0  0.00000000000E+00 -0.00000000000E+00 -0.30235624843E+03  0.30235624843E+03  0.00000000000E+00 0. -1.
         25    2    1    2    0    0  0.51743551793E+02 -0.55572293633E+02 -0.24733971439E+03  0.28738215090E+03  0.12508353755E+03 0.  0.
          5    1    3    3  502    0  0.15444665184E+02  0.33359296781E+01 -0.20604945223E+03  0.20669667456E+03  0.41800000000E+01 0. -1.
         -5    1    3    3    0  502  0.36298886609E+02 -0.58908223311E+02 -0.41290262164E+02  0.80685476340E+02  0.41800000000E+01 0. -1.
        -11    1    1    2    0    0 -0.25733434445E+02 -0.23781278245E+02  0.23319237501E+02  0.42089733676E+02  0.00000000000E+00 0.  1.
         11    1    1    2    0    0 -0.26010117348E+02  0.79353571877E+02  0.42463898929E+02  0.93684034320E+02  0.00000000000E+00 0. -1.
</event>
<event>
 7    1  0.2564986E-009  0.6758477E+02  0.7561462E-02  0.1368504E+00
          2   -1    0    0  501    0  0.00000000000E+00  0.00000000000E+00  0.15689167064E+03  0.15689167064E+03  0.00000000000E+00 0. -1.
         -2   -1    0    0    0  501 -0.00000000000E+00 -0.00000000000E+00 -0.12201619747E+03  0.12201619747E+03  0.00000000000E+00 0.  1.
         25    2    1    2    0    0 -0.17488595438E+02 -0.58697153229E+02  0.81472984076E+02  0.16136184479E+03  0.12509432861E+03 0.  0.
          5    1    3    3  502    0 -0.25169243080E+02 -0.16597254195E+02  0.10707602454E+03  0.11131804469E+03  0.41800000000E+01 0.  1.
         -5    1    3    3    0  502  0.76806476425E+01 -0.42099899034E+02 -0.25603040459E+02  0.50043800092E+02  0.41800000000E+01 0.  1.
        -11    1    1    2    0    0  0.15412369088E+02  0.39116539489E+02 -0.73220457507E+02  0.84432696155E+02  0.00000000000E+00 0.  1.
         11    1    1    2    0    0  0.20762263497E+01  0.19580613740E+02  0.26622946599E+02  0.33113327164E+02  0.00000000000E+00 0. -1.
</event>
<event>
 7    1  0.2564986E-009  0.1545128E+03  0.7561462E-02  0.1195035E+00
         -1   -1    0    0    0  501 -0.00000000000E+00  0.00000000000E+00  0.65760451807E+02  0.65760451807E+02  0.00000000000E+00 0.  1.
          1   -1    0    0  501    0  0.00000000000E+00 -0.00000000000E+00 -0.38335667920E+03  0.38335667920E+03  0.00000000000E+00 0. -1.
         25    2    1    2    0    0  0.43750898144E+02 -0.10949431550E+03 -0.18237315784E+03  0.25062340654E+03  0.12509587120E+03 0.  0.
          5    1    3    3  502    0  0.84723049913E+02 -0.46783931975E+02 -0.10143362864E+03  0.14026041814E+03  0.41800000000E+01 0. -1.
         -5    1    3    3    0  502 -0.40972151769E+02 -0.62710383525E+02 -0.80939529200E+02  0.11036298840E+03  0.41800000000E+01 0. -1.
        -11    1    1    2    0    0 -0.25760110323E+02 -0.40776493117E+00 -0.56551681821E+02  0.62143722715E+02  0.00000000000E+00 0. -1.
         11    1    1    2    0    0 -0.17990787821E+02  0.10990208043E+03 -0.78671387740E+02  0.13635000175E+03  0.00000000000E+00 0.  1.
</event>
<event>
 7    1  0.2564986E-009  0.1129614E+03  0.7561462E-02  0.1255182E+00
         -1   -1    0    0    0  501 -0.00000000000E+00  0.00000000000E+00  0.11637607361E+03  0.11637607361E+03  0.00000000000E+00 0.  1.
          1   -1    0    0  501    0  0.00000000000E+00 -0.00000000000E+00 -0.15371378547E+03  0.15371378547E+03  0.00000000000E+00 0. -1.
         25    2    1    2    0    0  0.22707073489E+02 -0.65534865600E+02  0.15767688603E+02  0.14389695501E+03  0.12508910369E+03 0.  0.
          5    1    3    3  502    0  0.26834221176E+02 -0.94514315772E+02 -0.16959538376E+02  0.99790428669E+02  0.41800000000E+01 0. -1.
         -5    1    3    3    0  502 -0.41271476873E+01  0.28979450172E+02  0.32727226979E+02  0.44106526343E+02  0.41800000000E+01 0. -1.
        -11    1    1    2    0    0  0.50455716432E+01 -0.13413521132E+02  0.13154372286E+02  0.19452965137E+02  0.00000000000E+00 0.  1.
         11    1    1    2    0    0 -0.27752645132E+02  0.78948386733E+02 -0.66259772749E+02  0.10673993894E+03  0.00000000000E+00 0. -1.
</event>
<event>
 7    1  0.3679894E-009  0.1185024E+03  0.7561462E-02  0.1245588E+00
          1   -1    0    0  501    0  0.00000000000E+00  0.00000000000E+00  0.36705099973E+03  0.36705099973E+03  0.00000000000E+00 0. -1.
         -1   -1    0    0    0  501 -0.00000000000E+00 -0.00000000000E+00 -0.55669544087E+02  0.55669544087E+02  0.00000000000E+00 0.  1.
         25    2    1    2    0    0 -0.52367574576E+02 -0.75642783183E+02  0.18446536615E+03  0.24112001688E+03  0.12508875937E+03 0.  0.
          5    1    3    3  502    0 -0.78730433713E+01  0.11454965303E+02  0.12654480152E+03  0.12737448816E+03  0.41800000000E+01 0.  1.
         -5    1    3    3    0  502 -0.44494531205E+02 -0.87097748487E+02  0.57920564627E+02  0.11374552873E+03  0.41800000000E+01 0.  1.
        -11    1    1    2    0    0  0.62539339612E+02  0.16629264093E+02  0.91358514998E+02  0.11195570412E+03  0.00000000000E+00 0. -1.
         11    1    1    2    0    0 -0.10171765037E+02  0.59013519090E+02  0.35557574495E+02  0.69644822804E+02  0.00000000000E+00 0.  1.
</event>
<event>
 7    1  0.2564986E-009  0.2533284E+03  0.7561462E-02  0.1111219E+00
          1   -1    0    0  501    0  0.00000000000E+00  0.00000000000E+00  0.44064705912E+03  0.44064705912E+03  0.00000000000E+00 0. -1.
         -1   -1    0    0    0  501 -0.00000000000E+00 -0.00000000000E+00 -0.28100861805E+03  0.28100861805E+03  0.00000000000E+00 0.  1.
         25    2    1    2    0    0 -0.49538476885E+02  0.24344272518E+03  0.31015699815E+03  0.41661060079E+03  0.12509439656E+03 0.  0.
          5    1    3    3  502    0 -0.37332589330E+01  0.10326311014E+03  0.22159280140E+03  0.24453639641E+03  0.41800000000E+01 0.  1.
         -5    1    3    3    0  502 -0.45805217952E+02  0.14017961504E+03  0.88564196751E+02  0.17207420437E+03  0.41800000000E+01 0.  1.
        -11    1    1    2    0    0 -0.14081537725E+02 -0.56868641033E+02 -0.26866130709E+01  0.58647676232E+02  0.00000000000E+00 0. -1.
         11    1    1    2    0    0  0.63620014610E+02 -0.18657408415E+03 -0.14783194400E+03  0.24639740015E+03  0.00000000000E+00 0.  1.
</event>
<event>
 7    1  0.2564986E-009  0.9867343E+02  0.7561462E-02  0.1283111E+00
         -3   -1    0    0    0  501 -0.00000000000E+00  0.00000000000E+00  0.27758054830E+02  0.27758054830E+02  0.00000000000E+00 0.  1.
          3   -1    0    0  501    0  0.00000000000E+00 -0.00000000000E+00 -0.43258704832E+03  0.43258704832E+03  0.00000000000E+00 0. -1.
         25    2    1    2    0    0  0.14132782377E+02 -0.79626125826E+01 -0.23675449188E+03  0.26826084998E+03  0.12509218788E+03 0.  0.
          5    1    3    3  502    0  0.34308177119E+02  0.50663140274E+02 -0.90184117275E+02  0.10906168992E+03  0.41800000000E+01 0.  1.
         -5    1    3    3    0  502 -0.20175394742E+02 -0.58625752857E+02 -0.14657037461E+03  0.15919916006E+03  0.41800000000E+01 0.  1.
        -11    1    1    2    0    0 -0.38711314964E+02  0.23033374507E+02 -0.15311422095E+03  0.15960284116E+03  0.00000000000E+00 0. -1.
         11    1    1    2    0    0  0.24578532587E+02 -0.15070761925E+02 -0.14960280657E+02  0.32481412015E+02  0.00000000000E+00 0.  1.
</event>
<event>
 7    1  0.2564986E-009  0.1277840E+03  0.7561462E-02  0.1230781E+00
         -2   -1    0    0    0  501 -0.00000000000E+00  0.00000000000E+00  0.18391942062E+02  0.18391942062E+02  0.00000000000E+00 0.  1.
          2   -1    0    0  501    0  0.00000000000E+00 -0.00000000000E+00 -0.11964778383E+04  0.11964778383E+04  0.00000000000E+00 0. -1.
         25    2    1    2    0    0  0.34519911632E+02 -0.58212296433E+02 -0.94136026881E+03  0.95204425391E+03  0.12509520357E+03 0.  0.
          5    1    3    3  502    0 -0.10749621479E+02  0.35869716860E+02 -0.23743555379E+03  0.24040654225E+03  0.41800000000E+01 0.  1.
         -5    1    3    3    0  502  0.45269533110E+02 -0.94082013293E+02 -0.70392471502E+03  0.71163771167E+03  0.41800000000E+01 0.  1.
        -11    1    1    2    0    0 -0.27495679606E+02 -0.20548553944E+02 -0.58136625098E+02  0.67513870012E+02  0.00000000000E+00 0.  1.
         11    1    1    2    0    0 -0.70242320260E+01  0.78760850377E+02 -0.17858900233E+03  0.19531165644E+03  0.00000000000E+00 0. -1.
</event>
<event>
 7    1  0.2564986E-009  0.1582696E+03  0.7561462E-02  0.1190664E+00
         -2   -1    0    0    0  501 -0.00000000000E+00  0.00000000000E+00  0.46836148013E+02  0.46836148013E+02  0.00000000000E+00 0.  1.
          2   -1    0    0  501    0  0.00000000000E+00 -0.00000000000E+00 -0.79762332479E+03  0.79762332479E+03  0.00000000000E+00 0. -1.
         25    2    1    2    0    0 -0.91933119186E+02  0.11815607943E+03 -0.50846105919E+03  0.54460268865E+03  0.12508749840E+03 0.  0.
          5    1    3    3  502    0 -0.42319194456E+02  0.55536169120E+02 -0.41812045867E+03  0.42393085599E+03  0.41800000000E+01 0.  1.
         -5    1    3    3    0  502 -0.49613924730E+02  0.62619910313E+02 -0.90340600520E+02  0.12067183266E+03  0.41800000000E+01 0.  1.
        -11    1    1    2    0    0  0.13939491473E+02 -0.77293285965E+02 -0.16472623744E+03  0.18249190333E+03  0.00000000000E+00 0.  1.
         11    1    1    2    0    0  0.77993627712E+02 -0.40862793468E+02 -0.77599880142E+02  0.11736488083E+03  0.00000000000E+00 0. -1.
</event>
<event>
 7    1  0.2564986E-009  0.1186628E+03  0.7561462E-02  0.1245319E+00
         -1   -1    0    0    0  501 -0.00000000000E+00  0.00000000000E+00  0.30591723666E+02  0.30591723666E+02  0.00000000000E+00 0.  1.
          1   -1    0    0  501    0  0.00000000000E+00 -0.00000000000E+00 -0.61620039451E+03  0.61620039451E+03  0.00000000000E+00 0. -1.
         25    2    1    2    0    0 -0.54090887013E+02  0.18092561058E+01 -0.17044087426E+03  0.21823541763E+03  0.12509000130E+03 0.  0.
          5    1    3    3  502    0 -0.33324531820E+02 -0.59238419459E+02 -0.11217783874E+03  0.13122901610E+03  0.41800000000E+01 0. -1.
         -5    1    3    3    0  502 -0.20766355193E+02  0.61047675565E+02 -0.58263035520E+02  0.87006401534E+02  0.41800000000E+01 0. -1.
        -11    1    1    2    0    0  0.48427653575E+02  0.39759064339E+02 -0.28455151659E+03  0.29136847191E+03  0.00000000000E+00 0.  1.
         11    1    1    2    0    0  0.56632334387E+01 -0.41568320445E+02 -0.13061627999E+03  0.13718822863E+03  0.00000000000E+00 0. -1.
</event>
<event>
 7    1  0.3106066E-009  0.1027703E+03  0.7561462E-02  0.1274576E+00
         -1   -1    0    0    0  501 -0.00000000000E+00  0.00000000000E+00  0.46789540388E+03  0.46789540388E+03  0.00000000000E+00 0.  1.
          1   -1    0    0  501    0  0.00000000000E+00 -0.00000000000E+00 -0.40369453517E+02  0.40369453517E+02  0.00000000000E+00 0. -1.
         25    2    1    2    0    0  0.76381705466E+02  0.21793123093E+02  0.28546011311E+03  0.32162675337E+03  0.12508871716E+03 0.  0.
          5    1    3    3  502    0 -0.19950315975E+02  0.19774393388E+02  0.16445671104E+03  0.16689075452E+03  0.41800000000E+01 0. -1.
         -5    1    3    3    0  502  0.96332021441E+02  0.20187297046E+01  0.12100340207E+03  0.15473599884E+03  0.41800000000E+01 0. -1.
        -11    1    1    2    0    0 -0.36160746290E+02 -0.29479694456E+01  0.13724601574E+03  0.14196041326E+03  0.00000000000E+00 0.  1.
         11    1    1    2    0    0 -0.40220959177E+02 -0.18845153647E+02  0.48198215135E+01  0.44677690770E+02  0.00000000000E+00 0. -1.
</event>
<event>
 7    1  0.2564986E-009  0.1323009E+03  0.7561462E-02  0.1224081E+00
         -1   -1    0    0    0  501 -0.00000000000E+00  0.00000000000E+00  0.28025202050E+02  0.28025202050E+02  0.00000000000E+00 0.  1.
          1   -1    0    0  501    0  0.00000000000E+00 -0.00000000000E+00 -0.84207913384E+03  0.84207913384E+03  0.00000000000E+00 0. -1.
         25    2    1    2    0    0 -0.83567569275E+02 -0.62881982923E+02 -0.51227778755E+03  0.53760018527E+03  0.12509094763E+03 0.  0.
          5    1    3    3  502    0 -0.17340007778E+01  0.23243588667E+02 -0.19468514537E+02  0.30655613370E+02  0.41800000000E+01 0.  1.
         -5    1    3    3    0  502 -0.81833568497E+02 -0.86125571591E+02 -0.49280927301E+03  0.50694457190E+03  0.41800000000E+01 0.  1.
        -11    1    1    2    0    0  0.66692574817E+02  0.11135408209E+02 -0.24371366245E+03  0.25291944590E+03  0.00000000000E+00 0. -1.
         11    1    1    2    0    0  0.16874994458E+02  0.51746574715E+02 -0.58062481797E+02  0.79584704718E+02  0.00000000000E+00 0.  1.
</event>
<event>
 7    1  0.2564986E-009  0.7369181E+02  0.7561462E-02  0.1347971E+00
          4   -1    0    0  501    0  0.00000000000E+00  0.00000000000E+00  0.51044223110E+03  0.51044223110E+03  0.00000000000E+00 0. -1.
         -4   -1    0    0    0  501 -0.00000000000E+00 -0.00000000000E+00 -0.29116613496E+02  0.29116613496E+02  0.00000000000E+00 0.  1.
         25    2    1    2    0    0  0.50238496527E+00  0.46129040527E+02  0.33848615977E+03  0.36379723854E+03  0.12508960646E+03 0.  0.
          5    1    3    3  502    0 -0.11615592003E+02  0.55236494726E+02  0.34284036720E+03  0.34748090899E+03  0.41800000000E+01 0.  1.
         -5    1    3    3    0  502  0.12117976968E+02 -0.91074541990E+01 -0.43542074309E+01  0.16316329555E+02  0.41800000000E+01 0.  1.
        -11    1    1    2    0    0 -0.28221657445E+02 -0.10948097594E+02  0.12318521685E+03  0.12684999188E+03  0.00000000000E+00 0. -1.
         11    1    1    2    0    0  0.27719272480E+02 -0.35180942933E+02  0.19654240984E+02  0.48911614174E+02  0.00000000000E+00 0.  1.
</event>
<event>
 7    1  0.2564986E-009  0.1081922E+03  0.7561462E-02  0.1263955E+00
          2   -1    0    0  501    0  0.00000000000E+00  0.00000000000E+00  0.24701375184E+03  0.24701375184E+03  0.00000000000E+00 0.  1.
         -2   -1    0    0    0  501 -0.00000000000E+00 -0.00000000000E+00 -0.64903409169E+02  0.64903409169E+02  0.00000000000E+00 0. -1.
         25    2    1    2    0    0  0.10210290810E+02  0.62308836852E+02  0.12618311090E+03  0.18856205069E+03  0.12508728271E+03 0.  0.
          5    1    3    3  502    0 -0.49126965890E+02  0.10442073592E+02  0.86775626745E+02  0.10034927740E+03  0.41800000000E+01 0.  1.
         -5    1    3    3    0  502  0.59337256701E+02  0.51866763260E+02  0.39407484154E+02  0.88212773288E+02  0.41800000000E+01 0.  1.
        -11    1    1    2    0    0 -0.33684275938E+02 -0.50719879660E+02  0.70693417912E+02  0.93298960199E+02  0.00000000000E+00 0.  1.
         11    1    1    2    0    0  0.23473985128E+02 -0.11588957192E+02 -0.14766186142E+02  0.30056150115E+02  0.00000000000E+00 0. -1.
</event>
<event>
 7    1  0.2564986E-009  0.1102762E+03  0.7561462E-02  0.1260059E+00
         -2   -1    0    0    0  501 -0.00000000000E+00  0.00000000000E+00  0.13712006587E+02  0.13712006587E+02  0.00000000000E+00 0.  1.
          2   -1    0    0  501    0  0.00000000000E+00 -0.00000000000E+00 -0.90551722167E+03  0.90551722167E+03  0.00000000000E+00 0. -1.
         25    2    1    2    0    0 -0.17281180195E+02 -0.17382855842E+02 -0.55134350827E+03  0.56588692398E+03  0.12509014252E+03 0.  0.
          5    1    3    3  502    0  0.50226965059E+02  0.13024952170E+02 -0.26733817364E+03  0.27235926436E+03  0.41800000000E+01 0.  1.
         -5    1    3    3    0  502 -0.67508145254E+02 -0.30407808012E+02 -0.28400533463E+03  0.29352765962E+03  0.41800000000E+01 0.  1.
        -11    1    1    2    0    0  0.34837336619E+02 -0.28628071901E+02 -0.15140392602E+03  0.15797580618E+03  0.00000000000E+00 0.  1.
         11    1    1    2    0    0 -0.17556156425E+02  0.46010927743E+02 -0.18905778079E+03  0.19536649810E+03  0.00000000000E+00 0. -1.
</event>
<event>
 7    1  0.2564986E-009  0.1070462E+03  0.7561462E-02  0.1266140E+00
          1   -1    0    0  501    0  0.00000000000E+00  0.00000000000E+00  0.33103159636E+02  0.33103159636E+02  0.00000000000E+00 0. -1.
         -1   -1    0    0    0  501 -0.00000000000E+00 -0.00000000000E+00 -0.46165651523E+03  0.46165651523E+03  0.00000000000E+00 0.  1.
         25    2    1    2    0    0  0.59127882817E+02  0.47487545852E+01 -0.25119738160E+03  0.28682180401E+03  0.12509182842E+03 0.  0.
          5    1    3    3  502    0  0.65115135723E+02  0.54751033098E+02 -0.18386517869E+03  0.20263645491E+03  0.41800000000E+01 0. -1.
         -5    1    3    3    0  502 -0.59872529067E+01 -0.50002278513E+02 -0.67332202914E+02  0.84185349100E+02  0.41800000000E+01 0. -1.
        -11    1    1    2    0    0  0.43755338810E+01 -0.13580625158E+02  0.46201461223E+01  0.14997480675E+02  0.00000000000E+00 0. -1.
         11    1    1    2    0    0 -0.63503416698E+02  0.88318705725E+01 -0.18197612011E+03  0.19294039018E+03  0.00000000000E+00 0.  1.
</event>
<event>
 7    1  0.2564986E-009  0.1146000E+03  0.7561462E-02  0.1252281E+00
          1   -1    0    0  501    0  0.00000000000E+00  0.00000000000E+00  0.33699168404E+03  0.33699168404E+03  0.00000000000E+00 0. -1.
         -1   -1    0    0    0  501 -0.00000000000E+00 -0.00000000000E+00 -0.68216957378E+02  0.68216957378E+02  0.00000000000E+00 0.  1.
         25    2    1    2    0    0 -0.50394775493E+01  0.82364412944E+02  0.57661728708E+02  0.16056629951E+03  0.12508944290E+03 0.  0.
          5    1    3    3  502    0  0.87041084057E+01 -0.12464778758E+02 -0.27893540289E+02  0.32041445074E+02  0.41800000000E+01 0. -1.
         -5    1    3    3    0  502 -0.13743585955E+02  0.94829191702E+02  0.85555268997E+02  0.12852485443E+03  0.41800000000E+01 0. -1.
        -11    1    1    2    0    0  0.18945422219E+02  0.11810817743E+02  0.15756290996E+02  0.27325540155E+02  0.00000000000E+00 0.  1.
         11    1    1    2    0    0 -0.13905944669E+02 -0.94175230687E+02  0.19535670696E+03  0.21731680176E+03  0.00000000000E+00 0. -1.
</event>
<event>
 7    1  0.2564986E-009  0.1470778E+03  0.7561462E-02  0.1204110E+00
         -2   -1    0    0    0  501 -0.00000000000E+00  0.00000000000E+00  0.30030319917E+02  0.30030319917E+02  0.00000000000E+00 0.  1.
          2   -1    0    0  501    0  0.00000000000E+00 -0.00000000000E+00 -0.74642101115E+03  0.74642101115E+03  0.00000000000E+00 0. -1.
         25    2    1    2    0    0  0.10200685480E+03 -0.82204514734E+01 -0.42270169783E+03  0.45254660646E+03  0.12509488967E+03 0.  0.
          5    1    3    3  502    0  0.65394061275E+02  0.56296583134E+02 -0.25127963456E+03  0.26571529062E+03  0.41800000000E+01 0. -1.
         -5    1    3    3    0  502  0.36612793521E+02 -0.64517034608E+02 -0.17142206326E+03  0.18683131584E+03  0.41800000000E+01 0. -1.
        -11    1    1    2    0    0 -0.19272012935E+02 -0.35125164239E+02 -0.59049053600E+02  0.71358099585E+02  0.00000000000E+00 0.  1.
         11    1    1    2    0    0 -0.82734841861E+02  0.43345615712E+02 -0.23463993980E+03  0.25254662502E+03  0.00000000000E+00 0. -1.
</event>
<event>
 7    1  0.2564986E-009  0.2083484E+03  0.7561462E-02  0.1142881E+00
         -1   -1    0    0    0  501 -0.00000000000E+00  0.00000000000E+00  0.48757945072E+02  0.48757945072E+02  0.00000000000E+00 0.  1.
          1   -1    0    0  501    0  0.00000000000E+00 -0.00000000000E+00 -0.11037490474E+04  0.11037490474E+04  0.00000000000E+00 0. -1.
         25    2    1    2    0    0  0.10995202279E+03  0.14842306023E+03 -0.33288499485E+03  0.40072277657E+03  0.12508985466E+03 0.  0.
          5    1    3    3  502    0 -0.23020795380E+02  0.56494042819E+02 -0.99538275504E+02  0.11681983815E+03  0.41800000000E+01 0. -1.
         -5    1    3    3    0  502  0.13297281817E+03  0.91929017414E+02 -0.23334671935E+03  0.28390293842E+03  0.41800000000E+01 0. -1.
        -11    1    1    2    0    0 -0.80980810011E+02 -0.59986851905E+02 -0.51446360516E+03  0.52424146633E+03  0.00000000000E+00 0.  1.
         11    1    1    2    0    0 -0.28971212780E+02 -0.88436208328E+02 -0.20764250233E+03  0.22754274958E+03  0.00000000000E+00 0. -1.
</event>
<event>
 7    1  0.2564986E-009  0.1333310E+03  0.7561462E-02  0.1222595E+00
         -1   -1    0    0    0  501 -0.00000000000E+00  0.00000000000E+00  0.51153535674E+02  0.51153535674E+02  0.00000000000E+00 0.  1.
          1   -1    0    0  501    0  0.00000000000E+00 -0.00000000000E+00 -0.43058947335E+03  0.43058947335E+03  0.00000000000E+00 0. -1.
         25    2    1    2    0    0 -0.10147742669E+03  0.63906107797E+01 -0.20941080410E+03  0.26426868679E+03  0.12508615395E+03 0.  0.
          5    1    3    3  502    0 -0.34078467226E+00 -0.31990515695E+02 -0.11877967866E+03  0.12308368572E+03  0.41800000000E+01 0.  1.
         -5    1    3    3    0  502 -0.10113664201E+03  0.38381126474E+02 -0.90631125443E+02  0.14118500107E+03  0.41800000000E+01 0.  1.
        -11    1    1    2    0    0  0.62055196358E+02 -0.40425274732E+02 -0.13719592160E+03  0.15590949662E+03  0.00000000000E+00 0. -1.
         11    1    1    2    0    0  0.39422230329E+02  0.34034663952E+02 -0.32829211977E+02  0.61564825619E+02  0.00000000000E+00 0.  1.
</event>
<event>
 7    1  0.2564986E-009  0.1263926E+03  0.7561462E-02  0.1232909E+00
         -1   -1    0    0    0  501 -0.00000000000E+00  0.00000000000E+00  0.10005969964E+03  0.10005969964E+03  0.00000000000E+00 0.  1.
          1   -1    0    0  501    0  0.00000000000E+00 -0.00000000000E+00 -0.38617994870E+03  0.38617994870E+03  0.00000000000E+00 0. -1.
         25    2    1    2    0    0 -0.47959027025E+01 -0.86728461486E+02 -0.32015467112E+03  0.35452965807E+03  0.12508972098E+03 0.  0.
          5    1    3    3  502    0 -0.42889021213E+02 -0.75575983094E+02 -0.29450628365E+03  0.30708731799E+03  0.41800000000E+01 0. -1.
         -5    1    3    3    0  502  0.38093118511E+02 -0.11152478391E+02 -0.25648387474E+02  0.47442340079E+02  0.41800000000E+01 0. -1.
        -11    1    1    2    0    0 -0.31823447386E+02  0.98321944963E-01  0.40375785737E+00  0.31826160484E+02  0.00000000000E+00 0.  1.
         11    1    1    2    0    0  0.36619350088E+02  0.86630139541E+02  0.33630664213E+02  0.99883829788E+02  0.00000000000E+00 0. -1.
</event>
<event>
 7    1  0.2564986E-009  0.1178676E+03  0.7561462E-02  0.1246657E+00
         -2   -1    0    0    0  501 -0.00000000000E+00  0.00000000000E+00  0.16353462446E+02  0.16353462446E+02  0.00000000000E+00 0. -1.
          2   -1    0    0  501    0  0.00000000000E+00 -0.00000000000E+00 -0.86013979378E+03  0.86013979378E+03  0.00000000000E+00 0.  1.
         25    2    1    2    0    0 -0.40068647256E+02  0.23611287856E+02 -0.48937742975E+03  0.50724861458E+03  0.12509156180E+03 0.  0.
          5    1    3    3  502    0 -0.46322982055E+02 -0.44072396343E+02 -0.20233271825E+03  0.21223617990E+03  0.41800000000E+01 0. -1.
         -5    1    3    3    0  502  0.62543347992E+01  0.67683684199E+02 -0.28704471151E+03  0.29501243468E+03  0.41800000000E+01 0. -1.
        -11    1    1    2    0    0  0.37011072667E+02  0.31355505911E+02 -0.17202065966E+03  0.17872910955E+03  0.00000000000E+00 0.  1.
         11    1    1    2    0    0  0.30575745892E+01 -0.54966793766E+02 -0.18238824192E+03  0.19051553210E+03  0.00000000000E+00 0. -1.
</event>
<event>
 7    1  0.2564986E-009  0.1144091E+03  0.7561462E-02  0.1252616E+00
          1   -1    0    0  501    0  0.00000000000E+00  0.00000000000E+00  0.13937615203E+03  0.13937615203E+03  0.00000000000E+00 0.  1.
         -1   -1    0    0    0  501 -0.00000000000E+00 -0.00000000000E+00 -0.16236858283E+03  0.16236858283E+03  0.00000000000E+00 0. -1.
         25    2    1    2    0    0  0.59706997135E+02  0.64083427174E+02  0.40128225061E+02  0.15788718098E+03  0.12508587580E+03 0.  0.
          5    1    3    3  502    0  0.91261610562E+02  0.46458472186E+02 -0.16261512221E+01  0.10250457535E+03  0.41800000000E+01 0. -1.
         -5    1    3    3    0  502 -0.31554613428E+02  0.17624954987E+02  0.41754376283E+02  0.55382605624E+02  0.41800000000E+01 0. -1.
        -11    1    1    2    0    0 -0.29425384944E+02 -0.17062919837E+02  0.23078177134E+02  0.41104729318E+02  0.00000000000E+00 0.  1.
         11    1    1    2    0    0 -0.30281612191E+02 -0.47020507336E+02 -0.86198832994E+02  0.10275282457E+03  0.00000000000E+00 0. -1.
</event>
<event>
 7    1  0.2564986E-009  0.1114459E+03  0.7561462E-02  0.1257916E+00
         -2   -1    0    0    0  501 -0.00000000000E+00  0.00000000000E+00  0.14079551825E+02  0.14079551825E+02  0.00000000000E+00 0.  1.
          2   -1    0    0  501    0  0.00000000000E+00 -0.00000000000E+00 -0.94930921733E+03  0.94930921733E+03  0.00000000000E+00 0. -1.
         25    2    1    2    0    0  0.38781485095E+01 -0.36883106654E+02 -0.61582279952E+03  0.62949215282E+03  0.12508895418E+03 0.  0.
          5    1    3    3  502    0 -0.35631773772E+02  0.32103637953E+02 -0.17316885829E+03  0.17973645360E+03  0.41800000000E+01 0.  1.
         -5    1    3    3    0  502  0.39509922281E+02 -0.68986744607E+02 -0.44265394124E+03  0.44975569922E+03  0.41800000000E+01 0.  1.
        -11    1    1    2    0    0 -0.38162862486E+02 -0.76656329769E+01 -0.97565306374E+02  0.10504358624E+03  0.00000000000E+00 0.  1.
         11    1    1    2    0    0  0.34284713976E+02  0.44548739631E+02 -0.22184155961E+03  0.22885303010E+03  0.00000000000E+00 0. -1.
</event>
<event>
 7    1  0.2564986E-009  0.1063895E+03  0.7561462E-02  0.1267406E+00
          2   -1    0    0  501    0  0.00000000000E+00  0.00000000000E+00  0.33747828468E+03  0.33747828468E+03  0.00000000000E+00 0.  1.
         -2   -1    0    0    0  501 -0.00000000000E+00 -0.00000000000E+00 -0.45634904044E+02  0.45634904044E+02  0.00000000000E+00 0. -1.
         25    2    1    2    0    0 -0.22193016875E+02 -0.29668508953E+02  0.23436854517E+03  0.26823196255E+03  0.12508805038E+03 0.  0.
          5    1    3    3  502    0 -0.72386448082E+02 -0.12328340633E+02  0.10379813699E+03  0.12721364507E+03  0.41800000000E+01 0. -1.
         -5    1    3    3    0  502  0.50193431208E+02 -0.17340168320E+02  0.13057040818E+03  0.14101831748E+03  0.41800000000E+01 0. -1.
        -11    1    1    2    0    0  0.99564987798E+01  0.56025782165E+02  0.79442483289E+01  0.57455471599E+02  0.00000000000E+00 0. -1.
         11    1    1    2    0    0  0.12236518095E+02 -0.26357273213E+02  0.49530587135E+02  0.57425754572E+02  0.00000000000E+00 0.  1.
</event>
<event>
 7    1  0.2564986E-009  0.1088259E+03  0.7561462E-02  0.1262760E+00
          1   -1    0    0  501    0  0.00000000000E+00  0.00000000000E+00  0.21337627922E+02  0.21337627922E+02  0.00000000000E+00 0. -1.
         -1   -1    0    0    0  501 -0.00000000000E+00 -0.00000000000E+00 -0.10301841440E+04  0.10301841440E+04  0.00000000000E+00 0.  1.
         25    2    1    2    0    0 -0.83650037445E+02  0.44039929893E+02 -0.66862942835E+03  0.68676828277E+03  0.12509403493E+03 0.  0.
          5    1    3    3  502    0 -0.31315931048E+02  0.24765073932E+02 -0.43692570704E+02  0.59333882049E+02  0.41800000000E+01 0. -1.
         -5    1    3    3    0  502 -0.52334106397E+02  0.19274855961E+02 -0.62493685765E+03  0.62743440072E+03  0.41800000000E+01 0. -1.
        -11    1    1    2    0    0  0.71191164462E+02  0.46305963764E+01 -0.26398570295E+03  0.27345580206E+03  0.00000000000E+00 0.  1.
         11    1    1    2    0    0  0.12458872983E+02 -0.48670526269E+02 -0.76231384815E+02  0.91297687124E+02  0.00000000000E+00 0. -1.
</event>
<event>
 7    1  0.2564986E-009  0.9730451E+02  0.7561462E-02  0.1286069E+00
         -2   -1    0    0    0  501 -0.00000000000E+00  0.00000000000E+00  0.20918413084E+02  0.20918413084E+02  0.00000000000E+00 0. -1.
          2   -1    0    0  501    0  0.00000000000E+00 -0.00000000000E+00 -0.63141273351E+03  0.63141273351E+03  0.00000000000E+00 0.  1.
         25    2    1    2    0    0  0.21541141618E+02  0.32886699225E+02 -0.34537978132E+03  0.36943173408E+03  0.12508819700E+03 0.  0.
          5    1    3    3  502    0 -0.30232319135E+02  0.32249948408E+02 -0.29047100196E+03  0.29384507427E+03  0.41800000000E+01 0.  1.
         -5    1    3    3    0  502  0.51773460752E+02  0.63675081721E+00 -0.54908779359E+02  0.75586659806E+02  0.41800000000E+01 0.  1.
        -11    1    1    2    0    0  0.30524275468E+02  0.85729042607E+01 -0.98774648931E+02  0.10373840828E+03  0.00000000000E+00 0. -1.
         11    1    1    2    0    0 -0.52065417086E+02 -0.41459603486E+02 -0.16633989018E+03  0.17916100425E+03  0.00000000000E+00 0.  1.
</event>
<event>
 7    1  0.2564986E-009  0.9413331E+02  0.7561462E-02  0.1293140E+00
          1   -1    0    0  501    0  0.00000000000E+00  0.00000000000E+00  0.18144456920E+03  0.18144456920E+03  0.00000000000E+00 0. -1.
         -1   -1    0    0    0  501 -0.00000000000E+00 -0.00000000000E+00 -0.73703973478E+02  0.73703973478E+02  0.00000000000E+00 0.  1.
         25    2    1    2    0    0  0.61587801892E+00 -0.21793445122E+02  0.24948524763E+02  0.12940639472E+03  0.12509297562E+03 0.  0.
          5    1    3    3  502    0  0.51638804249E+02  0.18766295809E+02 -0.89429988613E+01  0.55822841125E+02  0.41800000000E+01 0. -1.
         -5    1    3    3    0  502 -0.51022926230E+02 -0.40559740931E+02  0.33891523625E+02  0.73583553591E+02  0.41800000000E+01 0. -1.
        -11    1    1    2    0    0  0.26203984616E+02 -0.83509869257E+01 -0.60561644172E+01  0.28161408343E+02  0.00000000000E+00 0.  1.
         11    1    1    2    0    0 -0.26819862635E+02  0.30144432048E+02  0.88848235380E+02  0.97580739623E+02  0.00000000000E+00 0. -1.
</event>
<event>
 7    1  0.2564986E-009  0.1353709E+03  0.7561462E-02  0.1219697E+00
         -1   -1    0    0    0  501 -0.00000000000E+00  0.00000000000E+00  0.23805812027E+02  0.23805812027E+02  0.00000000000E+00 0. -1.
          1   -1    0    0  501    0  0.00000000000E+00 -0.00000000000E+00 -0.13498915936E+04  0.13498915936E+04  0.00000000000E+00 0.  1.
         25    2    1    2    0    0  0.46100926622E+02 -0.10924988342E+03 -0.10034063718E+04  0.10181026354E+04  0.12509115387E+03 0.  0.
          5    1    3    3  502    0  0.58677800273E+02 -0.65394326097E+02 -0.28566210202E+03  0.29889765984E+03  0.41800000000E+01 0. -1.
         -5    1    3    3    0  502 -0.12576873650E+02 -0.43855557322E+02 -0.71774426981E+03  0.71920497558E+03  0.41800000000E+01 0. -1.
        -11    1    1    2    0    0  0.18220265349E+02  0.26490169793E+02 -0.15150098665E+03  0.15487496932E+03  0.00000000000E+00 0.  1.
         11    1    1    2    0    0 -0.64321191972E+02  0.82759713625E+02 -0.17117842315E+03  0.20071980093E+03  0.00000000000E+00 0. -1.
</event>
<event>
 7    1  0.2564986E-009  0.1349625E+03  0.7561462E-02  0.1220273E+00
          1   -1    0    0  501    0  0.00000000000E+00  0.00000000000E+00  0.77023269408E+02  0.77023269408E+02  0.00000000000E+00 0. -1.
         -1   -1    0    0    0  501 -0.00000000000E+00 -0.00000000000E+00 -0.31579424660E+03  0.31579424660E+03  0.00000000000E+00 0.  1.
         25    2    1    2    0    0 -0.31170781772E+02  0.10812689948E+03 -0.15362436461E+03  0.22783792219E+03  0.12508648751E+03 0.  0.
          5    1    3    3  502    0 -0.57248240106E+02  0.21639160855E+02 -0.16403600853E+02  0.63499329120E+02  0.41800000000E+01 0.  1.
         -5    1    3    3    0  502  0.26077458334E+02  0.86487738622E+02 -0.13722076376E+03  0.16433859307E+03  0.41800000000E+01 0.  1.
        -11    1    1    2    0    0  0.43167558605E+01 -0.76665558902E+02 -0.95301945272E+02  0.12238751193E+03  0.00000000000E+00 0.  1.
         11    1    1    2    0    0  0.26854025911E+02 -0.31461340575E+02  0.10155332687E+02  0.42592081898E+02  0.00000000000E+00 0. -1.
</event>
<event>
 7    1  0.2564986E-009  0.1210747E+03  0.7561462E-02  0.1241335E+00
         -2   -1    0    0    0  501 -0.00000000000E+00  0.00000000000E+00  0.11517830661E+03  0.11517830661E+03  0.00000000000E+00 0. -1.
          2   -1    0    0  501    0  0.00000000000E+00 -0.00000000000E+00 -0.14979323385E+03  0.14979323385E+03  0.00000000000E+00 0.  1.
         25    2    1    2    0    0 -0.18830165002E+02  0.65392542672E+02 -0.50344539401E+02  0.15103914748E+03  0.12508993433E+03 0.  0.
          5    1    3    3  502    0 -0.16175249713E+02  0.96841231243E+02 -0.87517023418E+01  0.98660668282E+02  0.41800000000E+01 0.  1.
         -5    1    3    3    0  502 -0.26549152888E+01 -0.31448688571E+02 -0.41592837059E+02  0.52378479194E+02  0.41800000000E+01 0.  1.
        -11    1    1    2    0    0  0.42865445039E+01  0.22524957992E+02  0.87684561012E+01  0.24548605229E+02  0.00000000000E+00 0. -1.
         11    1    1    2    0    0  0.14543620498E+02 -0.87917500663E+02  0.69611560619E+01  0.89383787757E+02  0.00000000000E+00 0.  1.
</event>
<event>
 7    1  0.2564986E-009  0.2804193E+03  0.7561462E-02  0.1095460E+00
          1   -1    0    0  501    0  0.00000000000E+00  0.00000000000E+00  0.50051338394E+03  0.50051338394E+03  0.00000000000E+00 0. -1.
         -1   -1    0    0    0  501 -0.00000000000E+00 -0.00000000000E+00 -0.17925641338E+03  0.17925641338E+03  0.00000000000E+00 0.  1.
         25    2    1    2    0    0  0.21254893826E+03 -0.18162288047E+03  0.17195667257E+03  0.35125728057E+03  0.12509459640E+03 0.  0.
          5    1    3    3  502    0  0.15146221165E+03 -0.14449933260E+03  0.18389083253E+03  0.27866497693E+03  0.41800000000E+01 0.  1.
         -5    1    3    3    0  502  0.61086726603E+02 -0.37123547869E+02 -0.11934159957E+02  0.72592303637E+02  0.41800000000E+01 0.  1.
        -11    1    1    2    0    0 -0.19190077489E+03  0.16861226977E+03  0.10156967301E+03  0.27490435318E+03  0.00000000000E+00 0.  1.
         11    1    1    2    0    0 -0.20648163369E+02  0.13010610697E+02  0.47730624980E+02  0.53608163578E+02  0.00000000000E+00 0. -1.
</event>
<event>
 7    1  0.2564986E-009  0.9520821E+02  0.7561462E-02  0.1290708E+00
         -2   -1    0    0    0  501 -0.00000000000E+00  0.00000000000E+00  0.15600219762E+02  0.15600219762E+02  0.00000000000E+00 0.  1.
          2   -1    0    0  501    0  0.00000000000E+00 -0.00000000000E+00 -0.16278349675E+04  0.16278349675E+04  0.00000000000E+00 0. -1.
         25    2    1    2    0    0  0.20240498821E+02 -0.19749648621E+02 -0.14433318787E+04  0.14490182670E+04  0.12508916723E+03 0.  0.
          5    1    3    3  502    0  0.35216427050E+02  0.45263594799E+02 -0.49389296074E+03  0.49722904060E+03  0.41800000000E+01 0. -1.
         -5    1    3    3    0  502 -0.14975928229E+02 -0.65013243420E+02 -0.94943891794E+03  0.95178922643E+03  0.41800000000E+01 0. -1.
        -11    1    1    2    0    0 -0.99251075337E+00  0.38902038542E+02 -0.16171098892E+03  0.16632738084E+03  0.00000000000E+00 0. -1.
         11    1    1    2    0    0 -0.19247988068E+02 -0.19152389921E+02 -0.71918801640E+01  0.28089539417E+02  0.00000000000E+00 0.  1.
</event>
<event>
 7    1  0.2564986E-009  0.1275347E+03  0.7561462E-02  0.1231160E+00
          1   -1    0    0  501    0  0.00000000000E+00  0.00000000000E+00  0.10741267057E+03  0.10741267057E+03  0.00000000000E+00 0. -1.
         -1   -1    0    0    0  501 -0.00000000000E+00 -0.00000000000E+00 -0.18328027019E+03  0.18328027019E+03  0.00000000000E+00 0.  1.
         25    2    1    2    0    0  0.20776591393E+02  0.65992080811E+02 -0.99336143970E+02  0.17407407639E+03  0.12508994002E+03 0.  0.
          5    1    3    3  502    0 -0.51793763317E+02  0.28676203953E+02 -0.55930845369E+02  0.81551520252E+02  0.41800000000E+01 0. -1.
         -5    1    3    3    0  502  0.72570354711E+02  0.37315876858E+02 -0.43405298601E+02  0.92522556142E+02  0.41800000000E+01 0. -1.
        -11    1    1    2    0    0 -0.31230127650E+02 -0.85967913957E+02  0.15898808055E+02  0.92836281704E+02  0.00000000000E+00 0.  1.
         11    1    1    2    0    0  0.10453536257E+02  0.19975833146E+02  0.75697363000E+01  0.23782582656E+02  0.00000000000E+00 0. -1.
</event>
<event>
 7    1  0.2564986E-009  0.3106124E+03  0.7561462E-02  0.1080053E+00
          1   -1    0    0  501    0  0.00000000000E+00  0.00000000000E+00  0.37487850568E+03  0.37487850568E+03  0.00000000000E+00 0. -1.
         -1   -1    0    0    0  501 -0.00000000000E+00 -0.00000000000E+00 -0.72345652323E+03  0.72345652323E+03  0.00000000000E+00 0.  1.
         25    2    1    2    0    0  0.25850777662E+03 -0.14470712205E+03  0.26165214635E+03  0.41458009036E+03  0.12509350060E+03 0.  0.
          5    1    3    3  502    0  0.26075485283E+03 -0.15635599985E+03  0.23231197269E+03  0.38265731016E+03  0.41800000000E+01 0. -1.
         -5    1    3    3    0  502 -0.22470762136E+01  0.11648877801E+02  0.29340173658E+02  0.31922780202E+02  0.41800000000E+01 0. -1.
        -11    1    1    2    0    0 -0.55719423802E+02  0.67649896118E+02 -0.22783883518E+03  0.24411410744E+03  0.00000000000E+00 0. -1.
         11    1    1    2    0    0 -0.20278835281E+03  0.77057225927E+02 -0.38239132871E+03  0.43964083111E+03  0.00000000000E+00 0.  1.
</event>
<event>
 7    1  0.2564986E-009  0.1024549E+03  0.7561462E-02  0.1275217E+00
         -2   -1    0    0    0  501 -0.00000000000E+00  0.00000000000E+00  0.73154170507E+02  0.73154170507E+02  0.00000000000E+00 0. -1.
          2   -1    0    0  501    0  0.00000000000E+00 -0.00000000000E+00 -0.19736517378E+03  0.19736517378E+03  0.00000000000E+00 0.  1.
         25    2    1    2    0    0 -0.35316175954E+02  0.17978372313E+02 -0.31301924217E+02  0.13489493476E+03  0.12508548600E+03 0.  0.
          5    1    3    3  502    0  0.22898621207E+01  0.55744870713E+02 -0.53124791263E+02  0.77152121981E+02  0.41800000000E+01 0. -1.
         -5    1    3    3    0  502 -0.37606038075E+02 -0.37766498400E+02  0.21822867046E+02  0.57742812775E+02  0.41800000000E+01 0. -1.
        -11    1    1    2    0    0  0.61577706810E+02  0.33517236284E+01 -0.42427623152E+02  0.74854199839E+02  0.00000000000E+00 0.  1.
         11    1    1    2    0    0 -0.26261530856E+02 -0.21330095942E+02 -0.50481455902E+02  0.60770209690E+02  0.00000000000E+00 0. -1.
</event>
<event>
 7    1  0.2564986E-009  0.7637373E+02  0.7561462E-02  0.1339669E+00
         -1   -1    0    0    0  501 -0.00000000000E+00  0.00000000000E+00  0.22331106185E+03  0.22331106185E+03  0.00000000000E+00 0.  1.
          1   -1    0    0  501    0  0.00000000000E+00 -0.00000000000E+00 -0.81753352729E+02  0.81753352729E+02  0.00000000000E+00 0. -1.
         25    2    1    2    0    0  0.45023318507E+02  0.24604049891E+02  0.14855240778E+03  0.20087004333E+03  0.12509395657E+03 0.  0.
          5    1    3    3  502    0  0.21764591211E+02  0.55855538952E+02  0.15344871623E+02  0.62019965715E+02  0.41800000000E+01 0.  1.
         -5    1    3    3    0  502  0.23258727295E+02 -0.31251489062E+02  0.13320753616E+03  0.13885007761E+03  0.41800000000E+01 0.  1.
        -11    1    1    2    0    0 -0.18047923724E+02 -0.17721288399E+01  0.40860571295E+02  0.44704074511E+02  0.00000000000E+00 0.  1.
         11    1    1    2    0    0 -0.26975394783E+02 -0.22831921051E+02 -0.47855269959E+02  0.59490296733E+02  0.00000000000E+00 0. -1.
</event>
<event>
 7    1  0.2564986E-009  0.8447080E+02  0.7561462E-02  0.1316822E+00
          2   -1    0    0  501    0  0.00000000000E+00  0.00000000000E+00  0.41004230138E+03  0.41004230138E+03  0.00000000000E+00 0. -1.
         -2   -1    0    0    0  501 -0.00000000000E+00 -0.00000000000E+00 -0.37559214578E+02  0.37559214578E+02  0.00000000000E+00 0.  1.
         25    2    1    2    0    0 -0.19324586605E+02  0.41975291747E+02  0.13730556372E+03  0.19140386445E+03  0.12508899526E+03 0.  0.
          5    1    3    3  502    0  0.19839261807E+02  0.27303208403E+02 -0.12179005270E+02  0.36122874575E+02  0.41800000000E+01 0.  1.
         -5    1    3    3    0  502 -0.39163848413E+02  0.14672083344E+02  0.14948456899E+03  0.15528098988E+03  0.41800000000E+01 0.  1.
        -11    1    1    2    0    0 -0.30598537170E+02 -0.55340035196E+01  0.35598083826E+02  0.47266470610E+02  0.00000000000E+00 0.  1.
         11    1    1    2    0    0  0.49923123775E+02 -0.36441288227E+02  0.19957943926E+03  0.20893118089E+03  0.00000000000E+00 0. -1.
</event>
<event>
 7    1  0.2564986E-009  0.1089589E+03  0.7561462E-02  0.1262510E+00
         -1   -1    0    0    0  501 -0.00000000000E+00  0.00000000000E+00  0.43044796678E+02  0.43044796678E+02  0.00000000000E+00 0.  1.
          1   -1    0    0  501    0  0.00000000000E+00 -0.00000000000E+00 -0.54310578278E+03  0.54310578278E+03  0.00000000000E+00 0. -1.
         25    2    1    2    0    0 -0.11759825373E+02 -0.51885465045E+02 -0.44227790189E+03  0.46269534047E+03  0.12508733197E+03 0.  0.
          5    1    3    3  502    0 -0.29321903760E+02 -0.88481251243E+02 -0.34018984334E+03  0.35275389122E+03  0.41800000000E+01 0. -1.
         -5    1    3    3    0  502  0.17562078387E+02  0.36595786198E+02 -0.10208805855E+03  0.10994144925E+03  0.41800000000E+01 0. -1.
        -11    1    1    2    0    0 -0.38171876116E+01 -0.14820424448E+02  0.16434878479E+02  0.22457095376E+02  0.00000000000E+00 0.  1.
         11    1    1    2    0    0  0.15577012985E+02  0.66705889493E+02 -0.74217962695E+02  0.10099814361E+03  0.00000000000E+00 0. -1.
</event>
<event>
 7    1  0.2564986E-009  0.1874088E+03  0.7561462E-02  0.1160819E+00
         -2   -1    0    0    0  501 -0.00000000000E+00  0.00000000000E+00  0.94943312745E+02  0.94943312745E+02  0.00000000000E+00 0. -1.
          2   -1    0    0  501    0  0.00000000000E+00 -0.00000000000E+00 -0.42225120714E+03  0.42225120714E+03  0.00000000000E+00 0.  1.
         25    2    1    2    0    0 -0.10248704946E+03 -0.13158591461E+03 -0.20091481290E+03  0.28953526189E+03  0.12508180366E+03 0.  0.
          5    1    3    3  502    0 -0.64186425309E+02  0.59021441978E+01 -0.49193185972E+02  0.81192206807E+02  0.41800000000E+01 0. -1.
         -5    1    3    3    0  502 -0.38300624146E+02 -0.13748805881E+03 -0.15172162692E+03  0.20834305508E+03  0.41800000000E+01 0. -1.
        -11    1    1    2    0    0  0.30909595244E+02  0.51192538933E+02 -0.10050420785E+03  0.11694945454E+03  0.00000000000E+00 0.  1.
         11    1    1    2    0    0  0.71577454211E+02  0.80393375675E+02 -0.25888873650E+02  0.11070980346E+03  0.00000000000E+00 0. -1.
</event>
<event>
 7    1  0.2564986E-009  0.1206190E+03  0.7561462E-02  0.1242079E+00
         -1   -1    0    0    0  501 -0.00000000000E+00  0.00000000000E+00  0.61158846224E+02  0.61158846224E+02  0.00000000000E+00 0.  1.
          1   -1    0    0  501    0  0.00000000000E+00 -0.00000000000E+00 -0.28408958004E+03  0.28408958004E+03  0.00000000000E+00 0. -1.
         25    2    1    2    0    0 -0.53905477435E+02  0.14385838423E+01 -0.18985781105E+03  0.23366887132E+03  0.12508910019E+03 0.  0.
          5    1    3    3  502    0  0.39268242081E+02 -0.13064322317E+02 -0.64511321297E+02  0.76758415364E+02  0.41800000000E+01 0. -1.
         -5    1    3    3    0  502 -0.93173719516E+02  0.14502906159E+02 -0.12534648975E+03  0.15691045596E+03  0.41800000000E+01 0. -1.
        -11    1    1    2    0    0  0.20145478832E+02  0.44148723575E+02 -0.23976957540E+02  0.54128038978E+02  0.00000000000E+00 0. -1.
         11    1    1    2    0    0  0.33759998602E+02 -0.45587307417E+02 -0.90959652268E+01  0.57451515964E+02  0.00000000000E+00 0.  1.
</event>
<event>
 7    1  0.2564986E-009  0.9716217E+02  0.7561462E-02  0.1286379E+00
          4   -1    0    0  501    0  0.00000000000E+00  0.00000000000E+00  0.21929354521E+03  0.21929354521E+03  0.00000000000E+00 0. -1.
         -4   -1    0    0    0  501 -0.00000000000E+00 -0.00000000000E+00 -0.65667656672E+02  0.65667656672E+02  0.00000000000E+00 0.  1.
         25    2    1    2    0    0 -0.49417635612E+02 -0.12544367520E+02  0.79543215623E+02  0.15676745391E+03  0.12509775213E+03 0.  0.
          5    1    3    3  502    0 -0.87400767186E+02  0.10287287641E+02  0.66496674954E+02  0.11038116946E+03  0.41800000000E+01 0.  1.
         -5    1    3    3    0  502  0.37983131574E+02 -0.22831655161E+02  0.13046540669E+02  0.46386284449E+02  0.41800000000E+01 0.  1.
        -11    1    1    2    0    0  0.18431957956E+02  0.22569964980E+02  0.88058242487E+02  0.92754484868E+02  0.00000000000E+00 0. -1.
         11    1    1    2    0    0  0.30985677656E+02 -0.10025597460E+02 -0.13975569574E+02  0.35439263101E+02  0.00000000000E+00 0.  1.
</event>
<event>
 7    1  0.2564986E-009  0.1084703E+03  0.7561462E-02  0.1263429E+00
         -1   -1    0    0    0  501 -0.00000000000E+00  0.00000000000E+00  0.86538103452E+02  0.86538103452E+02  0.00000000000E+00 0.  1.
          1   -1    0    0  501    0  0.00000000000E+00 -0.00000000000E+00 -0.16289935118E+03  0.16289935118E+03  0.00000000000E+00 0. -1.
         25    2    1    2    0    0 -0.57109434142E+01 -0.44783033279E+02 -0.60139831145E+02  0.14595603596E+03  0.12509288628E+03 0.  0.
          5    1    3    3  502    0  0.38933543761E+02 -0.67739959308E+02 -0.54310426766E+02  0.95245040670E+02  0.41800000000E+01 0.  1.
         -5    1    3    3    0  502 -0.44644487175E+02  0.22956926029E+02 -0.58294043796E+01  0.50710995290E+02  0.41800000000E+01 0.  1.
        -11    1    1    2    0    0 -0.23656940377E+02 -0.10376179019E+02  0.18704802420E+02  0.31893346525E+02  0.00000000000E+00 0. -1.
         11    1    1    2    0    0  0.29367883791E+02  0.55159212298E+02 -0.34926219000E+02  0.71588072144E+02  0.00000000000E+00 0.  1.
</event>
<event>
 7    1  0.2564986E-009  0.7504590E+02  0.7561462E-02  0.1343729E+00
          1   -1    0    0  501    0  0.00000000000E+00  0.00000000000E+00  0.35067065696E+02  0.35067065696E+02  0.00000000000E+00 0. -1.
         -1   -1    0    0    0  501 -0.00000000000E+00 -0.00000000000E+00 -0.42290227068E+03  0.42290227068E+03  0.00000000000E+00 0.  1.
         25    2    1    2    0    0 -0.44343474150E+02  0.44011366111E+02 -0.18985405105E+03  0.23578698147E+03  0.12509035088E+03 0.  0.
          5    1    3    3  502    0 -0.32333304432E+02  0.54494083325E+02 -0.22118784385E+02  0.67244038513E+02  0.41800000000E+01 0. -1.
         -5    1    3    3    0  502 -0.12010169718E+02 -0.10482717214E+02 -0.16773526667E+03  0.16854294296E+03  0.41800000000E+01 0. -1.
        -11    1    1    2    0    0  0.18379355151E+02  0.71458259622E+00 -0.88529188513E+00  0.18414534091E+02  0.00000000000E+00 0. -1.
         11    1    1    2    0    0  0.25964118999E+02 -0.44725948707E+02 -0.19709586205E+03  0.20376782081E+03  0.00000000000E+00 0.  1.
</event>
<event>
 7    1  0.2564986E-009  0.9606575E+02  0.7561462E-02  0.1288794E+00
          2   -1    0    0  501    0  0.00000000000E+00  0.00000000000E+00  0.10071489983E+03  0.10071489983E+03  0.00000000000E+00 0. -1.
         -2   -1    0    0    0  501 -0.00000000000E+00 -0.00000000000E+00 -0.12396509095E+03  0.12396509095E+03  0.00000000000E+00 0.  1.
         25    2    1    2    0    0  0.21816643055E+02  0.13640348696E+02 -0.37151910375E+01  0.12775037976E+03  0.12507730352E+03 0.  0.
          5    1    3    3  502    0  0.42181720937E+02  0.57056244113E+02 -0.24686645659E+02  0.75243707028E+02  0.41800000000E+01 0.  1.
         -5    1    3    3    0  502 -0.20365077882E+02 -0.43415895417E+02  0.20971454621E+02  0.52506672728E+02  0.41800000000E+01 0.  1.
        -11    1    1    2    0    0 -0.18099551847E+02  0.26781272615E+02 -0.40034580939E+02  0.51454815235E+02  0.00000000000E+00 0.  1.
         11    1    1    2    0    0 -0.37170912078E+01 -0.40421621311E+02  0.20499580865E+02  0.45474795789E+02  0.00000000000E+00 0. -1.
</event>
<event>
 7    1  0.2587917E-009  0.1599321E+03  0.7561462E-02  0.1188773E+00
         -2   -1    0    0    0  501 -0.00000000000E+00  0.00000000000E+00  0.37891342336E+03  0.37891342336E+03  0.00000000000E+00 0.  1.
          2   -1    0    0  501    0  0.00000000000E+00 -0.00000000000E+00 -0.88981008290E+02  0.88981008290E+02  0.00000000000E+00 0. -1.
         25    2    1    2    0    0 -0.17606400840E+02 -0.13411073709E+03  0.77123411791E+02  0.19972798556E+03  0.12509025709E+03 0.  0.
          5    1    3    3  502    0 -0.68560084569E+02 -0.10448735414E+03  0.49173490524E+02  0.13436367419E+03  0.41800000000E+01 0.  1.
         -5    1    3    3    0  502  0.50953683729E+02 -0.29623382945E+02  0.27949921268E+02  0.65364311375E+02  0.41800000000E+01 0.  1.
        -11    1    1    2    0    0  0.95561528025E+00  0.49062652237E+02  0.13597740961E+02  0.50921072301E+02  0.00000000000E+00 0. -1.
         11    1    1    2    0    0  0.16650785560E+02  0.85048084850E+02  0.19921126232E+03  0.21724537379E+03  0.00000000000E+00 0.  1.
</event>
<event>
 7    1  0.2564986E-009  0.1566573E+03  0.7561462E-02  0.1192523E+00
          1   -1    0    0  501    0  0.00000000000E+00  0.00000000000E+00  0.24313167692E+04  0.24313167692E+04  0.00000000000E+00 0. -1.
         -1   -1    0    0    0  501 -0.00000000000E+00 -0.00000000000E+00 -0.13142087409E+02  0.13142087409E+02  0.00000000000E+00 0.  1.
         25    2    1    2    0    0 -0.45043200735E+02 -0.10902463401E+03  0.18123484190E+04  0.18204859773E+04  0.12508853342E+03 0.  0.
          5    1    3    3  502    0  0.17358295432E+02 -0.10041590292E+03  0.85569118550E+03  0.86174795696E+03  0.41800000000E+01 0.  1.
         -5    1    3    3    0  502 -0.62401496167E+02 -0.86087310932E+01  0.95665723346E+03  0.95873802038E+03  0.41800000000E+01 0.  1.
        -11    1    1    2    0    0  0.34769562831E+01  0.10649274950E+03  0.39799994741E+03  0.41201547672E+03  0.00000000000E+00 0.  1.
         11    1    1    2    0    0  0.41566244452E+02  0.25318845056E+01  0.20782631545E+03  0.21195740258E+03  0.00000000000E+00 0. -1.
</event>
<event>
 7    1  0.2564986E-009  0.1613217E+03  0.7561462E-02  0.1187213E+00
         -1   -1    0    0    0  501 -0.00000000000E+00  0.00000000000E+00  0.23062213624E+03  0.23062213624E+03  0.00000000000E+00 0.  1.
          1   -1    0    0  501    0  0.00000000000E+00 -0.00000000000E+00 -0.12773173815E+03  0.12773173815E+03  0.00000000000E+00 0. -1.
         25    2    1    2    0    0  0.57903071772E+02 -0.10826715364E+03  0.10712764293E+03  0.20542097909E+03  0.12508758729E+03 0.  0.
          5    1    3    3  502    0  0.17960657751E+01  0.27264843535E+02  0.24923634279E+02  0.37219047421E+02  0.41800000000E+01 0.  1.
         -5    1    3    3    0  502  0.56107005997E+02 -0.13553199717E+03  0.82204008649E+02  0.16820193167E+03  0.41800000000E+01 0.  1.
        -11    1    1    2    0    0  0.82675020059E+01 -0.98540993896E+01  0.10682886711E+02  0.16720614004E+02  0.00000000000E+00 0.  1.
         11    1    1    2    0    0 -0.66170573778E+02  0.11812125303E+03 -0.14920131553E+02  0.13621228130E+03  0.00000000000E+00 0. -1.
</event>
<event>
 7    1  0.2564986E-009  0.1086008E+03  0.7561462E-02  0.1263183E+00
         -2   -1    0    0    0  501 -0.00000000000E+00  0.00000000000E+00  0.53757536386E+02  0.53757536386E+02  0.00000000000E+00 0.  1.
          2   -1    0    0  501    0  0.00000000000E+00 -0.00000000000E+00 -0.33618830055E+03  0.33618830055E+03  0.00000000000E+00 0. -1.
         25    2    1    2    0    0 -0.21017661219E+00 -0.54436967626E+02 -0.72900552917E+02  0.15467462128E+03  0.12508525187E+03 0.  0.
          5    1    3    3  502    0 -0.50824037372E+01 -0.88264733076E+02 -0.80242626301E+02  0.11946901443E+03  0.41800000000E+01 0.  1.
         -5    1    3    3    0  502  0.48722271251E+01  0.33827765449E+02  0.73420733849E+01  0.35205606855E+02  0.41800000000E+01 0.  1.
        -11    1    1    2    0    0 -0.74336845787E+01  0.73420443554E+02 -0.10249650865E+03  0.12629867570E+03  0.00000000000E+00 0.  1.
         11    1    1    2    0    0  0.76438611909E+01 -0.18983475928E+02 -0.10703370260E+03  0.10897253996E+03  0.00000000000E+00 0. -1.
</event>
<event>
 7    1  0.2564986E-009  0.1007750E+03  0.7561462E-02  0.1278675E+00
         -1   -1    0    0    0  501 -0.00000000000E+00  0.00000000000E+00  0.91290610811E+02  0.91290610811E+02  0.00000000000E+00 0.  1.
          1   -1    0    0  501    0  0.00000000000E+00 -0.00000000000E+00 -0.17161976228E+03  0.17161976228E+03  0.00000000000E+00 0. -1.
         25    2    1    2    0    0 -0.30540401771E+01  0.60510116932E+02 -0.16276492440E+02  0.13994019628E+03  0.12509009919E+03 0.  0.
          5    1    3    3  502    0 -0.49175865536E+02 -0.12548233452E+02 -0.16207258759E+02  0.53440355074E+02  0.41800000000E+01 0. -1.
         -5    1    3    3    0  502  0.46121825359E+02  0.73058350384E+02 -0.69233681265E-01  0.86499841206E+02  0.41800000000E+01 0. -1.
        -11    1    1    2    0    0  0.12025350734E+02 -0.39262660430E+02 -0.83338387779E+02  0.92905610390E+02  0.00000000000E+00 0. -1.
         11    1    1    2    0    0 -0.89713105566E+01 -0.21247456503E+02  0.19285728747E+02  0.30064566424E+02  0.00000000000E+00 0.  1.
</event>
<event>
 7    1  0.4609920E-009  0.8750380E+02  0.7561462E-02  0.1309012E+00
         -1   -1    0    0    0  501 -0.00000000000E+00  0.00000000000E+00  0.33292399205E+02  0.33292399205E+02  0.00000000000E+00 0.  1.
          1   -1    0    0  501    0  0.00000000000E+00 -0.00000000000E+00 -0.44444529008E+03  0.44444529008E+03  0.00000000000E+00 0. -1.
         25    2    1    2    0    0 -0.39935598666E+01  0.40458933975E+01 -0.12384110112E+03  0.17612245051E+03  0.12510068535E+03 0.  0.
          5    1    3    3  502    0  0.29810376402E+02 -0.26349543063E+02 -0.12418493104E+03  0.13046963807E+03  0.41800000000E+01 0.  1.
         -5    1    3    3    0  502 -0.33803936269E+02  0.30395436460E+02  0.34382991913E+00  0.45652812442E+02  0.41800000000E+01 0.  1.
        -11    1    1    2    0    0 -0.37374101541E+02  0.19074751838E+02 -0.16979341086E+03  0.17490132074E+03  0.00000000000E+00 0.  1.
         11    1    1    2    0    0  0.41367661408E+02 -0.23120645235E+02 -0.11751837889E+03  0.12671391804E+03  0.00000000000E+00 0. -1.
</event>
<event>
 7    1  0.2564986E-009  0.1171481E+03  0.7561462E-02  0.1247877E+00
          1   -1    0    0  501    0  0.00000000000E+00  0.00000000000E+00  0.86078311328E+03  0.86078311328E+03  0.00000000000E+00 0. -1.
         -1   -1    0    0    0  501 -0.00000000000E+00 -0.00000000000E+00 -0.32434868602E+02  0.32434868602E+02  0.00000000000E+00 0.  1.
         25    2    1    2    0    0 -0.56403237946E+02  0.58772556750E+02  0.70014411555E+03  0.71588009696E+03  0.12508793708E+03 0.  0.
          5    1    3    3  502    0 -0.78783966029E+02  0.34576834167E+02  0.24831757544E+03  0.26283371442E+03  0.41800000000E+01 0.  1.
         -5    1    3    3    0  502  0.22380728084E+02  0.24195722583E+02  0.45182654011E+03  0.45304638254E+03  0.41800000000E+01 0.  1.
        -11    1    1    2    0    0  0.62628619638E+02 -0.72620718090E+01  0.38982003585E+02  0.74126097214E+02  0.00000000000E+00 0.  1.
         11    1    1    2    0    0 -0.62253816920E+01 -0.51510484941E+02  0.89222125541E+02  0.10321178771E+03  0.00000000000E+00 0. -1.
</event>
<event>
 7    1  0.2564986E-009  0.1454173E+03  0.7561462E-02  0.1206220E+00
          2   -1    0    0  501    0  0.00000000000E+00  0.00000000000E+00  0.56998491438E+03  0.56998491438E+03  0.00000000000E+00 0.  1.
         -2   -1    0    0    0  501 -0.00000000000E+00 -0.00000000000E+00 -0.40969931137E+02  0.40969931137E+02  0.00000000000E+00 0. -1.
         25    2    1    2    0    0 -0.80254950005E+01 -0.10057966074E+03  0.36484482481E+03  0.39866951904E+03  0.12507982449E+03 0.  0.
          5    1    3    3  502    0 -0.42357792421E+02 -0.11258306475E+03  0.31174202732E+03  0.33417015583E+03  0.41800000000E+01 0.  1.
         -5    1    3    3    0  502  0.34332297420E+02  0.12003404003E+02  0.53102797484E+02  0.64499363210E+02  0.41800000000E+01 0.  1.
        -11    1    1    2    0    0 -0.35462110480E+02  0.16304546524E+02  0.38249805567E+02  0.54648395612E+02  0.00000000000E+00 0.  1.
         11    1    1    2    0    0  0.43487605481E+02  0.84275114219E+02  0.12592035288E+03  0.15763693087E+03  0.00000000000E+00 0. -1.
</event>
<event>
 7    1  0.2564986E-009  0.1076050E+03  0.7561462E-02  0.1265070E+00
          1   -1    0    0  501    0  0.00000000000E+00  0.00000000000E+00  0.83393034449E+03  0.83393034449E+03  0.00000000000E+00 0. -1.
         -1   -1    0    0    0  501 -0.00000000000E+00 -0.00000000000E+00 -0.37144107110E+02  0.37144107110E+02  0.00000000000E+00 0.  1.
         25    2    1    2    0    0 -0.13591180007E+02 -0.79953078686E+02  0.69953860509E+03  0.71524705480E+03  0.12508746706E+03 0.  0.
          5    1    3    3  502    0 -0.15428817803E+01 -0.84510613133E+02  0.22303205679E+03  0.23854809782E+03  0.41800000000E+01 0.  1.
         -5    1    3    3    0  502 -0.12048298226E+02  0.45575344472E+01  0.47650654830E+03  0.47669895698E+03  0.41800000000E+01 0.  1.
        -11    1    1    2    0    0  0.41218181988E+01 -0.18083065172E+02  0.17331994832E+01  0.18627684014E+02  0.00000000000E+00 0.  1.
         11    1    1    2    0    0  0.94693618080E+01  0.98036143858E+02  0.95514432809E+02  0.13719971279E+03  0.00000000000E+00 0. -1.
</event>
<event>
 7    1  0.2564986E-009  0.9772099E+02  0.7561462E-02  0.1285163E+00
          1   -1    0    0  501    0  0.00000000000E+00  0.00000000000E+00  0.96955718757E+02  0.96955718757E+02  0.00000000000E+00 0. -1.
         -1   -1    0    0    0  501 -0.00000000000E+00 -0.00000000000E+00 -0.13223532622E+03  0.13223532622E+03  0.00000000000E+00 0.  1.
         25    2    1    2    0    0 -0.33393775695E+02  0.94441536229E+01 -0.21874404685E+02  0.13164542422E+03  0.12509073445E+03 0.  0.
          5    1    3    3  502    0 -0.47421339400E+02  0.46565528245E+02  0.24054190517E+02  0.70804013535E+02  0.41800000000E+01 0.  1.
         -5    1    3    3    0  502  0.14027563705E+02 -0.37121374622E+02 -0.45928595202E+02  0.60841410689E+02  0.41800000000E+01 0.  1.
        -11    1    1    2    0    0  0.41801333530E+02  0.28167774460E+02  0.11444196955E+02  0.51688921897E+02  0.00000000000E+00 0. -1.
         11    1    1    2    0    0 -0.84075578356E+01 -0.37611928083E+02 -0.24849399730E+02  0.45856698854E+02  0.00000000000E+00 0.  1.
</event>
<event>
 7    1  0.2564986E-009  0.1030687E+03  0.7561462E-02  0.1273972E+00
         -1   -1    0    0    0  501 -0.00000000000E+00  0.00000000000E+00  0.26886168777E+02  0.26886168777E+02  0.00000000000E+00 0.  1.
          1   -1    0    0  501    0  0.00000000000E+00 -0.00000000000E+00 -0.98479409166E+03  0.98479409166E+03  0.00000000000E+00 0. -1.
         25    2    1    2    0    0  0.30654577053E+02  0.27778985083E+02 -0.85736909077E+03  0.86743320454E+03  0.12508889410E+03 0.  0.
          5    1    3    3  502    0 -0.12559951047E+02 -0.29758694892E+02 -0.75204714696E+02  0.81954583792E+02  0.41800000000E+01 0. -1.
         -5    1    3    3    0  502  0.43214528101E+02  0.57537679975E+02 -0.78216437607E+03  0.78547862075E+03  0.41800000000E+01 0. -1.
        -11    1    1    2    0    0  0.51832991505E+01  0.31659303466E+02 -0.19473913654E+02  0.37528807589E+02  0.00000000000E+00 0.  1.
         11    1    1    2    0    0 -0.35837876204E+02 -0.59438288548E+02 -0.81064918454E+02  0.10671824830E+03  0.00000000000E+00 0. -1.
</event>
<event>
 7    1  0.2564986E-009  0.1299801E+03  0.7561462E-02  0.1227485E+00
          2   -1    0    0  501    0  0.00000000000E+00  0.00000000000E+00  0.11741472055E+04  0.11741472055E+04  0.00000000000E+00 0. -1.
         -2   -1    0    0    0  501 -0.00000000000E+00 -0.00000000000E+00 -0.14565518658E+02  0.14565518658E+02  0.00000000000E+00 0.  1.
         25    2    1    2    0    0 -0.64947017693E+02 -0.14536821595E+02  0.64551366977E+03  0.66088220053E+03  0.12509176962E+03 0.  0.
          5    1    3    3  502    0 -0.87795828714E+02  0.28126186061E+02  0.38771219061E+03  0.39854410676E+03  0.41800000000E+01 0. -1.
         -5    1    3    3    0  502  0.22848811022E+02 -0.42663007656E+02  0.25780147916E+03  0.26233809377E+03  0.41800000000E+01 0. -1.
        -11    1    1    2    0    0  0.68116482305E+02  0.49366522596E+02  0.38697015309E+03  0.39600859599E+03  0.00000000000E+00 0.  1.
         11    1    1    2    0    0 -0.31694646118E+01 -0.34829701001E+02  0.12709786397E+03  0.13182192763E+03  0.00000000000E+00 0. -1.
</event>
<event>
 7    1  0.2564986E-009  0.1352079E+03  0.7561462E-02  0.1219926E+00
         -2   -1    0    0    0  501 -0.00000000000E+00  0.00000000000E+00  0.97741499048E+02  0.97741499048E+02  0.00000000000E+00 0.  1.
          2   -1    0    0  501    0  0.00000000000E+00 -0.00000000000E+00 -0.23549722584E+03  0.23549722584E+03  0.00000000000E+00 0. -1.
         25    2    1    2    0    0  0.99899505113E+02  0.29982329557E+02 -0.96400662389E+02  0.18925919532E+03  0.12508838513E+03 0.  0.
          5    1    3    3  502    0  0.74885691762E+02 -0.21282990691E+02 -0.10566954363E+03  0.13131777250E+03  0.41800000000E+01 0.  1.
         -5    1    3    3    0  502  0.25013813351E+02  0.51265320248E+02  0.92688812402E+01  0.57941422816E+02  0.41800000000E+01 0.  1.
        -11    1    1    2    0    0 -0.75658115053E+02 -0.60079833728E+02 -0.16444445728E+02  0.98000798922E+02  0.00000000000E+00 0. -1.
         11    1    1    2    0    0 -0.24241390061E+02  0.30097504171E+02 -0.24910618675E+02  0.45978730650E+02  0.00000000000E+00 0.  1.
</event>
<event>
 7    1  0.3675089E-009  0.9090767E+02  0.7561462E-02  0.1300668E+00
          1   -1    0    0  501    0  0.00000000000E+00  0.00000000000E+00  0.50511968129E+03  0.50511968129E+03  0.00000000000E+00 0. -1.
         -1   -1    0    0    0  501 -0.00000000000E+00 -0.00000000000E+00 -0.44596122235E+02  0.44596122235E+02  0.00000000000E+00 0.  1.
         25    2    1    2    0    0 -0.51452804992E+01  0.10373294260E+02  0.43616752089E+03  0.45389827280E+03  0.12508979427E+03 0.  0.
          5    1    3    3  502    0 -0.64025775326E+02  0.55436144809E+00  0.26180647458E+03  0.26955465077E+03  0.41800000000E+01 0.  1.
         -5    1    3    3    0  502  0.58880494827E+02  0.98189328123E+01  0.17436104631E+03  0.18434362203E+03  0.41800000000E+01 0.  1.
        -11    1    1    2    0    0 -0.25109380969E+02  0.18569218174E+01 -0.25755125163E+02  0.36017435270E+02  0.00000000000E+00 0.  1.
         11    1    1    2    0    0  0.30254661468E+02 -0.12230216078E+02  0.50111163332E+02  0.59800095455E+02  0.00000000000E+00 0. -1.
</event>
<event>
 7    1  0.2564986E-009  0.1161898E+03  0.7561462E-02  0.1249518E+00
          2   -1    0    0  501    0  0.00000000000E+00  0.00000000000E+00  0.26641917126E+03  0.26641917126E+03  0.00000000000E+00 0. -1.
         -2   -1    0    0    0  501 -0.00000000000E+00 -0.00000000000E+00 -0.51853834052E+02  0.51853834052E+02  0.00000000000E+00 0.  1.
         25    2    1    2    0    0 -0.26989936277E+02  0.32389991549E+02  0.98258412525E+02  0.16457274805E+03  0.12510757593E+03 0.  0.
          5    1    3    3  502    0  0.36662928221E+02 -0.26240458113E+02  0.36795746806E+02  0.58344934062E+02  0.41800000000E+01 0. -1.
         -5    1    3    3    0  502 -0.63652864498E+02  0.58630449661E+02  0.61462665719E+02  0.10622781398E+03  0.41800000000E+01 0. -1.
        -11    1    1    2    0    0 -0.14225901617E+02  0.25616156596E+02  0.35394184626E+02  0.45949015886E+02  0.00000000000E+00 0.  1.
         11    1    1    2    0    0  0.41215837894E+02 -0.58006148144E+02  0.80912740060E+02  0.10775124138E+03  0.00000000000E+00 0. -1.
</event>
<event>
 7    1  0.2564986E-009  0.1065829E+03  0.7561462E-02  0.1267032E+00
         -1   -1    0    0    0  501 -0.00000000000E+00  0.00000000000E+00  0.29897025567E+03  0.29897025567E+03  0.00000000000E+00 0.  1.
          1   -1    0    0  501    0  0.00000000000E+00 -0.00000000000E+00 -0.10515092119E+03  0.10515092119E+03  0.00000000000E+00 0. -1.
         25    2    1    2    0    0 -0.69452830642E+02  0.68306155946E+02  0.21710155244E+03  0.26883175960E+03  0.12509198324E+03 0.  0.
          5    1    3    3  502    0 -0.72332303912E+02  0.34734774587E+02  0.42377533689E+02  0.90839388574E+02  0.41800000000E+01 0.  1.
         -5    1    3    3    0  502  0.28794732704E+01  0.33571381359E+02  0.17472401875E+03  0.17799237102E+03  0.41800000000E+01 0.  1.
        -11    1    1    2    0    0  0.25099804702E+02 -0.36450308454E+02  0.34254614040E+02  0.55964307961E+02  0.00000000000E+00 0.  1.
         11    1    1    2    0    0  0.44353025940E+02 -0.31855847492E+02 -0.57536832001E+02  0.79325109304E+02  0.00000000000E+00 0. -1.
</event>
<event>
 7    1  0.2564986E-009  0.1554699E+03  0.7561462E-02  0.1193908E+00
         -1   -1    0    0    0  501 -0.00000000000E+00  0.00000000000E+00  0.21459661358E+03  0.21459661358E+03  0.00000000000E+00 0.  1.
          1   -1    0    0  501    0  0.00000000000E+00 -0.00000000000E+00 -0.15560463100E+03  0.15560463100E+03  0.00000000000E+00 0. -1.
         25    2    1    2    0    0 -0.84133556425E+02  0.10638176995E+03 -0.25938457666E+02  0.18632142296E+03  0.12508929919E+03 0.  0.
          5    1    3    3  502    0  0.86866631790E+01  0.19032253280E+02 -0.51958057206E+02  0.56167578644E+02  0.41800000000E+01 0. -1.
         -5    1    3    3    0  502 -0.92820219603E+02  0.87349516672E+02  0.26019599540E+02  0.13015384432E+03  0.41800000000E+01 0. -1.
        -11    1    1    2    0    0  0.70337990961E+02 -0.12225705414E+03  0.66596169595E+02  0.15597842820E+03  0.00000000000E+00 0.  1.
         11    1    1    2    0    0  0.13795565463E+02  0.15875284188E+02  0.18334270650E+02  0.27901393420E+02  0.00000000000E+00 0. -1.
</event>
<event>
 7    1  0.2564986E-009  0.1206360E+03  0.7561462E-02  0.1242052E+00
          1   -1    0    0  501    0  0.00000000000E+00  0.00000000000E+00  0.42010911170E+03  0.42010911170E+03  0.00000000000E+00 0. -1.
         -1   -1    0    0    0  501 -0.00000000000E+00 -0.00000000000E+00 -0.57292239923E+02  0.57292239923E+02  0.00000000000E+00 0.  1.
         25    2    1    2    0    0 -0.97996185485E+01  0.77412553473E+02  0.74060862535E+02  0.16498790204E+03  0.12508901031E+03 0.  0.
          5    1    3    3  502    0 -0.91134090920E+01 -0.22613117023E+02  0.58702540863E+02  0.63701397085E+02  0.41800000000E+01 0. -1.
         -5    1    3    3    0  502 -0.68620945654E+00  0.10002567050E+03  0.15358321672E+02  0.10128650496E+03  0.41800000000E+01 0. -1.
        -11    1    1    2    0    0 -0.37578120649E+02 -0.22115749742E+02  0.14268257374E+03  0.14919630822E+03  0.00000000000E+00 0.  1.
         11    1    1    2    0    0  0.47377739197E+02 -0.55296803732E+02  0.14607343550E+03  0.16321714136E+03  0.00000000000E+00 0. -1.
</event>
<event>
 7    1  0.2564986E-009  0.7774572E+02  0.7561462E-02  0.1335573E+00
         -2   -1    0    0    0  501 -0.00000000000E+00  0.00000000000E+00  0.94573010027E+03  0.94573010027E+03  0.00000000000E+00 0. -1.
          2   -1    0    0  501    0  0.00000000000E+00 -0.00000000000E+00 -0.15717490348E+02  0.15717490348E+02  0.00000000000E+00 0.  1.
         25    2    1    2    0    0 -0.48185747829E+02  0.24800022269E+02  0.59228486968E+03  0.60777068999E+03  0.12508771867E+03 0.  0.
          5    1    3    3  502    0 -0.13068377756E+02  0.71660359341E+00  0.54015662584E+03  0.54033133247E+03  0.41800000000E+01 0.  1.
         -5    1    3    3    0  502 -0.35117370073E+02  0.24083418676E+02  0.52128243841E+02  0.67439357514E+02  0.41800000000E+01 0.  1.
        -11    1    1    2    0    0  0.69968340133E+02 -0.60590193508E+01  0.28607270380E+03  0.29456726260E+03  0.00000000000E+00 0. -1.
         11    1    1    2    0    0 -0.21782592304E+02 -0.18741002918E+02  0.51655036447E+02  0.59109638031E+02  0.00000000000E+00 0.  1.
</event>
<event>
 7    1  0.2564986E-009  0.1867019E+03  0.7561462E-02  0.1161470E+00
         -2   -1    0    0    0  501 -0.00000000000E+00  0.00000000000E+00  0.28457399997E+03  0.28457399997E+03  0.00000000000E+00 0.  1.
          2   -1    0    0  501    0  0.00000000000E+00 -0.00000000000E+00 -0.16878225606E+03  0.16878225606E+03  0.00000000000E+00 0. -1.
         25    2    1    2    0    0  0.14103811033E+03 -0.72165344983E+02 -0.47974649987E+02  0.20748579780E+03  0.12509677719E+03 0.  0.
          5    1    3    3  502    0  0.10523481552E+03 -0.10786866843E+03 -0.30385976437E+02  0.15378815296E+03  0.41800000000E+01 0. -1.
         -5    1    3    3    0  502  0.35803294806E+02  0.35703323444E+02 -0.17588673551E+02  0.53697644839E+02  0.41800000000E+01 0. -1.
        -11    1    1    2    0    0 -0.20274762036E+01  0.25052992726E+02 -0.10687691304E+01  0.25157610613E+02  0.00000000000E+00 0. -1.
         11    1    1    2    0    0 -0.13901063412E+03  0.47112352257E+02  0.16483516303E+03  0.22071284762E+03  0.00000000000E+00 0.  1.
</event>
<event>
 7    1  0.2564986E-009  0.1194572E+03  0.7561462E-02  0.1243995E+00
         -2   -1    0    0    0  501 -0.00000000000E+00  0.00000000000E+00  0.38628865065E+03  0.38628865065E+03  0.00000000000E+00 0. -1.
          2   -1    0    0  501    0  0.00000000000E+00 -0.00000000000E+00 -0.42321300008E+02  0.42321300008E+02  0.00000000000E+00 0.  1.
         25    2    1    2    0    0 -0.57845866409E+02 -0.20670495848E+02  0.23916661319E+03  0.27680673146E+03  0.12509150276E+03 0.  0.
          5    1    3    3  502    0 -0.77940077105E+02  0.22621130120E+02  0.95680833769E+02  0.12553352340E+03  0.41800000000E+01 0.  1.
         -5    1    3    3    0  502  0.20094210696E+02 -0.43291625968E+02  0.14348577942E+03  0.15127320806E+03  0.41800000000E+01 0.  1.
        -11    1    1    2    0    0  0.23928799278E+02  0.55918783249E+02  0.55147222256E+02  0.82101850634E+02  0.00000000000E+00 0.  1.
         11    1    1    2    0    0  0.33917067131E+02 -0.35248287400E+02  0.49653515197E+02  0.69701368558E+02  0.00000000000E+00 0. -1.
</event>
<event>
 7    1  0.2564986E-009  0.1217592E+03  0.7561462E-02  0.1240223E+00
          1   -1    0    0  501    0  0.00000000000E+00  0.00000000000E+00  0.58445578479E+02  0.58445578479E+02  0.00000000000E+00 0. -1.
         -1   -1    0    0    0  501 -0.00000000000E+00 -0.00000000000E+00 -0.35693739292E+03  0.35693739292E+03  0.00000000000E+00 0.  1.
         25    2    1    2    0    0 -0.50876977154E+02  0.82820588343E+02 -0.13583314470E+03  0.20867562124E+03  0.12508858878E+03 0.  0.
          5    1    3    3  502    0  0.24807308221E+02  0.31646019351E+02  0.50174498330E+01  0.40737210076E+02  0.41800000000E+01 0. -1.
         -5    1    3    3    0  502 -0.75684285375E+02  0.51174568992E+02 -0.14085059453E+03  0.16793841116E+03  0.41800000000E+01 0. -1.
        -11    1    1    2    0    0  0.16966728481E+02 -0.74917987400E+02 -0.15197710756E+03  0.17028686365E+03  0.00000000000E+00 0.  1.
         11    1    1    2    0    0  0.33910248673E+02 -0.79026009433E+01 -0.10681562188E+02  0.36420486508E+02  0.00000000000E+00 0. -1.
</event>
<event>
 7    1  0.2564986E-009  0.8382279E+02  0.7561462E-02  0.1318540E+00
          1   -1    0    0  501    0  0.00000000000E+00  0.00000000000E+00  0.47471861389E+02  0.47471861389E+02  0.00000000000E+00 0. -1.
         -1   -1    0    0    0  501 -0.00000000000E+00 -0.00000000000E+00 -0.34176061716E+03  0.34176061716E+03  0.00000000000E+00 0.  1.
         25    2    1    2    0    0 -0.40902005087E+02 -0.44963492063E+02 -0.20863866313E+03  0.25074319409E+03  0.12508943997E+03 0.  0.
          5    1    3    3  502    0 -0.42027625695E+02 -0.28318276556E+02 -0.22275978245E+03  0.22848991047E+03  0.41800000000E+01 0. -1.
         -5    1    3    3    0  502  0.11256206086E+01 -0.16645215507E+02  0.14121119324E+02  0.22253283623E+02  0.41800000000E+01 0. -1.
        -11    1    1    2    0    0  0.64713864096E+02  0.28903957497E+02 -0.83735910361E+02  0.10970426450E+03  0.00000000000E+00 0. -1.
         11    1    1    2    0    0 -0.23811859009E+02  0.16059534566E+02 -0.19141822794E+01  0.28785019954E+02  0.00000000000E+00 0.  1.
</event>
<event>
 7    1  0.2564986E-009  0.1803030E+03  0.7561462E-02  0.1167510E+00
         -1   -1    0    0    0  501 -0.00000000000E+00  0.00000000000E+00  0.11214393557E+03  0.11214393557E+03  0.00000000000E+00 0.  1.
          1   -1    0    0  501    0  0.00000000000E+00 -0.00000000000E+00 -0.33792119591E+03  0.33792119591E+03  0.00000000000E+00 0. -1.
         25    2    1    2    0    0 -0.15701498558E+03 -0.13311964758E+02 -0.15539120097E+03  0.25421066896E+03  0.12508287161E+03 0.  0.
          5    1    3    3  502    0  0.19412962928E+02  0.11529608715E+02 -0.16998543889E+02  0.28569527492E+02  0.41800000000E+01 0.  1.
         -5    1    3    3    0  502 -0.17642794851E+03 -0.24841573473E+02 -0.13839265708E+03  0.22564114147E+03  0.41800000000E+01 0.  1.
        -11    1    1    2    0    0  0.50906953209E+02 -0.70177920674E+01  0.19850625204E+02  0.55089151487E+02  0.00000000000E+00 0.  1.
         11    1    1    2    0    0  0.10610803237E+03  0.20329756826E+02 -0.90236684580E+02  0.14076531103E+03  0.00000000000E+00 0. -1.
</event>
<event>
 7    1  0.2564986E-009  0.8343166E+02  0.7561462E-02  0.1319586E+00
         -2   -1    0    0    0  501 -0.00000000000E+00  0.00000000000E+00  0.24189723610E+03  0.24189723610E+03  0.00000000000E+00 0.  1.
          2   -1    0    0  501    0  0.00000000000E+00 -0.00000000000E+00 -0.10720996519E+03  0.10720996519E+03  0.00000000000E+00 0. -1.
         25    2    1    2    0    0  0.48203736219E+02  0.12999066368E+02  0.18606810792E+03  0.22969968830E+03  0.12509208650E+03 0.  0.
          5    1    3    3  502    0 -0.25967175191E+02 -0.21584770698E+02  0.11912106728E+03  0.12388501759E+03  0.41800000000E+01 0.  1.
         -5    1    3    3    0  502  0.74170911409E+02  0.34583837066E+02  0.66947040644E+02  0.10581467071E+03  0.41800000000E+01 0.  1.
        -11    1    1    2    0    0 -0.28662283066E+02 -0.12702646319E+02 -0.79331620965E+02  0.85301757186E+02  0.00000000000E+00 0. -1.
         11    1    1    2    0    0 -0.19541453152E+02 -0.29642004946E+00  0.27950783949E+02  0.34105755813E+02  0.00000000000E+00 0.  1.
</event>
<event>
 7    1  0.2564986E-009  0.9603308E+02  0.7561462E-02  0.1288866E+00
         -2   -1    0    0    0  501 -0.00000000000E+00  0.00000000000E+00  0.11756671035E+03  0.11756671035E+03  0.00000000000E+00 0.  1.
          2   -1    0    0  501    0  0.00000000000E+00 -0.00000000000E+00 -0.17577004391E+03  0.17577004391E+03  0.00000000000E+00 0. -1.
         25    2    1    2    0    0  0.39569531505E+02 -0.53516141983E+02  0.22758568826E+02  0.14351063091E+03  0.12509046108E+03 0.  0.
          5    1    3    3  502    0 -0.22403580759E+02 -0.21590858528E+02  0.57497448914E+02  0.65509652987E+02  0.41800000000E+01 0. -1.
         -5    1    3    3    0  502  0.61973112265E+02 -0.31925283454E+02 -0.34738880088E+02  0.78000977925E+02  0.41800000000E+01 0. -1.
        -11    1    1    2    0    0 -0.21360925283E+02 -0.10838551172E+02  0.18293702963E+02  0.30140054554E+02  0.00000000000E+00 0.  1.
         11    1    1    2    0    0 -0.18208606223E+02  0.64354693155E+02 -0.99255605346E+02  0.11968606880E+03  0.00000000000E+00 0. -1.
</event>
<event>
 7    1  0.2564986E-009  0.1598370E+03  0.7561462E-02  0.1188881E+00
          2   -1    0    0  501    0  0.00000000000E+00  0.00000000000E+00  0.28070252354E+04  0.28070252354E+04  0.00000000000E+00 0.  1.
         -2   -1    0    0    0  501 -0.00000000000E+00 -0.00000000000E+00 -0.13867956002E+02  0.13867956002E+02  0.00000000000E+00 0. -1.
         25    2    1    2    0    0 -0.59711715665E+02 -0.12201775532E+03  0.18726750917E+04  0.18817580518E+04  0.12509014683E+03 0.  0.
          5    1    3    3  502    0 -0.60441132921E+02 -0.11605237739E+03  0.18689770170E+04  0.18735564702E+04  0.41800000000E+01 0. -1.
         -5    1    3    3    0  502  0.72941725634E+00 -0.59653779269E+01  0.36980747444E+01  0.82015815645E+01  0.41800000000E+01 0. -1.
        -11    1    1    2    0    0  0.66293436567E+02  0.74827936245E+01  0.24225016756E+03  0.25126869207E+03  0.00000000000E+00 0. -1.
         11    1    1    2    0    0 -0.65817209023E+01  0.11453496170E+03  0.67823202014E+03  0.68786644753E+03  0.00000000000E+00 0.  1.
</event>
<event>
 7    1  0.2564986E-009  0.7684188E+02  0.7561462E-02  0.1338260E+00
         -2   -1    0    0    0  501 -0.00000000000E+00  0.00000000000E+00  0.67410829414E+02  0.67410829414E+02  0.00000000000E+00 0.  1.
          2   -1    0    0  501    0  0.00000000000E+00 -0.00000000000E+00 -0.23152556528E+03  0.23152556528E+03  0.00000000000E+00 0. -1.
         25    2    1    2    0    0 -0.87555914097E+01  0.59202739278E+02 -0.11477699060E+03  0.18000762982E+03  0.12508942603E+03 0.  0.
          5    1    3    3  502    0 -0.25520724714E+02  0.62666592217E+02 -0.13627725549E+03  0.15220831756E+03  0.41800000000E+01 0.  1.
         -5    1    3    3    0  502  0.16765133305E+02 -0.34638529389E+01  0.21500264891E+02  0.27799312263E+02  0.41800000000E+01 0.  1.
        -11    1    1    2    0    0 -0.12255236742E+02 -0.15348062195E+02  0.23951243025E+02  0.30974439191E+02  0.00000000000E+00 0.  1.
         11    1    1    2    0    0  0.21010828152E+02 -0.43854677083E+02 -0.73288988300E+02  0.87954325691E+02  0.00000000000E+00 0. -1.
</event>
<event>
 7    1  0.2564986E-009  0.7868620E+02  0.7561462E-02  0.1332822E+00
          2   -1    0    0  501    0  0.00000000000E+00  0.00000000000E+00  0.40448882775E+03  0.40448882775E+03  0.00000000000E+00 0. -1.
         -2   -1    0    0    0  501 -0.00000000000E+00 -0.00000000000E+00 -0.41335355592E+02  0.41335355592E+02  0.00000000000E+00 0.  1.
         25    2    1    2    0    0  0.46610332487E+02  0.47790006302E+02  0.15805806109E+03  0.21233060869E+03  0.12508208870E+03 0.  0.
          5    1    3    3  502    0  0.84207433869E+01  0.48142820774E+02 -0.63184928554E+00  0.49056210053E+02  0.41800000000E+01 0. -1.
         -5    1    3    3    0  502  0.38189589100E+02 -0.35281447237E+00  0.15868991038E+03  0.16327439863E+03  0.41800000000E+01 0. -1.
        -11    1    1    2    0    0 -0.72255941498E+00 -0.11167114935E+02 -0.71486927824E+01  0.13278944106E+02  0.00000000000E+00 0.  1.
         11    1    1    2    0    0 -0.45887773072E+02 -0.36622891367E+02  0.21224410385E+03  0.22021463055E+03  0.00000000000E+00 0. -1.
</event>
<event>
 7    1  0.2564986E-009  0.4888259E+03  0.7561462E-02  0.1016737E+00
          2   -1    0    0  501    0  0.00000000000E+00  0.00000000000E+00  0.12439669521E+04  0.12439669521E+04  0.00000000000E+00 0. -1.
         -2   -1    0    0    0  501 -0.00000000000E+00 -0.00000000000E+00 -0.19905116999E+03  0.19905116999E+03  0.00000000000E+00 0.  1.
         25    2    1    2    0    0 -0.48392304062E+03  0.28644190505E+02  0.48685723757E+03  0.69833998008E+03  0.12508700615E+03 0.  0.
          5    1    3    3  502    0 -0.80426197530E+02  0.17320345170E+02  0.27572738825E+02  0.86868267695E+02  0.41800000000E+01 0.  1.
         -5    1    3    3    0  502 -0.40349684309E+03  0.11323845335E+02  0.45928449875E+03  0.61147171239E+03  0.41800000000E+01 0.  1.
        -11    1    1    2    0    0  0.99834995581E+02  0.27194318144E+02  0.14188135210E+03  0.17560431474E+03  0.00000000000E+00 0. -1.
         11    1    1    2    0    0  0.38408804504E+03 -0.55838508649E+02  0.41617719246E+03  0.56907382730E+03  0.00000000000E+00 0.  1.
</event>
<event>
 7    1  0.2564986E-009  0.1334770E+03  0.7561462E-02  0.1222386E+00
          2   -1    0    0  501    0  0.00000000000E+00  0.00000000000E+00  0.42848586367E+03  0.42848586367E+03  0.00000000000E+00 0. -1.
         -2   -1    0    0    0  501 -0.00000000000E+00 -0.00000000000E+00 -0.73416953847E+02  0.73416953847E+02  0.00000000000E+00 0.  1.
         25    2    1    2    0    0 -0.98613225276E+02  0.82582333535E+02  0.10995174942E+03  0.21043270101E+03  0.12509246357E+03 0.  0.
          5    1    3    3  502    0 -0.59866273189E+02  0.17875140075E+02 -0.15031307330E+02  0.64396458740E+02  0.41800000000E+01 0.  1.
         -5    1    3    3    0  502 -0.38746952087E+02  0.64707193460E+02  0.12498305675E+03  0.14603624227E+03  0.41800000000E+01 0.  1.
        -11    1    1    2    0    0  0.55983714470E+02 -0.51183121620E+02  0.53889136569E+02  0.93047983669E+02  0.00000000000E+00 0.  1.
         11    1    1    2    0    0  0.42629510807E+02 -0.31399211915E+02  0.19122802384E+03  0.19842213284E+03  0.00000000000E+00 0. -1.
</event>
<event>
 7    1  0.2564986E-009  0.1066045E+03  0.7561462E-02  0.1266990E+00
         -1   -1    0    0    0  501 -0.00000000000E+00  0.00000000000E+00  0.37557626254E+02  0.37557626254E+02  0.00000000000E+00 0.  1.
          1   -1    0    0  501    0  0.00000000000E+00 -0.00000000000E+00 -0.88065939913E+03  0.88065939913E+03  0.00000000000E+00 0. -1.
         25    2    1    2    0    0  0.44138581789E+02  0.50363495060E+02 -0.77168752309E+03  0.78462299749E+03  0.12508764471E+03 0.  0.
          5    1    3    3  502    0  0.62633294254E+02  0.80033813934E+02 -0.46954060194E+03  0.48043125439E+03  0.41800000000E+01 0. -1.
         -5    1    3    3    0  502 -0.18494712465E+02 -0.29670318874E+02 -0.30214692114E+03  0.30419174310E+03  0.41800000000E+01 0. -1.
        -11    1    1    2    0    0 -0.12499200277E+02  0.42201527449E+01 -0.69219299707E+02  0.70465247809E+02  0.00000000000E+00 0. -1.
         11    1    1    2    0    0 -0.31639381512E+02 -0.54583647805E+02 -0.21949500857E+01  0.63128780093E+02  0.00000000000E+00 0.  1.
</event>
<event>
 7    1  0.2564986E-009  0.3494859E+03  0.7561462E-02  0.1062826E+00
          1   -1    0    0  501    0  0.00000000000E+00  0.00000000000E+00  0.35234055923E+03  0.35234055923E+03  0.00000000000E+00 0. -1.
         -1   -1    0    0    0  501 -0.00000000000E+00 -0.00000000000E+00 -0.36600528585E+03  0.36600528585E+03  0.00000000000E+00 0.  1.
         25    2    1    2    0    0 -0.13715986554E+03 -0.31237596276E+03 -0.28218009537E+02  0.36446747953E+03  0.12509483099E+03 0.  0.
          5    1    3    3  502    0 -0.13723806468E+02 -0.11035430185E+03  0.39672131968E+02  0.11814298648E+03  0.41800000000E+01 0.  1.
         -5    1    3    3    0  502 -0.12343605908E+03 -0.20202166092E+03 -0.67890141505E+02  0.24632449304E+03  0.41800000000E+01 0.  1.
        -11    1    1    2    0    0  0.14336464685E+03  0.24975640293E+03  0.28625598536E+02  0.28939783631E+03  0.00000000000E+00 0. -1.
         11    1    1    2    0    0 -0.62047813051E+01  0.62619559837E+02 -0.14072315625E+02  0.64480529250E+02  0.00000000000E+00 0.  1.
</event>
<event>
 7    1  0.2564986E-009  0.1269170E+03  0.7561462E-02  0.1232103E+00
          1   -1    0    0  501    0  0.00000000000E+00  0.00000000000E+00  0.98852654712E+02  0.98852654712E+02  0.00000000000E+00 0. -1.
         -1   -1    0    0    0  501 -0.00000000000E+00 -0.00000000000E+00 -0.22277374701E+03  0.22277374701E+03  0.00000000000E+00 0.  1.
         25    2    1    2    0    0 -0.99510787394E+02  0.12182182030E+02 -0.48024523033E+02  0.16734374067E+03  0.12508705114E+03 0.  0.
          5    1    3    3  502    0 -0.33222539965E+02  0.44703089275E+02 -0.70598840999E+02  0.90020953688E+02  0.41800000000E+01 0.  1.
         -5    1    3    3    0  502 -0.66288247429E+02 -0.32520907245E+02  0.22574317966E+02  0.77322786983E+02  0.41800000000E+01 0.  1.
        -11    1    1    2    0    0  0.97516650888E+02  0.13341668253E+02 -0.81834437509E+02  0.12800145497E+03  0.00000000000E+00 0.  1.
         11    1    1    2    0    0  0.19941365061E+01 -0.25523850283E+02  0.59378682445E+01  0.26281206079E+02  0.00000000000E+00 0. -1.
</event>
<event>
 7    1  0.2564986E-009  0.1249889E+03  0.7561462E-02  0.1235087E+00
         -2   -1    0    0    0  501 -0.00000000000E+00  0.00000000000E+00  0.19363044193E+03  0.19363044193E+03  0.00000000000E+00 0.  1.
          2   -1    0    0  501    0  0.00000000000E+00 -0.00000000000E+00 -0.14291367365E+03  0.14291367365E+03  0.00000000000E+00 0. -1.
         25    2    1    2    0    0 -0.16646938093E+02 -0.69741567149E+02 -0.77180095468E+02  0.16353016591E+03  0.12507734123E+03 0.  0.
          5    1    3    3  502    0 -0.42815427573E+02  0.18949070078E+02 -0.46221632539E+02  0.65925259269E+02  0.41800000000E+01 0.  1.
         -5    1    3    3    0  502  0.26168489480E+02 -0.88690637227E+02 -0.30958462929E+02  0.97604906641E+02  0.41800000000E+01 0.  1.
        -11    1    1    2    0    0 -0.28322578454E+02  0.10988575613E+01  0.11477415428E+02  0.30579519341E+02  0.00000000000E+00 0. -1.
         11    1    1    2    0    0  0.44969516547E+02  0.68642709588E+02  0.11641944831E+03  0.14243443033E+03  0.00000000000E+00 0.  1.
</event>
<event>
 7    1  0.2564986E-009  0.9121365E+02  0.7561462E-02  0.1299939E+00
         -2   -1    0    0    0  501 -0.00000000000E+00  0.00000000000E+00  0.16322327269E+02  0.16322327269E+02  0.00000000000E+00 0.  1.
          2   -1    0    0  501    0  0.00000000000E+00 -0.00000000000E+00 -0.88962017539E+03  0.88962017539E+03  0.00000000000E+00 0. -1.
         25    2    1    2    0    0 -0.41508386942E+02  0.22062763985E+02 -0.57976980711E+03  0.59497080065E+03  0.12509001814E+03 0.  0.
          5    1    3    3  502    0  0.10548807751E+02  0.26016718462E+02 -0.25268477388E+02  0.38001517523E+02  0.41800000000E+01 0.  1.
         -5    1    3    3    0  502 -0.52057194693E+02 -0.39539544771E+01 -0.55450132973E+03  0.55696928312E+03  0.41800000000E+01 0.  1.
        -11    1    1    2    0    0  0.36450644495E+02 -0.56295180173E+02 -0.17198300329E+03  0.18459672319E+03  0.00000000000E+00 0.  1.
         11    1    1    2    0    0  0.50577424465E+01  0.34232416188E+02 -0.12154503772E+03  0.12637497882E+03  0.00000000000E+00 0. -1.
</event>
<event>
 7    1  0.2564986E-009  0.1021750E+03  0.7561462E-02  0.1275787E+00
         -2   -1    0    0    0  501 -0.00000000000E+00  0.00000000000E+00  0.96945823572E+02  0.96945823572E+02  0.00000000000E+00 0.  1.
          2   -1    0    0  501    0  0.00000000000E+00 -0.00000000000E+00 -0.36270699312E+03  0.36270699312E+03  0.00000000000E+00 0. -1.
         25    2    1    2    0    0  0.14167803594E+02  0.33456849240E+02 -0.32137901999E+03  0.34677275574E+03  0.12508709849E+03 0.  0.
          5    1    3    3  502    0 -0.81955041804E+01 -0.39472662759E+02 -0.47516808943E+02  0.62454598919E+02  0.41800000000E+01 0. -1.
         -5    1    3    3    0  502  0.22363307774E+02  0.72929511998E+02 -0.27386221105E+03  0.28431815682E+03  0.41800000000E+01 0. -1.
        -11    1    1    2    0    0  0.29315599663E+02  0.45560353638E+01 -0.39266607292E+01  0.29926251123E+02  0.00000000000E+00 0. -1.
         11    1    1    2    0    0 -0.43483403256E+02 -0.38012884603E+02  0.59544511174E+02  0.82953809832E+02  0.00000000000E+00 0.  1.
</event>
<event>
 7    1  0.2564986E-009  0.7032051E+02  0.7561462E-02  0.1359007E+00
         -2   -1    0    0    0  501 -0.00000000000E+00  0.00000000000E+00  0.29940649853E+03  0.29940649853E+03  0.00000000000E+00 0.  1.
          2   -1    0    0  501    0  0.00000000000E+00 -0.00000000000E+00 -0.46373609164E+02  0.46373609164E+02  0.00000000000E+00 0. -1.
         25    2    1    2    0    0  0.47709070291E+02 -0.20018287209E+02  0.13928614992E+03  0.19421729183E+03  0.12507133035E+03 0.  0.
          5    1    3    3  502    0  0.54716507232E+02 -0.75052263187E+01  0.12764750267E+01  0.55401501553E+02  0.41800000000E+01 0. -1.
         -5    1    3    3    0  502 -0.70074369415E+01 -0.12513060890E+02  0.13800967489E+03  0.13881579027E+03  0.41800000000E+01 0. -1.
        -11    1    1    2    0    0 -0.18506111547E+02  0.33406762054E+02  0.11316116465E+03  0.11943172569E+03  0.00000000000E+00 0.  1.
         11    1    1    2    0    0 -0.29202958744E+02 -0.13388474845E+02  0.58557479296E+00  0.32131090177E+02  0.00000000000E+00 0. -1.
</event>
<event>
 7    1  0.2564986E-009  0.7600200E+02  0.7561462E-02  0.1340796E+00
          2   -1    0    0  501    0  0.00000000000E+00  0.00000000000E+00  0.23591993087E+03  0.23591993087E+03  0.00000000000E+00 0. -1.
         -2   -1    0    0    0  501 -0.00000000000E+00 -0.00000000000E+00 -0.55209247102E+02  0.55209247102E+02  0.00000000000E+00 0.  1.
         25    2    1    2    0    0  0.96287494768E+01  0.25797139721E+02  0.87664203304E+02  0.15521579220E+03  0.12509486149E+03 0.  0.
          5    1    3    3  502    0 -0.17926125995E+02 -0.20106397401E+02 -0.20731109683E+02  0.34247109635E+02  0.41800000000E+01 0.  1.
         -5    1    3    3    0  502  0.27554875472E+02  0.45903537123E+02  0.10839531299E+03  0.12096868256E+03  0.41800000000E+01 0.  1.
        -11    1    1    2    0    0 -0.22924687126E+02  0.15490060317E+02  0.87998410674E+02  0.92245344216E+02  0.00000000000E+00 0. -1.
         11    1    1    2    0    0  0.13295937649E+02 -0.41287200038E+02  0.50480697878E+01  0.43668041558E+02  0.00000000000E+00 0.  1.
</event>
<event>
 7    1  0.2564986E-009  0.2397134E+03  0.7561462E-02  0.1119984E+00
          2   -1    0    0  501    0  0.00000000000E+00  0.00000000000E+00  0.20592627856E+04  0.20592627856E+04  0.00000000000E+00 0. -1.
         -2   -1    0    0    0  501 -0.00000000000E+00 -0.00000000000E+00 -0.31827732096E+02  0.31827732096E+02  0.00000000000E+00 0.  1.
         25    2    1    2    0    0 -0.22351083025E+03  0.26873392963E+02  0.12519226316E+04  0.12781382793E+04  0.12509162660E+03 0.  0.
          5    1    3    3  502    0 -0.31516420913E+02  0.45824286427E+02  0.44401173073E+03  0.44750088205E+03  0.41800000000E+01 0. -1.
         -5    1    3    3    0  502 -0.19199440933E+03 -0.18950893464E+02  0.80791090084E+03  0.83063739723E+03  0.41800000000E+01 0. -1.
        -11    1    1    2    0    0  0.12996525266E+03 -0.40542783803E+02  0.58025154102E+03  0.59600883809E+03  0.00000000000E+00 0. -1.
         11    1    1    2    0    0  0.93545577592E+02  0.13669390840E+02  0.19526088094E+03  0.21694340036E+03  0.00000000000E+00 0.  1.
</event>
<event>
 7    1  0.2564986E-009  0.1740597E+03  0.7561462E-02  0.1173679E+00
         -1   -1    0    0    0  501 -0.00000000000E+00  0.00000000000E+00  0.34659979945E+02  0.34659979945E+02  0.00000000000E+00 0.  1.
          1   -1    0    0  501    0  0.00000000000E+00 -0.00000000000E+00 -0.12198948195E+04  0.12198948195E+04  0.00000000000E+00 0. -1.
         25    2    1    2    0    0  0.36266256298E+02  0.15408632059E+03 -0.84629099863E+03  0.87000809302E+03  0.12509113486E+03 0.  0.
          5    1    3    3  502    0  0.36326755723E+02  0.24415897095E+02 -0.46854728259E+03  0.47060577731E+03  0.41800000000E+01 0. -1.
         -5    1    3    3    0  502 -0.60499424895E-01  0.12967042350E+03 -0.37774371604E+03  0.39940231571E+03  0.41800000000E+01 0. -1.
        -11    1    1    2    0    0 -0.57170950190E+02 -0.13277487026E+03 -0.23060114205E+03  0.27216643884E+03  0.00000000000E+00 0.  1.
         11    1    1    2    0    0  0.20904693892E+02 -0.21311450332E+02 -0.10834269887E+03  0.11238026757E+03  0.00000000000E+00 0. -1.
</event>
<event>
 7    1  0.2564986E-009  0.1110070E+03  0.7561462E-02  0.1258716E+00
          3   -1    0    0  501    0  0.00000000000E+00  0.00000000000E+00  0.36595012658E+03  0.36595012658E+03  0.00000000000E+00 0. -1.
         -3   -1    0    0    0  501 -0.00000000000E+00 -0.00000000000E+00 -0.36365155560E+02  0.36365155560E+02  0.00000000000E+00 0.  1.
         25    2    1    2    0    0  0.35640988979E+02 -0.80727851663E+01  0.22672341255E+03  0.26150866265E+03  0.12509126623E+03 0.  0.
          5    1    3    3  502    0 -0.98639777460E+01 -0.57842319799E+02  0.74200346052E+02  0.94689998263E+02  0.41800000000E+01 0. -1.
         -5    1    3    3    0  502  0.45504966725E+02  0.49769534633E+02  0.15252306650E+03  0.16681866439E+03  0.41800000000E+01 0. -1.
        -11    1    1    2    0    0  0.21039434675E+02  0.28454631012E+02  0.31055584652E+02  0.47082620738E+02  0.00000000000E+00 0.  1.
         11    1    1    2    0    0 -0.56680423655E+02 -0.20381845846E+02  0.71805973815E+02  0.93723998748E+02  0.00000000000E+00 0. -1.
</event>
<event>
 7    1  0.2564986E-009  0.1906611E+03  0.7561462E-02  0.1157866E+00
          1   -1    0    0  501    0  0.00000000000E+00  0.00000000000E+00  0.33912685031E+03  0.33912685031E+03  0.00000000000E+00 0. -1.
         -1   -1    0    0    0  501 -0.00000000000E+00 -0.00000000000E+00 -0.11092410693E+03  0.11092410693E+03  0.00000000000E+00 0.  1.
         25    2    1    2    0    0 -0.10016720249E+03 -0.12034193977E+03  0.15100918231E+03  0.25093232307E+03  0.12509039411E+03 0.  0.
          5    1    3    3  502    0  0.26576820743E+02 -0.66003690611E+01  0.89155731230E+01  0.29100723645E+02  0.41800000000E+01 0. -1.
         -5    1    3    3    0  502 -0.12674402323E+03 -0.11374157071E+03  0.14209360919E+03  0.22183159943E+03  0.41800000000E+01 0. -1.
        -11    1    1    2    0    0  0.44505854264E+02  0.11959292095E+03  0.58709279438E+02  0.14046357997E+03  0.00000000000E+00 0. -1.
         11    1    1    2    0    0  0.55661348224E+02  0.74901881768E+00  0.18484281621E+02  0.58655054193E+02  0.00000000000E+00 0.  1.
</event>
<event>
 7    1  0.2564986E-009  0.1000195E+03  0.7561462E-02  0.1280255E+00
         -1   -1    0    0    0  501 -0.00000000000E+00  0.00000000000E+00  0.32128893681E+03  0.32128893681E+03  0.00000000000E+00 0.  1.
          1   -1    0    0  501    0  0.00000000000E+00 -0.00000000000E+00 -0.41757026410E+02  0.41757026410E+02  0.00000000000E+00 0. -1.
         25    2    1    2    0    0 -0.24195918078E+02 -0.23816734574E+02  0.11849933268E+03  0.17561961009E+03  0.12508987292E+03 0.  0.
          5    1    3    3  502    0 -0.29201196688E+02 -0.73095706058E+02  0.83486604911E+02  0.11481802007E+03  0.41800000000E+01 0. -1.
         -5    1    3    3    0  502  0.50052786102E+01  0.49278971484E+02  0.35012727766E+02  0.60801590030E+02  0.41800000000E+01 0. -1.
        -11    1    1    2    0    0  0.95536562049E+01  0.44862503664E+02  0.32138443915E+02  0.56007108113E+02  0.00000000000E+00 0. -1.
         11    1    1    2    0    0  0.14642261873E+02 -0.21045769090E+02  0.12889413381E+03  0.13141924501E+03  0.00000000000E+00 0.  1.
</event>
<event>
 7    1  0.2564986E-009  0.1188989E+03  0.7561462E-02  0.1244925E+00
          2   -1    0    0  501    0  0.00000000000E+00  0.00000000000E+00  0.72720288660E+03  0.72720288660E+03  0.00000000000E+00 0.  1.
         -2   -1    0    0    0  501 -0.00000000000E+00 -0.00000000000E+00 -0.20540546532E+02  0.20540546532E+02  0.00000000000E+00 0. -1.
         25    2    1    2    0    0 -0.12463034216E+02  0.49411719825E+02  0.32692227520E+03  0.35372624704E+03  0.12508892253E+03 0.  0.
          5    1    3    3  502    0 -0.28501968260E+02 -0.35780432507E+02  0.83598370673E+02  0.95387428544E+02  0.41800000000E+01 0. -1.
         -5    1    3    3    0  502  0.16038934044E+02  0.85192152333E+02  0.24332390453E+03  0.25833881849E+03  0.41800000000E+01 0. -1.
        -11    1    1    2    0    0 -0.92311952786E+01 -0.72677772100E+02  0.26025891824E+03  0.27037377471E+03  0.00000000000E+00 0.  1.
         11    1    1    2    0    0  0.21694229494E+02  0.23266052275E+02  0.11948114662E+03  0.12364341139E+03  0.00000000000E+00 0. -1.
</event>
<event>
 7    1  0.2564986E-009  0.1783105E+03  0.7561462E-02  0.1169448E+00
          1   -1    0    0  501    0  0.00000000000E+00  0.00000000000E+00  0.13275910223E+04  0.13275910223E+04  0.00000000000E+00 0. -1.
         -1   -1    0    0    0  501 -0.00000000000E+00 -0.00000000000E+00 -0.25431752816E+02  0.25431752816E+02  0.00000000000E+00 0.  1.
         25    2    1    2    0    0  0.19236035914E+02  0.14554194439E+03  0.62071624071E+03  0.64999168456E+03  0.12509218948E+03 0.  0.
          5    1    3    3  502    0  0.61786794306E+02  0.28855240111E+02  0.23722576742E+03  0.24686792007E+03  0.41800000000E+01 0. -1.
         -5    1    3    3    0  502 -0.42550758392E+02  0.11668670428E+03  0.38349047329E+03  0.40312376449E+03  0.41800000000E+01 0. -1.
        -11    1    1    2    0    0  0.28122051077E+02 -0.59571231655E+02  0.17126652545E+03  0.18349878512E+03  0.00000000000E+00 0.  1.
         11    1    1    2    0    0 -0.47358086991E+02 -0.85970712734E+02  0.51017650329E+03  0.51953230540E+03  0.00000000000E+00 0. -1.
</event>
<event>
 7    1  0.2564986E-009  0.1363998E+03  0.7561462E-02  0.1218257E+00
          2   -1    0    0  501    0  0.00000000000E+00  0.00000000000E+00  0.12287304518E+03  0.12287304518E+03  0.00000000000E+00 0. -1.
         -2   -1    0    0    0  501 -0.00000000000E+00 -0.00000000000E+00 -0.32277668785E+03  0.32277668785E+03  0.00000000000E+00 0.  1.
         25    2    1    2    0    0  0.13381342292E+03  0.13106078490E+02  0.64479739876E+01  0.18374698033E+03  0.12507427779E+03 0.  0.
          5    1    3    3  502    0  0.83901599769E+02  0.14068922576E+02 -0.57311079245E+02  0.10266180025E+03  0.41800000000E+01 0. -1.
         -5    1    3    3    0  502  0.49911823150E+02 -0.96284408573E+00  0.63759053233E+02  0.81085180076E+02  0.41800000000E+01 0. -1.
        -11    1    1    2    0    0 -0.30395607107E+02 -0.15422623830E+02 -0.12709735977E+03  0.13158833199E+03  0.00000000000E+00 0.  1.
         11    1    1    2    0    0 -0.10341781581E+03  0.23165453396E+01 -0.79254256892E+02  0.13031442071E+03  0.00000000000E+00 0. -1.
</event>
<event>
 7    1  0.2564986E-009  0.1001695E+03  0.7561462E-02  0.1279940E+00
          1   -1    0    0  501    0  0.00000000000E+00  0.00000000000E+00  0.17106379547E+03  0.17106379547E+03  0.00000000000E+00 0. -1.
         -1   -1    0    0    0  501 -0.00000000000E+00 -0.00000000000E+00 -0.84498369451E+02  0.84498369451E+02  0.00000000000E+00 0.  1.
         25    2    1    2    0    0  0.12207583904E+02  0.14025218971E+02 -0.42441871560E+01  0.12654288751E+03  0.12509739159E+03 0.  0.
          5    1    3    3  502    0 -0.54058475723E+02  0.20267712608E+02 -0.12867608874E+02  0.59297105578E+02  0.41800000000E+01 0.  1.
         -5    1    3    3    0  502  0.66266059626E+02 -0.62424936366E+01  0.86234217185E+01  0.67245781930E+02  0.41800000000E+01 0.  1.
        -11    1    1    2    0    0 -0.40146631583E+02 -0.23186940895E+02  0.16678965194E+02  0.49270418463E+02  0.00000000000E+00 0.  1.
         11    1    1    2    0    0  0.27939047679E+02  0.91617219239E+01  0.74130647982E+02  0.79748858951E+02  0.00000000000E+00 0. -1.
</event>
<event>
 7    1  0.2564986E-009  0.2533337E+03  0.7561462E-02  0.1111216E+00
          1   -1    0    0  501    0  0.00000000000E+00  0.00000000000E+00  0.44562844029E+03  0.44562844029E+03  0.00000000000E+00 0. -1.
         -1   -1    0    0    0  501 -0.00000000000E+00 -0.00000000000E+00 -0.20458016318E+03  0.20458016318E+03  0.00000000000E+00 0.  1.
         25    2    1    2    0    0 -0.20654738843E+03 -0.12966135121E+03 -0.27845382732E+02  0.27549211746E+03  0.12508657713E+03 0.  0.
          5    1    3    3  502    0 -0.12479390947E+03 -0.60910388759E+02 -0.75874745240E+02  0.15829732993E+03  0.41800000000E+01 0. -1.
         -5    1    3    3    0  502 -0.81753478959E+02 -0.68750962448E+02  0.48029362508E+02  0.11719478752E+03  0.41800000000E+01 0. -1.
        -11    1    1    2    0    0  0.57151772627E+02  0.89409645628E+02  0.10343077480E+03  0.14818345056E+03  0.00000000000E+00 0.  1.
         11    1    1    2    0    0  0.14939561580E+03  0.40251705579E+02  0.16546288504E+03  0.22653303545E+03  0.00000000000E+00 0. -1.
</event>
<event>
 7    1  0.3559302E-009  0.2216404E+03  0.7561462E-02  0.1132666E+00
         -2   -1    0    0    0  501 -0.00000000000E+00  0.00000000000E+00  0.15542921731E+03  0.15542921731E+03  0.00000000000E+00 0.  1.
          2   -1    0    0  501    0  0.00000000000E+00 -0.00000000000E+00 -0.34205200675E+03  0.34205200675E+03  0.00000000000E+00 0. -1.
         25    2    1    2    0    0 -0.59474489779E+02 -0.18770452658E+03 -0.42390080264E+02  0.23709302074E+03  0.12508388124E+03 0.  0.
          5    1    3    3  502    0 -0.79433159694E+02 -0.56381050108E+02  0.32818707030E+00  0.97498870645E+02  0.41800000000E+01 0.  1.
         -5    1    3    3    0  502  0.19958669915E+02 -0.13132347647E+03 -0.42718267335E+02  0.13959415010E+03  0.41800000000E+01 0.  1.
        -11    1    1    2    0    0  0.11518489211E+01  0.13273682913E+03 -0.65426929766E+02  0.14799012029E+03  0.00000000000E+00 0. -1.
         11    1    1    2    0    0  0.58322640858E+02  0.54967697448E+02 -0.78805779410E+02  0.11239808303E+03  0.00000000000E+00 0.  1.
</event>
<event>
 7    1  0.2564986E-009  0.1079480E+03  0.7561462E-02  0.1264418E+00
          1   -1    0    0  501    0  0.00000000000E+00  0.00000000000E+00  0.17514090157E+04  0.17514090157E+04  0.00000000000E+00 0. -1.
         -1   -1    0    0    0  501 -0.00000000000E+00 -0.00000000000E+00 -0.10502300546E+02  0.10502300546E+02  0.00000000000E+00 0.  1.
         25    2    1    2    0    0  0.50040647726E+02 -0.51901412649E+02  0.11964829638E+04  0.12051609178E+04  0.12507410589E+03 0.  0.
          5    1    3    3  502    0  0.18373521139E+02 -0.67633403348E+02  0.30538059957E+03  0.31334748527E+03  0.41800000000E+01 0.  1.
         -5    1    3    3    0  502  0.31667126587E+02  0.15731990699E+02  0.89110236425E+03  0.89181343251E+03  0.41800000000E+01 0.  1.
        -11    1    1    2    0    0 -0.30252115591E+02  0.74282318344E+02  0.46554819126E+03  0.47240678626E+03  0.00000000000E+00 0. -1.
         11    1    1    2    0    0 -0.19788532135E+02 -0.22380905695E+02  0.78875560058E+02  0.84343612196E+02  0.00000000000E+00 0.  1.
</event>
<event>
 7    1  0.2564986E-009  0.1231769E+03  0.7561462E-02  0.1237946E+00
         -2   -1    0    0    0  501 -0.00000000000E+00  0.00000000000E+00  0.40070149356E+02  0.40070149356E+02  0.00000000000E+00 0.  1.
          2   -1    0    0  501    0  0.00000000000E+00 -0.00000000000E+00 -0.49298087649E+03  0.49298087649E+03  0.00000000000E+00 0. -1.
         25    2    1    2    0    0  0.68140237373E+02 -0.51894990414E+02 -0.28073617198E+03  0.31906288233E+03  0.12510852348E+03 0.  0.
          5    1    3    3  502    0  0.28725830834E+02 -0.74630406738E+02 -0.79999113276E+02  0.11319099563E+03  0.41800000000E+01 0. -1.
         -5    1    3    3    0  502  0.39414406539E+02  0.22735416323E+02 -0.20073705870E+03  0.20587188670E+03  0.41800000000E+01 0. -1.
        -11    1    1    2    0    0 -0.66315235493E+01  0.58360415299E+02 -0.11782486276E+03  0.13165338379E+03  0.00000000000E+00 0. -1.
         11    1    1    2    0    0 -0.61508713824E+02 -0.64654248850E+01 -0.54349692394E+02  0.82334759722E+02  0.00000000000E+00 0.  1.
</event>
<event>
 7    1  0.2564986E-009  0.2200039E+03  0.7561462E-02  0.1133880E+00
          4   -1    0    0  501    0  0.00000000000E+00  0.00000000000E+00  0.56859119289E+03  0.56859119289E+03  0.00000000000E+00 0. -1.
         -4   -1    0    0    0  501 -0.00000000000E+00 -0.00000000000E+00 -0.10195221355E+03  0.10195221355E+03  0.00000000000E+00 0.  1.
         25    2    1    2    0    0 -0.11208490259E+03  0.17798912486E+03  0.30077159883E+03  0.38775980463E+03  0.12510378679E+03 0.  0.
          5    1    3    3  502    0 -0.74411924532E+01  0.28891379310E+02 -0.62283493065E+01  0.30762767734E+02  0.41800000000E+01 0. -1.
         -5    1    3    3    0  502 -0.10464371013E+03  0.14909774555E+03  0.30699994814E+03  0.35699703690E+03  0.41800000000E+01 0. -1.
        -11    1    1    2    0    0 -0.12565861544E+02 -0.39037676588E+02  0.18669071427E+02  0.45059685947E+02  0.00000000000E+00 0.  1.
         11    1    1    2    0    0  0.12465076413E+03 -0.13895144827E+03  0.14719830909E+03  0.23772391586E+03  0.00000000000E+00 0. -1.
</event>
<event>
 7    1  0.2564986E-009  0.1029165E+03  0.7561462E-02  0.1274280E+00
          2   -1    0    0  501    0  0.00000000000E+00  0.00000000000E+00  0.61133833809E+03  0.61133833809E+03  0.00000000000E+00 0. -1.
         -2   -1    0    0    0  501 -0.00000000000E+00 -0.00000000000E+00 -0.28161204972E+02  0.28161204972E+02  0.00000000000E+00 0.  1.
         25    2    1    2    0    0 -0.17805628426E+02 -0.22337236621E+02  0.48633013960E+03  0.50297176745E+03  0.12509037382E+03 0.  0.
          5    1    3    3  502    0 -0.51793670698E+02  0.25200394486E+02  0.13565307468E+03  0.14743430156E+03  0.41800000000E+01 0.  1.
         -5    1    3    3    0  502  0.33988042272E+02 -0.47537631107E+02  0.35067706493E+03  0.35553746589E+03  0.41800000000E+01 0.  1.
        -11    1    1    2    0    0  0.39992658727E+02  0.43319726582E+02  0.85695657494E+02  0.10401806178E+03  0.00000000000E+00 0. -1.
         11    1    1    2    0    0 -0.22187030301E+02 -0.20982489961E+02  0.11151336026E+02  0.32509713836E+02  0.00000000000E+00 0.  1.
</event>
<event>
 7    1  0.2564986E-009  0.1277135E+03  0.7561462E-02  0.1230889E+00
          3   -1    0    0  501    0  0.00000000000E+00  0.00000000000E+00  0.26950771934E+02  0.26950771934E+02  0.00000000000E+00 0. -1.
         -3   -1    0    0    0  501 -0.00000000000E+00 -0.00000000000E+00 -0.70857658399E+03  0.70857658399E+03  0.00000000000E+00 0.  1.
         25    2    1    2    0    0  0.79598743629E+02 -0.28290023859E+02 -0.33650293894E+03  0.36880645235E+03  0.12509071083E+03 0.  0.
          5    1    3    3  502    0 -0.21218440695E+02  0.98304504075E+01 -0.11541524456E+02  0.26410966804E+02  0.41800000000E+01 0. -1.
         -5    1    3    3    0  502  0.10081718432E+03 -0.38120474267E+02 -0.32496141449E+03  0.34239548554E+03  0.41800000000E+01 0. -1.
        -11    1    1    2    0    0 -0.11806426258E+02  0.50971326174E+02 -0.13598712380E+03  0.14570506386E+03  0.00000000000E+00 0.  1.
         11    1    1    2    0    0 -0.67792317371E+02 -0.22681302315E+02 -0.20913574931E+03  0.22101583972E+03  0.00000000000E+00 0. -1.
</event>
<event>
 7    1  0.2564986E-009  0.9912430E+02  0.7561462E-02  0.1282148E+00
          1   -1    0    0  501    0  0.00000000000E+00  0.00000000000E+00  0.33532888011E+03  0.33532888011E+03  0.00000000000E+00 0.  1.
         -1   -1    0    0    0  501 -0.00000000000E+00 -0.00000000000E+00 -0.48056453925E+02  0.48056453925E+02  0.00000000000E+00 0. -1.
         25    2    1    2    0    0 -0.56146432775E+02  0.76094463358E+01  0.21753298106E+03  0.25726059651E+03  0.12510831737E+03 0.  0.
          5    1    3    3  502    0 -0.54553458290E+02  0.45157531073E+02  0.53307770061E+02  0.88738228363E+02  0.41800000000E+01 0.  1.
         -5    1    3    3    0  502 -0.15929744845E+01 -0.37548084737E+02  0.16422521100E+03  0.16852236814E+03  0.41800000000E+01 0.  1.
        -11    1    1    2    0    0  0.54639175703E+02  0.22684964886E+02  0.74805726856E+02  0.95372658157E+02  0.00000000000E+00 0.  1.
         11    1    1    2    0    0  0.15072570712E+01 -0.30294411222E+02 -0.50662817353E+01  0.30752079373E+02  0.00000000000E+00 0. -1.
</event>
<event>
 7    1  0.2564986E-009  0.7242896E+02  0.7561462E-02  0.1352023E+00
         -1   -1    0    0    0  501 -0.00000000000E+00  0.00000000000E+00  0.85935924397E+02  0.85935924397E+02  0.00000000000E+00 0.  1.
          1   -1    0    0  501    0  0.00000000000E+00 -0.00000000000E+00 -0.13685404028E+03  0.13685404028E+03  0.00000000000E+00 0. -1.
         25    2    1    2    0    0 -0.13689463630E+02  0.60857324713E+01 -0.25055057046E+02  0.12845359305E+03  0.12509249430E+03 0.  0.
          5    1    3    3  502    0  0.61416910982E+01 -0.23392352785E+02  0.44170416787E+02  0.50531382897E+02  0.41800000000E+01 0. -1.
         -5    1    3    3    0  502 -0.19831154728E+02  0.29478085257E+02 -0.69225473833E+02  0.77922210156E+02  0.41800000000E+01 0. -1.
        -11    1    1    2    0    0 -0.26154497300E+02 -0.28616564384E+02 -0.29061870748E+02  0.48451602838E+02  0.00000000000E+00 0.  1.
         11    1    1    2    0    0  0.39843960930E+02  0.22530831913E+02  0.31988119064E+01  0.45884768790E+02  0.00000000000E+00 0. -1.
</event>
<event>
 7    1  0.2564986E-009  0.1205248E+03  0.7561462E-02  0.1242234E+00
         -2   -1    0    0    0  501 -0.00000000000E+00  0.00000000000E+00  0.24751908220E+02  0.24751908220E+02  0.00000000000E+00 0.  1.
          2   -1    0    0  501    0  0.00000000000E+00 -0.00000000000E+00 -0.64598179356E+03  0.64598179356E+03  0.00000000000E+00 0. -1.
         25    2    1    2    0    0  0.45211671455E+02  0.41407162935E+02 -0.41989467026E+03  0.44240044525E+03  0.12509185209E+03 0.  0.
          5    1    3    3  502    0  0.73141582872E+02  0.68370198290E+02 -0.30762318719E+03  0.32353310936E+03  0.41800000000E+01 0. -1.
         -5    1    3    3    0  502 -0.27929911417E+02 -0.26963035355E+02 -0.11227148308E+03  0.11886733588E+03  0.41800000000E+01 0. -1.
        -11    1    1    2    0    0 -0.68045811820E+02 -0.21110800193E+02 -0.10208834969E+03  0.12449068051E+03  0.00000000000E+00 0.  1.
         11    1    1    2    0    0  0.22834140366E+02 -0.20296362742E+02 -0.99246865384E+02  0.10384257602E+03  0.00000000000E+00 0. -1.
</event>
<event>
 7    1  0.2564986E-009  0.6296707E+02  0.7561462E-02  0.1385786E+00
         -2   -1    0    0    0  501 -0.00000000000E+00  0.00000000000E+00  0.12825486702E+03  0.12825486702E+03  0.00000000000E+00 0.  1.
          2   -1    0    0  501    0  0.00000000000E+00 -0.00000000000E+00 -0.94470397554E+02  0.94470397554E+02  0.00000000000E+00 0. -1.
         25    2    1    2    0    0 -0.12475541355E+02 -0.57499168224E+01  0.18892642211E+02  0.12725140765E+03  0.12508912080E+03 0.  0.
          5    1    3    3  502    0 -0.13788265683E+01  0.16378739183E+02 -0.50598018213E+02  0.53364745919E+02  0.41800000000E+01 0. -1.
         -5    1    3    3    0  502 -0.11096714786E+02 -0.22128656005E+02  0.69490660424E+02  0.73886661731E+02  0.41800000000E+01 0. -1.
        -11    1    1    2    0    0 -0.35530844373E+02  0.47945088159E+01  0.28237795402E+02  0.45637718017E+02  0.00000000000E+00 0.  1.
         11    1    1    2    0    0  0.48006385728E+02  0.95540800643E+00 -0.13345968148E+02  0.49836138905E+02  0.00000000000E+00 0. -1.
</event>
<event>
 7    1  0.2564986E-009  0.2324593E+03  0.7561462E-02  0.1124921E+00
          1   -1    0    0  501    0  0.00000000000E+00  0.00000000000E+00  0.39990694687E+02  0.39990694687E+02  0.00000000000E+00 0. -1.
         -1   -1    0    0    0  501 -0.00000000000E+00 -0.00000000000E+00 -0.14924846892E+04  0.14924846892E+04  0.00000000000E+00 0.  1.
         25    2    1    2    0    0  0.20976144608E+03 -0.59443261126E+02 -0.79310479690E+03  0.83198365346E+03  0.12509282637E+03 0.  0.
          5    1    3    3  502    0  0.18971037322E+03 -0.78985999184E+02 -0.54850101018E+03  0.58574708223E+03  0.41800000000E+01 0. -1.
         -5    1    3    3    0  502  0.20051072859E+02  0.19542738059E+02 -0.24460378672E+03  0.24623657123E+03  0.41800000000E+01 0. -1.
        -11    1    1    2    0    0 -0.17442501847E+03  0.16127488464E+02 -0.55622503583E+03  0.58315561683E+03  0.00000000000E+00 0.  1.
         11    1    1    2    0    0 -0.35336427608E+02  0.43315772662E+02 -0.10316416178E+03  0.11733611359E+03  0.00000000000E+00 0. -1.
</event>
<event>
 7    1  0.2564986E-009  0.2757556E+03  0.7561462E-02  0.1098030E+00
          2   -1    0    0  501    0  0.00000000000E+00  0.00000000000E+00  0.57538104413E+03  0.57538104413E+03  0.00000000000E+00 0. -1.
         -2   -1    0    0    0  501 -0.00000000000E+00 -0.00000000000E+00 -0.26567017435E+03  0.26567017435E+03  0.00000000000E+00 0.  1.
         25    2    1    2    0    0 -0.24590990907E+03 -0.58197772107E+02 -0.14137274768E+03  0.31542482474E+03  0.12509157535E+03 0.  0.
          5    1    3    3  502    0 -0.48401288980E+02  0.38447174313E+02 -0.27817152006E+02  0.67912711133E+02  0.41800000000E+01 0. -1.
         -5    1    3    3    0  502 -0.19750862008E+03 -0.96644946420E+02 -0.11355559567E+03  0.24751211361E+03  0.41800000000E+01 0. -1.
        -11    1    1    2    0    0  0.12876315326E+03 -0.17806621965E+02  0.20746779329E+03  0.24482628674E+03  0.00000000000E+00 0.  1.
         11    1    1    2    0    0  0.11714675581E+03  0.76004394072E+02  0.24361582416E+03  0.28080010701E+03  0.00000000000E+00 0. -1.
</event>
<event>
 7    1  0.2564986E-009  0.2151221E+03  0.7561462E-02  0.1137573E+00
          2   -1    0    0  501    0  0.00000000000E+00  0.00000000000E+00  0.71521659109E+03  0.71521659109E+03  0.00000000000E+00 0. -1.
         -2   -1    0    0    0  501 -0.00000000000E+00 -0.00000000000E+00 -0.77883251169E+02  0.77883251169E+02  0.00000000000E+00 0.  1.
         25    2    1    2    0    0 -0.16241702655E+03 -0.90930096130E+02  0.16852398758E+03  0.28052721723E+03  0.12509041660E+03 0.  0.
          5    1    3    3  502    0  0.13161018730E+02 -0.36832776031E+02  0.41169994761E+02  0.56941256333E+02  0.41800000000E+01 0.  1.
         -5    1    3    3    0  502 -0.17557804528E+03 -0.54097320099E+02  0.12735399281E+03  0.22358596090E+03  0.41800000000E+01 0.  1.
        -11    1    1    2    0    0  0.14215389571E+03  0.33234868892E+02  0.33767834181E+03  0.36788442357E+03  0.00000000000E+00 0.  1.
         11    1    1    2    0    0  0.20263130834E+02  0.57695227238E+02  0.13113101053E+03  0.14468820146E+03  0.00000000000E+00 0. -1.
</event>
<event>
 7    1  0.2564986E-009  0.1133471E+03  0.7561462E-02  0.1254494E+00
          1   -1    0    0  501    0  0.00000000000E+00  0.00000000000E+00  0.13230710864E+02  0.13230710864E+02  0.00000000000E+00 0. -1.
         -1   -1    0    0    0  501 -0.00000000000E+00 -0.00000000000E+00 -0.10424313759E+04  0.10424313759E+04  0.00000000000E+00 0.  1.
         25    2    1    2    0    0  0.28661625750E+02  0.25428205884E+02 -0.70889690370E+03  0.72086790501E+03  0.12509050304E+03 0.  0.
          5    1    3    3  502    0  0.21591951126E+02  0.76183055448E+02 -0.41496097061E+03  0.42246911108E+03  0.41800000000E+01 0.  1.
         -5    1    3    3    0  502  0.70696746237E+01 -0.50754849564E+02 -0.29393593309E+03  0.29839879392E+03  0.41800000000E+01 0.  1.
        -11    1    1    2    0    0 -0.59781531837E+02 -0.79919038512E+01 -0.17226568730E+03  0.18251895545E+03  0.00000000000E+00 0. -1.
         11    1    1    2    0    0  0.31119906087E+02 -0.17436302033E+02 -0.14803807402E+03  0.15227522630E+03  0.00000000000E+00 0.  1.
</event>
<event>
 7    1  0.2564986E-009  0.1304888E+03  0.7561462E-02  0.1226732E+00
         -4   -1    0    0    0  501 -0.00000000000E+00  0.00000000000E+00  0.59373685338E+02  0.59373685338E+02  0.00000000000E+00 0.  1.
          4   -1    0    0  501    0  0.00000000000E+00 -0.00000000000E+00 -0.33562239900E+03  0.33562239900E+03  0.00000000000E+00 0. -1.
         25    2    1    2    0    0  0.27029815443E+02  0.77729846535E+02 -0.10066864727E+03  0.18041960577E+03  0.12507804618E+03 0.  0.
          5    1    3    3  502    0  0.25172453395E+02 -0.26929363568E+02 -0.54522684789E+02  0.65947240948E+02  0.41800000000E+01 0.  1.
         -5    1    3    3    0  502  0.18573620482E+01  0.10465921010E+03 -0.46145962483E+02  0.11447236482E+03  0.41800000000E+01 0.  1.
        -11    1    1    2    0    0 -0.58646837695E+02 -0.50600291955E+02 -0.85743572866E+02  0.11554999526E+03  0.00000000000E+00 0.  1.
         11    1    1    2    0    0  0.31617022252E+02 -0.27129554580E+02 -0.89836493526E+02  0.99026483310E+02  0.00000000000E+00 0. -1.
</event>
<event>
 7    1  0.2674235E-009  0.1523225E+03  0.7561462E-02  0.1197648E+00
          1   -1    0    0  501    0  0.00000000000E+00  0.00000000000E+00  0.47199823136E+03  0.47199823136E+03  0.00000000000E+00 0. -1.
         -1   -1    0    0    0  501 -0.00000000000E+00 -0.00000000000E+00 -0.58306375015E+02  0.58306375015E+02  0.00000000000E+00 0.  1.
         25    2    1    2    0    0 -0.84859787397E+02 -0.79566864008E+02  0.29542303678E+03  0.34125726794E+03  0.12509869264E+03 0.  0.
          5    1    3    3  502    0 -0.22779772387E+01  0.24099321177E+02  0.99766075232E+01  0.26513610829E+02  0.41800000000E+01 0. -1.
         -5    1    3    3    0  502 -0.82581810159E+02 -0.10366618519E+03  0.28544642925E+03  0.31474365711E+03  0.41800000000E+01 0. -1.
        -11    1    1    2    0    0  0.71853586289E+02  0.10007030127E+03  0.99514730840E+02  0.15836724634E+03  0.00000000000E+00 0. -1.
         11    1    1    2    0    0  0.13006201108E+02 -0.20503437261E+02  0.18754088726E+02  0.30680092091E+02  0.00000000000E+00 0.  1.
</event>
<event>
 7    1  0.2564986E-009  0.8645233E+02  0.7561462E-02  0.1311678E+00
         -2   -1    0    0    0  501 -0.00000000000E+00  0.00000000000E+00  0.42018909773E+02  0.42018909773E+02  0.00000000000E+00 0.  1.
          2   -1    0    0  501    0  0.00000000000E+00 -0.00000000000E+00 -0.29774492931E+03  0.29774492931E+03  0.00000000000E+00 0. -1.
         25    2    1    2    0    0  0.17460979582E+02  0.12565700596E+02 -0.11993609506E+03  0.17462845883E+03  0.12509056359E+03 0.  0.
          5    1    3    3  502    0  0.48011419868E+02  0.93017719791E+01  0.16904894313E+01  0.49111603051E+02  0.41800000000E+01 0. -1.
         -5    1    3    3    0  502 -0.30550440287E+02  0.32639286168E+01 -0.12162658449E+03  0.12551685578E+03  0.41800000000E+01 0. -1.
        -11    1    1    2    0    0 -0.54644475769E+02 -0.50307745916E+01 -0.92688408375E+02  0.10771475513E+03  0.00000000000E+00 0.  1.
         11    1    1    2    0    0  0.37183496187E+02 -0.75349260043E+01 -0.43101516102E+02  0.57420625117E+02  0.00000000000E+00 0. -1.
</event>
<event>
 7    1  0.2564986E-009  0.9811606E+02  0.7561462E-02  0.1284308E+00
          2   -1    0    0  501    0  0.00000000000E+00  0.00000000000E+00  0.41489095758E+03  0.41489095758E+03  0.00000000000E+00 0. -1.
         -2   -1    0    0    0  501 -0.00000000000E+00 -0.00000000000E+00 -0.33122600160E+02  0.33122600160E+02  0.00000000000E+00 0.  1.
         25    2    1    2    0    0 -0.11556003098E+02 -0.16111788821E+02  0.13204958116E+03  0.18296510251E+03  0.12508399541E+03 0.  0.
          5    1    3    3  502    0 -0.20564694577E+02  0.44206806241E+02  0.15455951435E+02  0.51317708599E+02  0.41800000000E+01 0.  1.
         -5    1    3    3    0  502  0.90086914785E+01 -0.60318595062E+02  0.11659362972E+03  0.13164739392E+03  0.41800000000E+01 0.  1.
        -11    1    1    2    0    0 -0.75955808669E+01 -0.32784781993E+02  0.13063426658E+03  0.13489939356E+03  0.00000000000E+00 0. -1.
         11    1    1    2    0    0  0.19151583965E+02  0.48896570814E+02  0.11908450968E+03  0.13014906166E+03  0.00000000000E+00 0.  1.
</event>
<event>
 7    1  0.2564986E-009  0.1358415E+03  0.7561462E-02  0.1219037E+00
          2   -1    0    0  501    0  0.00000000000E+00  0.00000000000E+00  0.29320652421E+03  0.29320652421E+03  0.00000000000E+00 0.  1.
         -2   -1    0    0    0  501 -0.00000000000E+00 -0.00000000000E+00 -0.79325053561E+02  0.79325053561E+02  0.00000000000E+00 0. -1.
         25    2    1    2    0    0  0.90097831460E+02 -0.21652666115E+02  0.52316580356E+02  0.16422696334E+03  0.12508802390E+03 0.  0.
          5    1    3    3  502    0  0.91416213614E+02  0.27832002760E+02  0.52522976979E+01  0.95794590246E+02  0.41800000000E+01 0. -1.
         -5    1    3    3    0  502 -0.13183821541E+01 -0.49484668875E+02  0.47064282658E+02  0.68432373094E+02  0.41800000000E+01 0. -1.
        -11    1    1    2    0    0 -0.71130646241E+02  0.53692912993E+02  0.13788477103E+03  0.16417888970E+03  0.00000000000E+00 0.  1.
         11    1    1    2    0    0 -0.18967185219E+02 -0.32040246879E+02  0.23680119269E+02  0.44125724740E+02  0.00000000000E+00 0. -1.
</event>
<event>
 7    1  0.2564986E-009  0.1235178E+03  0.7561462E-02  0.1237404E+00
          4   -1    0    0  501    0  0.00000000000E+00  0.00000000000E+00  0.35532944093E+02  0.35532944093E+02  0.00000000000E+00 0.  1.
         -4   -1    0    0    0  501 -0.00000000000E+00 -0.00000000000E+00 -0.47586828476E+03  0.47586828476E+03  0.00000000000E+00 0. -1.
         25    2    1    2    0    0 -0.62608738138E+01  0.62677747343E+02 -0.31310427244E+03  0.34300086478E+03  0.12509040435E+03 0.  0.
          5    1    3    3  502    0 -0.20484281949E+02  0.98687963341E+02 -0.23455788976E+03  0.25533075796E+03  0.41800000000E+01 0. -1.
         -5    1    3    3    0  502  0.14223408135E+02 -0.36010215997E+02 -0.78546382688E+02  0.87670106812E+02  0.41800000000E+01 0. -1.
        -11    1    1    2    0    0  0.30077820203E+02 -0.74705607495E+02 -0.11111121324E+03  0.13722720127E+03  0.00000000000E+00 0. -1.
         11    1    1    2    0    0 -0.23816946390E+02  0.12027860152E+02 -0.16119854986E+02  0.31173162815E+02  0.00000000000E+00 0.  1.
</event>
<event>
 7    1  0.2564986E-009  0.1222634E+03  0.7561462E-02  0.1239409E+00
          2   -1    0    0  501    0  0.00000000000E+00  0.00000000000E+00  0.48267952908E+02  0.48267952908E+02  0.00000000000E+00 0. -1.
         -2   -1    0    0    0  501 -0.00000000000E+00 -0.00000000000E+00 -0.39421523719E+03  0.39421523719E+03  0.00000000000E+00 0.  1.
         25    2    1    2    0    0 -0.71490815213E+02  0.44589199464E+02 -0.21161172068E+03  0.25985774036E+03  0.12508953405E+03 0.  0.
          5    1    3    3  502    0 -0.84333392297E+02 -0.75546160440E+00 -0.67272307505E+02  0.10796169476E+03  0.41800000000E+01 0. -1.
         -5    1    3    3    0  502  0.12842577084E+02  0.45344661068E+02 -0.14433941317E+03  0.15189604560E+03  0.41800000000E+01 0. -1.
        -11    1    1    2    0    0  0.81948012094E+02 -0.54459408442E+02 -0.13630859271E+03  0.16811108322E+03  0.00000000000E+00 0.  1.
         11    1    1    2    0    0 -0.10457196881E+02  0.98702089778E+01  0.19730290991E+01  0.14514366528E+02  0.00000000000E+00 0. -1.
</event>
<event>
 7    1  0.2564986E-009  0.1680930E+03  0.7561462E-02  0.1179851E+00
          2   -1    0    0  501    0  0.00000000000E+00  0.00000000000E+00  0.33431395611E+03  0.33431395611E+03  0.00000000000E+00 0. -1.
         -2   -1    0    0    0  501 -0.00000000000E+00 -0.00000000000E+00 -0.10353612895E+03  0.10353612895E+03  0.00000000000E+00 0.  1.
         25    2    1    2    0    0 -0.14376622218E+03  0.16224316205E+02  0.15043356758E+03  0.24333062460E+03  0.12509028555E+03 0.  0.
          5    1    3    3  502    0  0.12502192575E+01 -0.28593872917E+02  0.59975954194E+02  0.66586485851E+02  0.41800000000E+01 0. -1.
         -5    1    3    3    0  502 -0.14501644144E+03  0.44818189122E+02  0.90457613384E+02  0.17674413875E+03  0.41800000000E+01 0. -1.
        -11    1    1    2    0    0  0.13295274348E+03 -0.31567114692E+02  0.28782319283E+02  0.13964718627E+03  0.00000000000E+00 0.  1.
         11    1    1    2    0    0  0.10813478697E+02  0.15342798487E+02  0.51561940301E+02  0.54872274188E+02  0.00000000000E+00 0. -1.
</event>
<event>
 7    1  0.2564986E-009  0.2334371E+03  0.7561462E-02  0.1124244E+00
          2   -1    0    0  501    0  0.00000000000E+00  0.00000000000E+00  0.13314095654E+04  0.13314095654E+04  0.00000000000E+00 0. -1.
         -2   -1    0    0    0  501 -0.00000000000E+00 -0.00000000000E+00 -0.46424251476E+02  0.46424251476E+02  0.00000000000E+00 0.  1.
         25    2    1    2    0    0 -0.21607293183E+03  0.28425711086E+02  0.51018279410E+03  0.56870826964E+03  0.12508828739E+03 0.  0.
          5    1    3    3  502    0 -0.19390169393E+03 -0.20474658741E+02  0.36457518533E+03  0.41346053828E+03  0.41800000000E+01 0.  1.
         -5    1    3    3    0  502 -0.22171237896E+02  0.48900369828E+02  0.14560760877E+03  0.15524773135E+03  0.41800000000E+01 0.  1.
        -11    1    1    2    0    0  0.15176065559E+03 -0.17586926090E+02  0.39038461012E+03  0.41921443245E+03  0.00000000000E+00 0.  1.
         11    1    1    2    0    0  0.64312276235E+02 -0.10838784996E+02  0.38441790967E+03  0.38991111475E+03  0.00000000000E+00 0. -1.
</event>
<event>
 7    1  0.2564986E-009  0.1494028E+03  0.7561462E-02  0.1201209E+00
          2   -1    0    0  501    0  0.00000000000E+00  0.00000000000E+00  0.41765830734E+02  0.41765830734E+02  0.00000000000E+00 0. -1.
         -2   -1    0    0    0  501 -0.00000000000E+00 -0.00000000000E+00 -0.64220413020E+03  0.64220413020E+03  0.00000000000E+00 0.  1.
         25    2    1    2    0    0 -0.10474732338E+03  0.61285103862E+02 -0.36211656614E+03  0.40187596251E+03  0.12509203038E+03 0.  0.
          5    1    3    3  502    0 -0.49173490314E+02  0.82461337634E+02 -0.12667235762E+03  0.15900082685E+03  0.41800000000E+01 0.  1.
         -5    1    3    3    0  502 -0.55573833068E+02 -0.21176233773E+02 -0.23544420852E+03  0.24287513567E+03  0.41800000000E+01 0.  1.
        -11    1    1    2    0    0  0.37812083148E+02  0.15813670417E+02 -0.32383810928E+02  0.52235400011E+02  0.00000000000E+00 0. -1.
         11    1    1    2    0    0  0.66935240235E+02 -0.77098774279E+02 -0.20593792240E+03  0.22985859841E+03  0.00000000000E+00 0.  1.
</event>
<event>
 7    1  0.2564986E-009  0.1616813E+03  0.7561462E-02  0.1186812E+00
          2   -1    0    0  501    0  0.00000000000E+00  0.00000000000E+00  0.76976480542E+02  0.76976480542E+02  0.00000000000E+00 0. -1.
         -2   -1    0    0    0  501 -0.00000000000E+00 -0.00000000000E+00 -0.82344435514E+03  0.82344435514E+03  0.00000000000E+00 0.  1.
         25    2    1    2    0    0  0.12925792318E+03 -0.95752826862E+02 -0.66840062978E+03  0.69877266951E+03  0.12509047611E+03 0.  0.
          5    1    3    3  502    0  0.14805756360E+02 -0.17778878777E+02 -0.93277897668E+01  0.25293853283E+02  0.41800000000E+01 0. -1.
         -5    1    3    3    0  502  0.11445216682E+03 -0.77973948085E+02 -0.65907284001E+03  0.67347881623E+03  0.41800000000E+01 0. -1.
        -11    1    1    2    0    0 -0.96469163736E+01  0.35637808230E+01 -0.46169344262E+02  0.47300865519E+02  0.00000000000E+00 0.  1.
         11    1    1    2    0    0 -0.11961100680E+03  0.92189046039E+02 -0.31897900557E+02  0.15434730065E+03  0.00000000000E+00 0. -1.
</event>
<event>
 7    1  0.2564986E-009  0.1093245E+03  0.7561462E-02  0.1261826E+00
         -2   -1    0    0    0  501 -0.00000000000E+00  0.00000000000E+00  0.28425470171E+02  0.28425470171E+02  0.00000000000E+00 0.  1.
          2   -1    0    0  501    0  0.00000000000E+00 -0.00000000000E+00 -0.53693502590E+03  0.53693502590E+03  0.00000000000E+00 0. -1.
         25    2    1    2    0    0 -0.15195656110E+02  0.62021268377E+02 -0.39802263729E+03  0.42207560793E+03  0.12509297870E+03 0.  0.
          5    1    3    3  502    0  0.49108936986E+02  0.21211692872E+02 -0.90285341564E+02  0.10502637244E+03  0.41800000000E+01 0.  1.
         -5    1    3    3    0  502 -0.64304593096E+02  0.40809575505E+02 -0.30773729572E+03  0.31704923549E+03  0.41800000000E+01 0.  1.
        -11    1    1    2    0    0 -0.20399306917E+02 -0.44691015922E+02 -0.77474675902E+02  0.91737364432E+02  0.00000000000E+00 0. -1.
         11    1    1    2    0    0  0.35594963028E+02 -0.17330252455E+02 -0.33012242543E+02  0.51547523712E+02  0.00000000000E+00 0.  1.
</event>
<event>
 7    1  0.2564986E-009  0.1731695E+03  0.7561462E-02  0.1174582E+00
         -2   -1    0    0    0  501 -0.00000000000E+00  0.00000000000E+00  0.37094675466E+02  0.37094675466E+02  0.00000000000E+00 0. -1.
          2   -1    0    0  501    0  0.00000000000E+00 -0.00000000000E+00 -0.97318346401E+03  0.97318346401E+03  0.00000000000E+00 0.  1.
         25    2    1    2    0    0 -0.87902098178E+02  0.12345922459E+03 -0.58092317273E+03  0.61326053865E+03  0.12509115337E+03 0.  0.
          5    1    3    3  502    0 -0.23784007924E+02 -0.21957099811E+02 -0.56282962675E+02  0.65061797950E+02  0.41800000000E+01 0.  1.
         -5    1    3    3    0  502 -0.64118090254E+02  0.14541632440E+03 -0.52464021005E+03  0.54819874070E+03  0.41800000000E+01 0.  1.
        -11    1    1    2    0    0  0.34465988611E+02 -0.75184340318E+02 -0.28390264055E+03  0.29570474922E+03  0.00000000000E+00 0.  1.
         11    1    1    2    0    0  0.53436109567E+02 -0.48274884268E+02 -0.71262975261E+02  0.10131285160E+03  0.00000000000E+00 0. -1.
</event>
<event>
 7    1  0.2564986E-009  0.9226707E+02  0.7561462E-02  0.1297453E+00
          1   -1    0    0  501    0  0.00000000000E+00  0.00000000000E+00  0.26770105141E+03  0.26770105141E+03  0.00000000000E+00 0. -1.
         -1   -1    0    0    0  501 -0.00000000000E+00 -0.00000000000E+00 -0.55432892997E+02  0.55432892997E+02  0.00000000000E+00 0.  1.
         25    2    1    2    0    0 -0.45765507338E+01  0.55052498898E+02  0.12464021499E+03  0.18502254088E+03  0.12508571057E+03 0.  0.
          5    1    3    3  502    0 -0.13981192990E+02  0.87432918755E+02  0.47130505887E+02  0.10039295804E+03  0.41800000000E+01 0.  1.
         -5    1    3    3    0  502  0.94046422560E+01 -0.32380419857E+02  0.77509709103E+02  0.84629582838E+02  0.41800000000E+01 0.  1.
        -11    1    1    2    0    0 -0.59138921223E+01 -0.49860902974E+02  0.10544748380E+03  0.11679150485E+03  0.00000000000E+00 0. -1.
         11    1    1    2    0    0  0.10490442856E+02 -0.51915959247E+01 -0.17819540387E+02  0.21319898667E+02  0.00000000000E+00 0.  1.
</event>
<event>
 7    1  0.2564986E-009  0.5819553E+02  0.7561462E-02  0.1405564E+00
         -3   -1    0    0    0  501 -0.00000000000E+00  0.00000000000E+00  0.32587470710E+03  0.32587470710E+03  0.00000000000E+00 0.  1.
          3   -1    0    0  501    0  0.00000000000E+00 -0.00000000000E+00 -0.41334396785E+02  0.41334396785E+02  0.00000000000E+00 0. -1.
         25    2    1    2    0    0 -0.21045150723E+02 -0.13683482289E+02  0.11039750843E+03  0.16871484646E+03  0.12508778314E+03 0.  0.
          5    1    3    3  502    0 -0.36621271840E+02  0.95601591306E+01 -0.14430371442E+02  0.40721274707E+02  0.41800000000E+01 0.  1.
         -5    1    3    3    0  502  0.15576121117E+02 -0.23243641420E+02  0.12482787987E+03  0.12799357175E+03  0.41800000000E+01 0.  1.
        -11    1    1    2    0    0  0.32820754430E+02  0.18057244384E+02  0.18054847179E+03  0.18439364594E+03  0.00000000000E+00 0.  1.
         11    1    1    2    0    0 -0.11775603707E+02 -0.43737620946E+01 -0.64056699059E+01  0.14100611493E+02  0.00000000000E+00 0. -1.
</event>
<event>
 7    1  0.2564986E-009  0.1312792E+03  0.7561462E-02  0.1225570E+00
          1   -1    0    0  501    0  0.00000000000E+00  0.00000000000E+00  0.21409282290E+02  0.21409282290E+02  0.00000000000E+00 0. -1.
         -1   -1    0    0    0  501 -0.00000000000E+00 -0.00000000000E+00 -0.10733041046E+04  0.10733041046E+04  0.00000000000E+00 0.  1.
         25    2    1    2    0    0  0.99922594966E+02  0.37756638296E+02 -0.58239494371E+03  0.60517934849E+03  0.12509230456E+03 0.  0.
          5    1    3    3  502    0  0.10382974269E+03  0.51616260951E+02 -0.28928251797E+03  0.31168365608E+03  0.41800000000E+01 0.  1.
         -5    1    3    3    0  502 -0.39071477239E+01 -0.13859622655E+02 -0.29311242573E+03  0.29349569241E+03  0.41800000000E+01 0.  1.
        -11    1    1    2    0    0 -0.40274074072E+01 -0.35383876577E+02 -0.68309065191E+02  0.77034843541E+02  0.00000000000E+00 0.  1.
         11    1    1    2    0    0 -0.95895187559E+02 -0.23727617184E+01 -0.40119081340E+03  0.41249919485E+03  0.00000000000E+00 0. -1.
</event>
<event>
 7    1  0.2564986E-009  0.1064243E+03  0.7561462E-02  0.1267339E+00
         -1   -1    0    0    0  501 -0.00000000000E+00  0.00000000000E+00  0.44557512873E+02  0.44557512873E+02  0.00000000000E+00 0.  1.
          1   -1    0    0  501    0  0.00000000000E+00 -0.00000000000E+00 -0.29194394818E+03  0.29194394818E+03  0.00000000000E+00 0. -1.
         25    2    1    2    0    0  0.38121984005E+02  0.16371259547E+01 -0.15267523974E+03  0.20101893242E+03  0.12507164553E+03 0.  0.
          5    1    3    3  502    0  0.64036435732E+02  0.43791214613E+02 -0.11455962657E+03  0.13841862598E+03  0.41800000000E+01 0.  1.
         -5    1    3    3    0  502 -0.25914451727E+02 -0.42154088659E+02 -0.38115613176E+02  0.62600306443E+02  0.41800000000E+01 0.  1.
        -11    1    1    2    0    0 -0.59180228796E+02  0.12035577756E+02 -0.32911695126E+02  0.68777425718E+02  0.00000000000E+00 0.  1.
         11    1    1    2    0    0  0.21058244791E+02 -0.13672703711E+02 -0.61799500437E+02  0.66705102914E+02  0.00000000000E+00 0. -1.
</event>
<event>
 7    1  0.2564986E-009  0.4426844E+02  0.7561462E-02  0.1478961E+00
         -1   -1    0    0    0  501 -0.00000000000E+00  0.00000000000E+00  0.13453899031E+03  0.13453899031E+03  0.00000000000E+00 0.  1.
          1   -1    0    0  501    0  0.00000000000E+00 -0.00000000000E+00 -0.98646104278E+02  0.98646104278E+02  0.00000000000E+00 0. -1.
         25    2    1    2    0    0 -0.49096365191E+01  0.12797346120E+02  0.47649818107E+02  0.13456266726E+03  0.12509488262E+03 0.  0.
          5    1    3    3  502    0 -0.16620313249E+02 -0.10641318882E+02 -0.39018027182E+02  0.43924381899E+02  0.41800000000E+01 0.  1.
         -5    1    3    3    0  502  0.11710676729E+02  0.23438665002E+02  0.86667845290E+02  0.90638285364E+02  0.41800000000E+01 0.  1.
        -11    1    1    2    0    0 -0.38257838239E+01 -0.25846544888E+02  0.38185790395E+02  0.46269159195E+02  0.00000000000E+00 0.  1.
         11    1    1    2    0    0  0.87354203431E+01  0.13049198769E+02 -0.49942722466E+02  0.52353268135E+02  0.00000000000E+00 0. -1.
</event>
<event>
 7    1  0.2564986E-009  0.1311105E+03  0.7561462E-02  0.1225817E+00
          2   -1    0    0  501    0  0.00000000000E+00  0.00000000000E+00  0.65909220453E+03  0.65909220453E+03  0.00000000000E+00 0. -1.
         -2   -1    0    0    0  501 -0.00000000000E+00 -0.00000000000E+00 -0.39227156033E+02  0.39227156033E+02  0.00000000000E+00 0.  1.
         25    2    1    2    0    0 -0.73878330241E+02  0.17986011602E+02  0.13738311359E+03  0.20075631178E+03  0.12508985781E+03 0.  0.
          5    1    3    3  502    0 -0.99629601186E+02 -0.12550083311E+02  0.12121450609E+03  0.15746107745E+03  0.41800000000E+01 0. -1.
         -5    1    3    3    0  502  0.25751270945E+02  0.30536094913E+02  0.16168607502E+02  0.43295234337E+02  0.41800000000E+01 0. -1.
        -11    1    1    2    0    0  0.40124065106E+02 -0.57164377267E+02  0.27279243490E+03  0.28159087195E+03  0.00000000000E+00 0.  1.
         11    1    1    2    0    0  0.33754265135E+02  0.39178365666E+02  0.20968950001E+03  0.21597217683E+03  0.00000000000E+00 0. -1.
</event>
<event>
 7    1  0.2564986E-009  0.1503628E+03  0.7561462E-02  0.1200028E+00
         -2   -1    0    0    0  501 -0.00000000000E+00  0.00000000000E+00  0.59387600017E+03  0.59387600017E+03  0.00000000000E+00 0.  1.
          2   -1    0    0  501    0  0.00000000000E+00 -0.00000000000E+00 -0.45023918860E+02  0.45023918860E+02  0.00000000000E+00 0. -1.
         25    2    1    2    0    0 -0.31452504839E+01  0.12169951107E+03  0.29082239541E+03  0.33918433732E+03  0.12509070875E+03 0.  0.
          5    1    3    3  502    0 -0.28297929909E+02  0.12796182515E+03  0.16552580905E+03  0.21116644477E+03  0.41800000000E+01 0.  1.
         -5    1    3    3    0  502  0.25152679425E+02 -0.62623140795E+01  0.12529658636E+03  0.12801789256E+03  0.41800000000E+01 0.  1.
        -11    1    1    2    0    0  0.38288798537E+02 -0.80887954531E+02  0.20702214623E+03  0.22553727477E+03  0.00000000000E+00 0.  1.
         11    1    1    2    0    0 -0.35143548053E+02 -0.40811556543E+02  0.51007539666E+02  0.74178306937E+02  0.00000000000E+00 0. -1.
</event>
<event>
 7    1  0.2564986E-009  0.1676487E+03  0.7561462E-02  0.1180322E+00
          2   -1    0    0  501    0  0.00000000000E+00  0.00000000000E+00  0.12475142441E+03  0.12475142441E+03  0.00000000000E+00 0. -1.
         -2   -1    0    0    0  501 -0.00000000000E+00 -0.00000000000E+00 -0.60980385413E+03  0.60980385413E+03  0.00000000000E+00 0.  1.
         25    2    1    2    0    0  0.63825868453E+02  0.12768380970E+03 -0.52821787222E+03  0.56128287479E+03  0.12508976079E+03 0.  0.
          5    1    3    3  502    0  0.76250918240E+02  0.55939529105E+02 -0.15994937631E+03  0.18586206937E+03  0.41800000000E+01 0.  1.
         -5    1    3    3    0  502 -0.12425049786E+02  0.71744280597E+02 -0.36826849591E+03  0.37542080542E+03  0.41800000000E+01 0.  1.
        -11    1    1    2    0    0 -0.73402553786E+02 -0.13630820895E+03  0.38179779458E+02  0.15945393783E+03  0.00000000000E+00 0.  1.
         11    1    1    2    0    0  0.95766853324E+01  0.86243992467E+01  0.49856630458E+01  0.13818465918E+02  0.00000000000E+00 0. -1.
</event>
<event>
 7    1  0.3699805E-009  0.8966958E+02  0.7561462E-02  0.1303654E+00
          1   -1    0    0  501    0  0.00000000000E+00  0.00000000000E+00  0.12527857145E+03  0.12527857145E+03  0.00000000000E+00 0. -1.
         -1   -1    0    0    0  501 -0.00000000000E+00 -0.00000000000E+00 -0.11593896459E+03  0.11593896459E+03  0.00000000000E+00 0.  1.
         25    2    1    2    0    0  0.24767445269E+02 -0.69878148473E+01 -0.40110697182E+02  0.13386793663E+03  0.12509796373E+03 0.  0.
          5    1    3    3  502    0  0.23066867909E+01  0.55109949800E+02  0.21470552853E+01  0.55358013126E+02  0.41800000000E+01 0. -1.
         -5    1    3    3    0  502  0.22460758478E+02 -0.62097764647E+02 -0.42257752467E+02  0.78509923507E+02  0.41800000000E+01 0. -1.
        -11    1    1    2    0    0 -0.28585420719E+02 -0.17204803317E+02 -0.16338712991E+02  0.37149496323E+02  0.00000000000E+00 0.  1.
         11    1    1    2    0    0  0.38179754501E+01  0.24192618164E+02  0.65789017032E+02  0.70200103078E+02  0.00000000000E+00 0. -1.
</event>
<event>
 7    1  0.2564986E-009  0.1118070E+03  0.7561462E-02  0.1257260E+00
          1   -1    0    0  501    0  0.00000000000E+00  0.00000000000E+00  0.22060479337E+03  0.22060479337E+03  0.00000000000E+00 0. -1.
         -1   -1    0    0    0  501 -0.00000000000E+00 -0.00000000000E+00 -0.81729605362E+02  0.81729605362E+02  0.00000000000E+00 0.  1.
         25    2    1    2    0    0  0.76617717973E+02 -0.19537596407E+02  0.76997540387E+02  0.16681791416E+03  0.12509037884E+03 0.  0.
          5    1    3    3  502    0  0.29280143432E+00  0.17582511068E+02  0.79774821978E+02  0.81796852322E+02  0.41800000000E+01 0.  1.
         -5    1    3    3    0  502  0.76324916539E+02 -0.37120107475E+02 -0.27772815914E+01  0.85021061841E+02  0.41800000000E+01 0.  1.
        -11    1    1    2    0    0 -0.96039948758E+02  0.26990245083E+02  0.51444435847E+02  0.11224381973E+03  0.00000000000E+00 0.  1.
         11    1    1    2    0    0  0.19422230785E+02 -0.74526486757E+01  0.10433211775E+02  0.23272664843E+02  0.00000000000E+00 0. -1.
</event>
<event>
 7    1  0.2564986E-009  0.1494038E+03  0.7561462E-02  0.1201208E+00
         -2   -1    0    0    0  501 -0.00000000000E+00  0.00000000000E+00  0.14182455723E+03  0.14182455723E+03  0.00000000000E+00 0.  1.
          2   -1    0    0  501    0  0.00000000000E+00 -0.00000000000E+00 -0.21841400875E+03  0.21841400875E+03  0.00000000000E+00 0. -1.
         25    2    1    2    0    0 -0.11731406310E+03  0.68719942003E+02 -0.66368576015E+02  0.19631098517E+03  0.12509274634E+03 0.  0.
          5    1    3    3  502    0 -0.71935622335E+01  0.41423308519E+02  0.26295402909E+02  0.49765032306E+02  0.41800000000E+01 0. -1.
         -5    1    3    3    0  502 -0.11012050087E+03  0.27296633485E+02 -0.92663978924E+02  0.14654595287E+03  0.41800000000E+01 0. -1.
        -11    1    1    2    0    0  0.39228412345E+02 -0.33552541771E+00 -0.39915816811E+02  0.55966537718E+02  0.00000000000E+00 0. -1.
         11    1    1    2    0    0  0.78085650757E+02 -0.68384416586E+02  0.29694941301E+02  0.10796104309E+03  0.00000000000E+00 0.  1.
</event>
<event>
 7    1  0.2564986E-009  0.9608844E+02  0.7561462E-02  0.1288743E+00
         -1   -1    0    0    0  501 -0.00000000000E+00  0.00000000000E+00  0.77580727877E+03  0.77580727877E+03  0.00000000000E+00 0.  1.
          1   -1    0    0  501    0  0.00000000000E+00 -0.00000000000E+00 -0.12643318546E+02  0.12643318546E+02  0.00000000000E+00 0. -1.
         25    2    1    2    0    0 -0.26641407412E+01  0.42481595891E+02  0.50256557867E+03  0.51964339806E+03  0.12508124021E+03 0.  0.
          5    1    3    3  502    0  0.27273468483E+02 -0.35448574476E+02  0.23749130424E+03  0.24170236967E+03  0.41800000000E+01 0. -1.
         -5    1    3    3    0  502 -0.29937609224E+02  0.77930170367E+02  0.26507427443E+03  0.27794102839E+03  0.41800000000E+01 0. -1.
        -11    1    1    2    0    0 -0.21817286225E+02 -0.13195147191E+02  0.71907757032E+02  0.76294373377E+02  0.00000000000E+00 0. -1.
         11    1    1    2    0    0  0.24481426966E+02 -0.29286448700E+02  0.18869062452E+03  0.19251282587E+03  0.00000000000E+00 0.  1.
</event>
<event>
 7    1  0.2564986E-009  0.9253668E+02  0.7561462E-02  0.1296822E+00
          2   -1    0    0  501    0  0.00000000000E+00  0.00000000000E+00  0.19998349325E+03  0.19998349325E+03  0.00000000000E+00 0. -1.
         -2   -1    0    0    0  501 -0.00000000000E+00 -0.00000000000E+00 -0.44938785163E+02  0.44938785163E+02  0.00000000000E+00 0.  1.
         25    2    1    2    0    0 -0.13878006707E+02  0.10113252859E+02  0.93091526554E+02  0.15687130506E+03  0.12509075538E+03 0.  0.
          5    1    3    3  502    0 -0.43376706856E+02 -0.45184285555E+02  0.54640379039E+02  0.83223805370E+02  0.41800000000E+01 0. -1.
         -5    1    3    3    0  502  0.29498700149E+02  0.55297538414E+02  0.38451147515E+02  0.73647499688E+02  0.41800000000E+01 0. -1.
        -11    1    1    2    0    0 -0.22367582418E+02 -0.43010430929E+01  0.11114172552E+02  0.25344280349E+02  0.00000000000E+00 0.  1.
         11    1    1    2    0    0  0.36245589125E+02 -0.58122097658E+01  0.50839008977E+02  0.62706693001E+02  0.00000000000E+00 0. -1.
</event>
<event>
 7    1  0.2564986E-009  0.1258889E+03  0.7561462E-02  0.1233687E+00
         -1   -1    0    0    0  501 -0.00000000000E+00  0.00000000000E+00  0.19263311800E+02  0.19263311800E+02  0.00000000000E+00 0. -1.
          1   -1    0    0  501    0  0.00000000000E+00 -0.00000000000E+00 -0.10756541336E+04  0.10756541336E+04  0.00000000000E+00 0.  1.
         25    2    1    2    0    0 -0.70312378161E+02  0.59885506708E+02 -0.52244039614E+03  0.54508819890E+03  0.12508825934E+03 0.  0.
          5    1    3    3  502    0 -0.84060773148E+02  0.33543817638E+02 -0.49859720744E+03  0.50676231998E+03  0.41800000000E+01 0. -1.
         -5    1    3    3    0  502  0.13748394987E+02  0.26341689070E+02 -0.23843188705E+02  0.38325878925E+02  0.41800000000E+01 0. -1.
        -11    1    1    2    0    0  0.73370712145E+02 -0.81314186904E+02 -0.44271606720E+03  0.45606224855E+03  0.00000000000E+00 0.  1.
         11    1    1    2    0    0 -0.30583339843E+01  0.21428680196E+02 -0.91234358463E+02  0.93766997957E+02  0.00000000000E+00 0. -1.
</event>
<event>
 7    1  0.2564986E-009  0.1046894E+03  0.7561462E-02  0.1270733E+00
          4   -1    0    0  501    0  0.00000000000E+00  0.00000000000E+00  0.22907907975E+03  0.22907907975E+03  0.00000000000E+00 0. -1.
         -4   -1    0    0    0  501 -0.00000000000E+00 -0.00000000000E+00 -0.54797153398E+02  0.54797153398E+02  0.00000000000E+00 0.  1.
         25    2    1    2    0    0  0.88468590709E+00  0.29489366884E+01  0.13435555678E+03  0.18360159704E+03  0.12509457183E+03 0.  0.
          5    1    3    3  502    0  0.24842301011E+02  0.58235428175E+02  0.55691566499E+02  0.84424688293E+02  0.41800000000E+01 0. -1.
         -5    1    3    3    0  502 -0.23957615104E+02 -0.55286491487E+02  0.78663990282E+02  0.99176908751E+02  0.41800000000E+01 0. -1.
        -11    1    1    2    0    0 -0.18085776887E+02  0.37467814360E+02  0.10517389277E+01  0.41617767760E+02  0.00000000000E+00 0.  1.
         11    1    1    2    0    0  0.17201090980E+02 -0.40416751049E+02  0.38874630644E+02  0.58656868344E+02  0.00000000000E+00 0. -1.
</event>
<event>
 7    1  0.2564986E-009  0.6858551E+02  0.7561462E-02  0.1364970E+00
          4   -1    0    0  501    0  0.00000000000E+00  0.00000000000E+00  0.35212130724E+03  0.35212130724E+03  0.00000000000E+00 0. -1.
         -4   -1    0    0    0  501 -0.00000000000E+00 -0.00000000000E+00 -0.39649073538E+02  0.39649073538E+02  0.00000000000E+00 0.  1.
         25    2    1    2    0    0  0.10690276514E+02  0.46021181572E+02  0.19469220559E+03  0.23619031598E+03  0.12509428156E+03 0.  0.
          5    1    3    3  502    0 -0.13629096595E+02  0.26199215588E+02  0.20159947318E+03  0.20379394289E+03  0.41800000000E+01 0.  1.
         -5    1    3    3    0  502  0.24319373109E+02  0.19821965984E+02 -0.69072675887E+01  0.32396373091E+02  0.41800000000E+01 0.  1.
        -11    1    1    2    0    0  0.24609802189E+02 -0.16004152505E+02  0.37133239410E+00  0.29358357395E+02  0.00000000000E+00 0.  1.
         11    1    1    2    0    0 -0.35300078703E+02 -0.30017029067E+02  0.11740869572E+03  0.12622170741E+03  0.00000000000E+00 0. -1.
</event>
<event>
 7    1  0.2564986E-009  0.9264239E+02  0.7561462E-02  0.1296576E+00
          2   -1    0    0  501    0  0.00000000000E+00  0.00000000000E+00  0.39385171279E+03  0.39385171279E+03  0.00000000000E+00 0. -1.
         -2   -1    0    0    0  501 -0.00000000000E+00 -0.00000000000E+00 -0.40039657370E+02  0.40039657370E+02  0.00000000000E+00 0.  1.
         25    2    1    2    0    0  0.11437035207E+02  0.36906092114E+02  0.27265554103E+03  0.30246026707E+03  0.12509318004E+03 0.  0.
          5    1    3    3  502    0  0.47191481697E+02  0.30838699662E+02  0.25629682448E+03  0.26245684594E+03  0.41800000000E+01 0.  1.
         -5    1    3    3    0  502 -0.35754446490E+02  0.60673924521E+01  0.16358716544E+02  0.40003421128E+02  0.41800000000E+01 0.  1.
        -11    1    1    2    0    0  0.32445444271E+02 -0.35853762938E+02  0.12504388075E+02  0.49945559282E+02  0.00000000000E+00 0.  1.
         11    1    1    2    0    0 -0.43882479478E+02 -0.10523291756E+01  0.68652126319E+02  0.81485543810E+02  0.00000000000E+00 0. -1.
</event>
<event>
 7    1  0.2564986E-009  0.1533465E+03  0.7561462E-02  0.1196420E+00
         -2   -1    0    0    0  501 -0.00000000000E+00  0.00000000000E+00  0.30241485179E+02  0.30241485179E+02  0.00000000000E+00 0.  1.
          2   -1    0    0  501    0  0.00000000000E+00 -0.00000000000E+00 -0.90024189256E+03  0.90024189256E+03  0.00000000000E+00 0. -1.
         25    2    1    2    0    0 -0.46145534673E+02  0.11246599309E+03 -0.48306861591E+03  0.51359470410E+03  0.12508486089E+03 0.  0.
          5    1    3    3  502    0 -0.60994419598E+02  0.17760886408E+02 -0.98866158356E+02  0.11759148769E+03  0.41800000000E+01 0. -1.
         -5    1    3    3    0  502  0.14848884925E+02  0.94705106679E+02 -0.38420245756E+03  0.39600321641E+03  0.41800000000E+01 0. -1.
        -11    1    1    2    0    0  0.22168688602E+01 -0.10185958048E+03 -0.32233604017E+03  0.33805445040E+03  0.00000000000E+00 0.  1.
         11    1    1    2    0    0  0.43928665813E+02 -0.10606412610E+02 -0.64595751294E+02  0.78834223240E+02  0.00000000000E+00 0. -1.
</event>
<event>
 7    1  0.2564986E-009  0.1528882E+03  0.7561462E-02  0.1196968E+00
         -2   -1    0    0    0  501 -0.00000000000E+00  0.00000000000E+00  0.17803448638E+03  0.17803448638E+03  0.00000000000E+00 0.  1.
          2   -1    0    0  501    0  0.00000000000E+00 -0.00000000000E+00 -0.15995849517E+03  0.15995849517E+03  0.00000000000E+00 0. -1.
         25    2    1    2    0    0  0.90524191295E+02 -0.71714153006E+02 -0.48294603933E+02  0.17696483108E+03  0.12508650495E+03 0.  0.
          5    1    3    3  502    0  0.24569287347E+02 -0.92474311103E+02 -0.49233295437E+02  0.10768722243E+03  0.41800000000E+01 0. -1.
         -5    1    3    3    0  502  0.65954903948E+02  0.20760158097E+02  0.93869150426E+00  0.69277608654E+02  0.41800000000E+01 0. -1.
        -11    1    1    2    0    0 -0.97602569186E+02  0.35540912128E+02  0.67969702643E+02  0.12413419522E+03  0.00000000000E+00 0.  1.
         11    1    1    2    0    0  0.70783778911E+01  0.36173240878E+02 -0.15991075002E+01  0.36893955250E+02  0.00000000000E+00 0. -1.
</event>
<event>
 7    1  0.2564986E-009  0.1149826E+03  0.7561462E-02  0.1251612E+00
          2   -1    0    0  501    0  0.00000000000E+00  0.00000000000E+00  0.42777458822E+02  0.42777458822E+02  0.00000000000E+00 0. -1.
         -2   -1    0    0    0  501 -0.00000000000E+00 -0.00000000000E+00 -0.51188455716E+03  0.51188455716E+03  0.00000000000E+00 0.  1.
         25    2    1    2    0    0  0.29070325488E+02 -0.72786872613E+02 -0.36844909011E+03  0.39692102161E+03  0.12509417550E+03 0.  0.
          5    1    3    3  502    0 -0.65385944131E+00  0.23688740177E+02 -0.19271725361E+03  0.19421378988E+03  0.41800000000E+01 0.  1.
         -5    1    3    3    0  502  0.29724184929E+02 -0.96475612790E+02 -0.17573183650E+03  0.20270723172E+03  0.41800000000E+01 0.  1.
        -11    1    1    2    0    0 -0.34144259184E+02  0.23287356110E+01 -0.75255348822E+02  0.82671766469E+02  0.00000000000E+00 0.  1.
         11    1    1    2    0    0  0.50739336966E+01  0.70458137002E+02 -0.25402659404E+02  0.75069227902E+02  0.00000000000E+00 0. -1.
</event>
<event>
 7    1  0.2564986E-009  0.1618854E+03  0.7561462E-02  0.1186584E+00
          1   -1    0    0  501    0  0.00000000000E+00  0.00000000000E+00  0.47898586528E+02  0.47898586528E+02  0.00000000000E+00 0. -1.
         -1   -1    0    0    0  501 -0.00000000000E+00 -0.00000000000E+00 -0.70604619721E+03  0.70604619721E+03  0.00000000000E+00 0.  1.
         25    2    1    2    0    0 -0.16713503571E+02  0.13809449413E+03 -0.24451633712E+03  0.30787403024E+03  0.12509495942E+03 0.  0.
          5    1    3    3  502    0 -0.38748926744E+02  0.13900350246E+03 -0.14044453319E+03  0.20140901748E+03  0.41800000000E+01 0.  1.
         -5    1    3    3    0  502  0.22035423173E+02 -0.90900833117E+00 -0.10407180392E+03  0.10646501276E+03  0.41800000000E+01 0.  1.
        -11    1    1    2    0    0 -0.28932621244E+02 -0.55743550100E+02 -0.24512889835E+03  0.25304666913E+03  0.00000000000E+00 0.  1.
         11    1    1    2    0    0  0.45646124814E+02 -0.82350944025E+02 -0.16850237521E+03  0.19302408436E+03  0.00000000000E+00 0. -1.
</event>
<event>
 7    1  0.2564986E-009  0.1225620E+03  0.7561462E-02  0.1238929E+00
          2   -1    0    0  501    0  0.00000000000E+00  0.00000000000E+00  0.74701864545E+03  0.74701864545E+03  0.00000000000E+00 0. -1.
         -2   -1    0    0    0  501 -0.00000000000E+00 -0.00000000000E+00 -0.24079828835E+02  0.24079828835E+02  0.00000000000E+00 0.  1.
         25    2    1    2    0    0 -0.42832914723E+02 -0.39886135917E+02  0.24442025732E+03  0.28074421628E+03  0.12510191990E+03 0.  0.
          5    1    3    3  502    0 -0.15388493473E+02  0.45523326952E+02  0.81096445797E+02  0.94357219909E+02  0.41800000000E+01 0. -1.
         -5    1    3    3    0  502 -0.27444421250E+02 -0.85409462868E+02  0.16332381152E+03  0.18638699637E+03  0.41800000000E+01 0. -1.
        -11    1    1    2    0    0  0.23762428395E+02 -0.27908938197E+02  0.16595121855E+03  0.16995107759E+03  0.00000000000E+00 0. -1.
         11    1    1    2    0    0  0.19070486328E+02  0.67795074113E+02  0.31256734075E+03  0.32040318042E+03  0.00000000000E+00 0.  1.
</event>
<event>
 7    1  0.2564986E-009  0.1627400E+03  0.7561462E-02  0.1185638E+00
         -1   -1    0    0    0  501 -0.00000000000E+00  0.00000000000E+00  0.15377223176E+04  0.15377223176E+04  0.00000000000E+00 0.  1.
          1   -1    0    0  501    0  0.00000000000E+00 -0.00000000000E+00 -0.20430369595E+02  0.20430369595E+02  0.00000000000E+00 0. -1.
         25    2    1    2    0    0  0.12586401466E+03 -0.28552494903E+02  0.10409248363E+04  0.10563264297E+04  0.12507604133E+03 0.  0.
          5    1    3    3  502    0  0.82864112139E+02  0.37675553670E+02  0.72281420107E+03  0.72853534581E+03  0.41800000000E+01 0.  1.
         -5    1    3    3    0  502  0.42999902522E+02 -0.66228048574E+02  0.31811063524E+03  0.32779108391E+03  0.41800000000E+01 0.  1.
        -11    1    1    2    0    0 -0.13730868347E+03  0.35592741089E+02  0.45488446505E+03  0.47648755946E+03  0.00000000000E+00 0. -1.
         11    1    1    2    0    0  0.11444668813E+02 -0.70402461855E+01  0.21482646650E+02  0.25338698027E+02  0.00000000000E+00 0.  1.
</event>
<event>
 7    1  0.2564986E-009  0.1059527E+03  0.7561462E-02  0.1268254E+00
          2   -1    0    0  501    0  0.00000000000E+00  0.00000000000E+00  0.77446588598E+03  0.77446588598E+03  0.00000000000E+00 0. -1.
         -2   -1    0    0    0  501 -0.00000000000E+00 -0.00000000000E+00 -0.30448835919E+02  0.30448835919E+02  0.00000000000E+00 0.  1.
         25    2    1    2    0    0 -0.71870753898E+02  0.57741819287E+02  0.55088793773E+03  0.57238406064E+03  0.12508585045E+03 0.  0.
          5    1    3    3  502    0 -0.36160758666E+02  0.11001618835E+02  0.30724276811E+02  0.48888543340E+02  0.41800000000E+01 0.  1.
         -5    1    3    3    0  502 -0.35709995232E+02  0.46740200451E+02  0.52016366092E+03  0.52349551730E+03  0.41800000000E+01 0.  1.
        -11    1    1    2    0    0 -0.13484294651E+02 -0.40845627511E+01  0.79005710319E+02  0.80252178277E+02  0.00000000000E+00 0. -1.
         11    1    1    2    0    0  0.85355048549E+02 -0.53657256536E+02  0.11412340202E+03  0.15227848298E+03  0.00000000000E+00 0.  1.
</event>
<event>
 7    1  0.2603389E-009  0.1176387E+03  0.7561462E-02  0.1247044E+00
          2   -1    0    0  501    0  0.00000000000E+00  0.00000000000E+00  0.27163354481E+03  0.27163354481E+03  0.00000000000E+00 0. -1.
         -2   -1    0    0    0  501 -0.00000000000E+00 -0.00000000000E+00 -0.74514706701E+02  0.74514706701E+02  0.00000000000E+00 0.  1.
         25    2    1    2    0    0  0.26800656226E+02  0.80142634819E+02  0.64387111708E+02  0.16411640466E+03  0.12508947611E+03 0.  0.
          5    1    3    3  502    0 -0.24670595889E+01  0.10779062049E+03  0.59843450156E+02  0.12338401507E+03  0.41800000000E+01 0.  1.
         -5    1    3    3    0  502  0.29267715815E+02 -0.27647985674E+02  0.45436615528E+01  0.40732389583E+02  0.41800000000E+01 0.  1.
        -11    1    1    2    0    0 -0.18416659132E+02 -0.24612663770E+02 -0.69215345100E+01  0.31509747562E+02  0.00000000000E+00 0.  1.
         11    1    1    2    0    0 -0.83839970938E+01 -0.55529971049E+02  0.13965326091E+03  0.15052209929E+03  0.00000000000E+00 0. -1.
</event>
<event>
 7    1  0.2564986E-009  0.1237871E+03  0.7561462E-02  0.1236977E+00
          2   -1    0    0  501    0  0.00000000000E+00  0.00000000000E+00  0.22480475744E+03  0.22480475744E+03  0.00000000000E+00 0. -1.
         -2   -1    0    0    0  501 -0.00000000000E+00 -0.00000000000E+00 -0.70709899582E+02  0.70709899582E+02  0.00000000000E+00 0.  1.
         25    2    1    2    0    0  0.56348255785E+02 -0.22488482516E+02  0.77541142549E+02  0.15918527326E+03  0.12508582917E+03 0.  0.
          5    1    3    3  502    0  0.96022207283E+02 -0.17007940351E+02  0.63928248286E+02  0.11667830842E+03  0.41800000000E+01 0.  1.
         -5    1    3    3    0  502 -0.39673951498E+02 -0.54805421648E+01  0.13612894263E+02  0.42506964842E+02  0.41800000000E+01 0.  1.
        -11    1    1    2    0    0 -0.33883963600E+02 -0.34552704434E+02  0.18234321861E+02  0.51715595972E+02  0.00000000000E+00 0.  1.
         11    1    1    2    0    0 -0.22464292184E+02  0.57041186950E+02  0.58319393446E+02  0.84613787788E+02  0.00000000000E+00 0. -1.
</event>
<event>
 7    1  0.2564986E-009  0.7757768E+02  0.7561462E-02  0.1336070E+00
         -1   -1    0    0    0  501 -0.00000000000E+00  0.00000000000E+00  0.49654782625E+02  0.49654782625E+02  0.00000000000E+00 0.  1.
          1   -1    0    0  501    0  0.00000000000E+00 -0.00000000000E+00 -0.27578792381E+03  0.27578792381E+03  0.00000000000E+00 0. -1.
         25    2    1    2    0    0 -0.38560936126E+02 -0.17078322765E+02 -0.74223595421E+02  0.15144705232E+03  0.12509377536E+03 0.  0.
          5    1    3    3  502    0  0.95598677447E+01 -0.19421445131E+02  0.29603150298E+02  0.36910737053E+02  0.41800000000E+01 0.  1.
         -5    1    3    3    0  502 -0.48120803871E+02  0.23431223657E+01 -0.10382674572E+03  0.11453631526E+03  0.41800000000E+01 0.  1.
        -11    1    1    2    0    0  0.33651940717E+02 -0.25291592465E+02 -0.71428123056E+02  0.82910159369E+02  0.00000000000E+00 0. -1.
         11    1    1    2    0    0  0.49089954096E+01  0.42369915229E+02 -0.80481422706E+02  0.91085494746E+02  0.00000000000E+00 0.  1.
</event>
<event>
 7    1  0.2564986E-009  0.8904685E+02  0.7561462E-02  0.1305176E+00
         -1   -1    0    0    0  501 -0.00000000000E+00  0.00000000000E+00  0.51556427442E+02  0.51556427442E+02  0.00000000000E+00 0.  1.
          1   -1    0    0  501    0  0.00000000000E+00 -0.00000000000E+00 -0.25229452089E+03  0.25229452089E+03  0.00000000000E+00 0. -1.
         25    2    1    2    0    0  0.10173644705E+02 -0.19976598389E+02 -0.15423576947E+03  0.19984584042E+03  0.12508844799E+03 0.  0.
          5    1    3    3  502    0 -0.28097644285E+02  0.43830960332E+02 -0.70688051394E+02  0.87891431368E+02  0.41800000000E+01 0.  1.
         -5    1    3    3    0  502  0.38271288990E+02 -0.63807558721E+02 -0.83547718078E+02  0.11195440906E+03  0.41800000000E+01 0.  1.
        -11    1    1    2    0    0 -0.28485643092E+02  0.84908386968E+01  0.18832084271E+02  0.35187691060E+02  0.00000000000E+00 0.  1.
         11    1    1    2    0    0  0.18311998387E+02  0.11485759692E+02 -0.65334408248E+02  0.68817416849E+02  0.00000000000E+00 0. -1.
</event>
<event>
 7    1  0.2564986E-009  0.1052180E+03  0.7561462E-02  0.1269691E+00
          4   -1    0    0  501    0  0.00000000000E+00  0.00000000000E+00  0.88228529290E+02  0.88228529290E+02  0.00000000000E+00 0. -1.
         -4   -1    0    0    0  501 -0.00000000000E+00 -0.00000000000E+00 -0.17329956229E+03  0.17329956229E+03  0.00000000000E+00 0.  1.
         25    2    1    2    0    0 -0.73137450774E+01  0.33825438684E+02 -0.98248266336E+02  0.16277970068E+03  0.12508740123E+03 0.  0.
          5    1    3    3  502    0 -0.25660274557E+01  0.75351623018E+02 -0.93980700961E+02  0.12055826866E+03  0.41800000000E+01 0. -1.
         -5    1    3    3    0  502 -0.47477176216E+01 -0.41526184333E+02 -0.42675653751E+01  0.42221432024E+02  0.41800000000E+01 0. -1.
        -11    1    1    2    0    0 -0.72330454121E+01  0.28250701340E+02  0.18873644983E+02  0.34736631199E+02  0.00000000000E+00 0.  1.
         11    1    1    2    0    0  0.14546790489E+02 -0.62076140025E+02 -0.56964116424E+01  0.64011759697E+02  0.00000000000E+00 0. -1.
</event>
<event>
 7    1  0.2564986E-009  0.1092225E+03  0.7561462E-02  0.1262016E+00
         -2   -1    0    0    0  501 -0.00000000000E+00  0.00000000000E+00  0.43572900106E+03  0.43572900106E+03  0.00000000000E+00 0. -1.
          2   -1    0    0  501    0  0.00000000000E+00 -0.00000000000E+00 -0.35436360628E+02  0.35436360628E+02  0.00000000000E+00 0.  1.
         25    2    1    2    0    0  0.17389568963E+02  0.57741549334E+02  0.18082716694E+03  0.22799629772E+03  0.12508942338E+03 0.  0.
          5    1    3    3  502    0  0.46029515404E+02  0.68686267519E+02  0.57379035034E+02  0.10072907076E+03  0.41800000000E+01 0. -1.
         -5    1    3    3    0  502 -0.28639946442E+02 -0.10944718185E+02  0.12344813190E+03  0.12726722696E+03  0.41800000000E+01 0. -1.
        -11    1    1    2    0    0  0.34052935733E+02 -0.12719386569E+02  0.77486298295E+02  0.85589202883E+02  0.00000000000E+00 0.  1.
         11    1    1    2    0    0 -0.51442504696E+02 -0.45022162765E+02  0.14197917520E+03  0.15757986109E+03  0.00000000000E+00 0. -1.
</event>
<event>
 7    1  0.2564986E-009  0.1297362E+03  0.7561462E-02  0.1227848E+00
          1   -1    0    0  501    0  0.00000000000E+00  0.00000000000E+00  0.88799364234E+02  0.88799364234E+02  0.00000000000E+00 0. -1.
         -1   -1    0    0    0  501 -0.00000000000E+00 -0.00000000000E+00 -0.22633354677E+03  0.22633354677E+03  0.00000000000E+00 0.  1.
         25    2    1    2    0    0 -0.81142155868E+02  0.10590229420E+02 -0.12288462950E+03  0.19351168406E+03  0.12509970937E+03 0.  0.
          5    1    3    3  502    0 -0.61960582356E+01 -0.51220700835E+02 -0.50241568729E+02  0.72136252745E+02  0.41800000000E+01 0.  1.
         -5    1    3    3    0  502 -0.74946097633E+02  0.61810930256E+02 -0.72643060769E+02  0.12137543132E+03  0.41800000000E+01 0.  1.
        -11    1    1    2    0    0  0.85558184132E+02  0.12940228005E+02  0.10181623276E+02  0.87128168954E+02  0.00000000000E+00 0.  1.
         11    1    1    2    0    0 -0.44160282634E+01 -0.23530457425E+02 -0.24831176315E+02  0.34493057989E+02  0.00000000000E+00 0. -1.
</event>
<event>
 7    1  0.2564986E-009  0.6585539E+02  0.7561462E-02  0.1374782E+00
         -1   -1    0    0    0  501 -0.00000000000E+00  0.00000000000E+00  0.25054967206E+02  0.25054967206E+02  0.00000000000E+00 0. -1.
          1   -1    0    0  501    0  0.00000000000E+00 -0.00000000000E+00 -0.52961497085E+03  0.52961497085E+03  0.00000000000E+00 0.  1.
         25    2    1    2    0    0  0.10928280796E+01 -0.69724955971E+00 -0.37163853753E+03  0.39212726550E+03  0.12508760665E+03 0.  0.
          5    1    3    3  502    0  0.18007385974E+02 -0.68710353632E+01 -0.37306640897E+03  0.37358733247E+03  0.41800000000E+01 0.  1.
         -5    1    3    3    0  502 -0.16914557894E+02  0.61737858035E+01  0.14278714409E+01  0.18539933030E+02  0.41800000000E+01 0.  1.
        -11    1    1    2    0    0  0.42503268029E+02  0.18574833448E+02 -0.68543015925E+02  0.82762897864E+02  0.00000000000E+00 0. -1.
         11    1    1    2    0    0 -0.43596096109E+02 -0.17877583888E+02 -0.64378450184E+02  0.79779774690E+02  0.00000000000E+00 0.  1.
</event>
<event>
 7    1  0.2564986E-009  0.1191631E+03  0.7561462E-02  0.1244484E+00
         -3   -1    0    0    0  501 -0.00000000000E+00  0.00000000000E+00  0.10238811954E+03  0.10238811954E+03  0.00000000000E+00 0.  1.
          3   -1    0    0  501    0  0.00000000000E+00 -0.00000000000E+00 -0.17906330097E+03  0.17906330097E+03  0.00000000000E+00 0. -1.
         25    2    1    2    0    0 -0.73057983731E+02  0.44569602262E+02 -0.48571076170E+02  0.15915415625E+03  0.12508787943E+03 0.  0.
          5    1    3    3  502    0  0.16109106514E+01 -0.37845552584E+02 -0.99559946400E+00  0.38122755696E+02  0.41800000000E+01 0. -1.
         -5    1    3    3    0  502 -0.74668894382E+02  0.82415154846E+02 -0.47575476706E+02  0.12103140056E+03  0.41800000000E+01 0. -1.
        -11    1    1    2    0    0  0.19615735974E+02 -0.44020686383E+00 -0.46602075993E+02  0.50564062008E+02  0.00000000000E+00 0. -1.
         11    1    1    2    0    0  0.53442247757E+02 -0.44129395398E+02  0.18497970736E+02  0.71733202249E+02  0.00000000000E+00 0.  1.
</event>
<event>
 7    1  0.2564986E-009  0.8782622E+02  0.7561462E-02  0.1308203E+00
         -2   -1    0    0    0  501 -0.00000000000E+00  0.00000000000E+00  0.52307714301E+02  0.52307714301E+02  0.00000000000E+00 0. -1.
          2   -1    0    0  501    0  0.00000000000E+00 -0.00000000000E+00 -0.27208050526E+03  0.27208050526E+03  0.00000000000E+00 0.  1.
         25    2    1    2    0    0 -0.24303775676E+02 -0.40118258670E+02 -0.97226367717E+02  0.16523004433E+03  0.12509137771E+03 0.  0.
          5    1    3    3  502    0 -0.46179933803E+02 -0.51149002843E+02 -0.44491337135E+01  0.69181456827E+02  0.41800000000E+01 0.  1.
         -5    1    3    3    0  502  0.21876158127E+02  0.11030744173E+02 -0.92777234004E+02  0.96048587500E+02  0.41800000000E+01 0.  1.
        -11    1    1    2    0    0  0.10323626387E+02  0.58084966077E+02 -0.34773130651E+02  0.68480735694E+02  0.00000000000E+00 0. -1.
         11    1    1    2    0    0  0.13980149288E+02 -0.17966707408E+02 -0.87773292588E+02  0.90677439537E+02  0.00000000000E+00 0.  1.
</event>
<event>
 7    1  0.2564986E-009  0.6155190E+02  0.7561462E-02  0.1391432E+00
         -3   -1    0    0    0  501 -0.00000000000E+00  0.00000000000E+00  0.26042027783E+02  0.26042027783E+02  0.00000000000E+00 0.  1.
          3   -1    0    0  501    0  0.00000000000E+00 -0.00000000000E+00 -0.60152083435E+03  0.60152083435E+03  0.00000000000E+00 0. -1.
         25    2    1    2    0    0  0.39201260732E+02  0.30635411036E+02 -0.40771161138E+03  0.42936134579E+03  0.12508852846E+03 0.  0.
          5    1    3    3  502    0 -0.34447836481E+01  0.14681804633E+01 -0.35633393729E+03  0.35637812693E+03  0.41800000000E+01 0.  1.
         -5    1    3    3    0  502  0.42646044380E+02  0.29167230573E+02 -0.51377674084E+02  0.72983218858E+02  0.41800000000E+01 0.  1.
        -11    1    1    2    0    0 -0.38880171317E+02 -0.40737198191E+01 -0.13039758343E+02  0.41210413883E+02  0.00000000000E+00 0.  1.
         11    1    1    2    0    0 -0.32108941496E+00 -0.26561691217E+02 -0.15472743685E+03  0.15699110246E+03  0.00000000000E+00 0. -1.
</event>
<event>
 7    1  0.2564986E-009  0.1349152E+03  0.7561462E-02  0.1220339E+00
          2   -1    0    0  501    0  0.00000000000E+00  0.00000000000E+00  0.54147015958E+03  0.54147015958E+03  0.00000000000E+00 0.  1.
         -2   -1    0    0    0  501 -0.00000000000E+00 -0.00000000000E+00 -0.36520602544E+02  0.36520602544E+02  0.00000000000E+00 0. -1.
         25    2    1    2    0    0 -0.40924946405E+02  0.78020838817E+02  0.25857808433E+03  0.30045409080E+03  0.12509169617E+03 0.  0.
          5    1    3    3  502    0 -0.29863853642E+02  0.10718702224E+03  0.23825616877E+03  0.26299122010E+03  0.41800000000E+01 0.  1.
         -5    1    3    3    0  502 -0.11061092763E+02 -0.29166183427E+02  0.20321915559E+02  0.37462870696E+02  0.41800000000E+01 0.  1.
        -11    1    1    2    0    0  0.76887527993E+01 -0.91004071838E+02  0.16281918370E+03  0.18668407696E+03  0.00000000000E+00 0.  1.
         11    1    1    2    0    0  0.33236193605E+02  0.12983233021E+02  0.83552289009E+02  0.90852594369E+02  0.00000000000E+00 0. -1.
</event>
<event>
 7    1  0.3051557E-009  0.9936212E+02  0.7561462E-02  0.1281643E+00
         -2   -1    0    0    0  501 -0.00000000000E+00  0.00000000000E+00  0.29700707307E+02  0.29700707307E+02  0.00000000000E+00 0.  1.
          2   -1    0    0  501    0  0.00000000000E+00 -0.00000000000E+00 -0.48603154957E+03  0.48603154957E+03  0.00000000000E+00 0. -1.
         25    2    1    2    0    0 -0.25014778622E+02 -0.59462723603E+01 -0.16159032803E+03  0.20596140847E+03  0.12509024887E+03 0.  0.
          5    1    3    3  502    0 -0.21982241853E+02  0.50268026152E+02 -0.29766070035E+02  0.62558650365E+02  0.41800000000E+01 0.  1.
         -5    1    3    3    0  502 -0.30325367685E+01 -0.56214298512E+02 -0.13182425800E+03  0.14340275811E+03  0.41800000000E+01 0.  1.
        -11    1    1    2    0    0  0.22396778297E+02 -0.37524616001E+02 -0.20995584228E+03  0.21445551565E+03  0.00000000000E+00 0.  1.
         11    1    1    2    0    0  0.26180003254E+01  0.43470888361E+02 -0.84784671952E+02  0.95315332757E+02  0.00000000000E+00 0. -1.
</event>
<event>
 7    1  0.2564986E-009  0.7007924E+02  0.7561462E-02  0.1359824E+00
          2   -1    0    0  501    0  0.00000000000E+00  0.00000000000E+00  0.32104540372E+03  0.32104540372E+03  0.00000000000E+00 0. -1.
         -2   -1    0    0    0  501 -0.00000000000E+00 -0.00000000000E+00 -0.67812303042E+02  0.67812303042E+02  0.00000000000E+00 0.  1.
         25    2    1    2    0    0 -0.50648843474E+01 -0.25011763081E+02  0.26422624249E+03  0.29344887379E+03  0.12508194499E+03 0.  0.
          5    1    3    3  502    0  0.27952819914E+02 -0.41389727619E+02  0.34734784205E+02  0.60979072863E+02  0.41800000000E+01 0. -1.
         -5    1    3    3    0  502 -0.33017704261E+02  0.16377964538E+02  0.22949145829E+03  0.23246980093E+03  0.41800000000E+01 0. -1.
        -11    1    1    2    0    0 -0.97541385109E+01  0.34163837607E+02  0.32753185399E+02  0.48322687962E+02  0.00000000000E+00 0. -1.
         11    1    1    2    0    0  0.14819022858E+02 -0.91520745256E+01 -0.43746327215E+02  0.47086145005E+02  0.00000000000E+00 0.  1.
</event>
<event>
 7    1  0.2564986E-009  0.1293040E+03  0.7561462E-02  0.1228492E+00
          1   -1    0    0  501    0  0.00000000000E+00  0.00000000000E+00  0.30214133574E+03  0.30214133574E+03  0.00000000000E+00 0. -1.
         -1   -1    0    0    0  501 -0.00000000000E+00 -0.00000000000E+00 -0.65433401107E+02  0.65433401107E+02  0.00000000000E+00 0.  1.
         25    2    1    2    0    0  0.33372047986E+02  0.69788607869E+02  0.72083526862E+02  0.16379220015E+03  0.12509079347E+03 0.  0.
          5    1    3    3  502    0 -0.99720014564E+01  0.91406184796E+02  0.69081640888E+02  0.11508378226E+03  0.41800000000E+01 0. -1.
         -5    1    3    3    0  502  0.43344049442E+02 -0.21617576926E+02  0.30018859739E+01  0.48708417893E+02  0.41800000000E+01 0. -1.
        -11    1    1    2    0    0  0.13224038935E+02 -0.70115258048E+02  0.80147082524E+02  0.10730600847E+03  0.00000000000E+00 0. -1.
         11    1    1    2    0    0 -0.46596086921E+02  0.32665017906E+00  0.84477325250E+02  0.96476528224E+02  0.00000000000E+00 0.  1.
</event>
<event>
 7    1  0.2564986E-009  0.1422024E+03  0.7561462E-02  0.1210396E+00
         -1   -1    0    0    0  501 -0.00000000000E+00  0.00000000000E+00  0.11244507825E+04  0.11244507825E+04  0.00000000000E+00 0.  1.
          1   -1    0    0  501    0  0.00000000000E+00 -0.00000000000E+00 -0.26562962348E+02  0.26562962348E+02  0.00000000000E+00 0. -1.
         25    2    1    2    0    0  0.13172864759E+03  0.10591330228E+02  0.62896680576E+03  0.65476082823E+03  0.12509151276E+03 0.  0.
          5    1    3    3  502    0  0.33136766646E+02  0.22546230987E+02  0.43447401400E+03  0.43633876642E+03  0.41800000000E+01 0. -1.
         -5    1    3    3    0  502  0.98591880945E+02 -0.11954900759E+02  0.19449279176E+03  0.21842206181E+03  0.41800000000E+01 0. -1.
        -11    1    1    2    0    0 -0.48807422561E+02 -0.32869939025E+02  0.31082207312E+03  0.31634310254E+03  0.00000000000E+00 0.  1.
         11    1    1    2    0    0 -0.82921225030E+02  0.22278608797E+02  0.15809894131E+03  0.17990981411E+03  0.00000000000E+00 0. -1.
</event>
<event>
 7    1  0.2564986E-009  0.1449011E+03  0.7561462E-02  0.1206882E+00
          1   -1    0    0  501    0  0.00000000000E+00  0.00000000000E+00  0.28066804600E+03  0.28066804600E+03  0.00000000000E+00 0. -1.
         -1   -1    0    0    0  501 -0.00000000000E+00 -0.00000000000E+00 -0.11419511968E+03  0.11419511968E+03  0.00000000000E+00 0.  1.
         25    2    1    2    0    0 -0.85367983599E+02  0.80096524020E+02  0.17733129105E+03  0.24657112094E+03  0.12509110725E+03 0.  0.
          5    1    3    3  502    0 -0.19752557882E+02  0.88165123638E+02  0.14947683352E+03  0.17471132970E+03  0.41800000000E+01 0.  1.
         -5    1    3    3    0  502 -0.65615425717E+02 -0.80685996175E+01  0.27854457529E+02  0.71859791233E+02  0.41800000000E+01 0.  1.
        -11    1    1    2    0    0  0.19154039612E+02  0.97586071505E+01 -0.28070580868E+02  0.35356260510E+02  0.00000000000E+00 0.  1.
         11    1    1    2    0    0  0.66213943987E+02 -0.89855131171E+02  0.17212216145E+02  0.11293578423E+03  0.00000000000E+00 0. -1.
</event>
<event>
 7    1  0.2564986E-009  0.1083382E+03  0.7561462E-02  0.1263679E+00
         -2   -1    0    0    0  501 -0.00000000000E+00  0.00000000000E+00  0.39858623391E+03  0.39858623391E+03  0.00000000000E+00 0.  1.
          2   -1    0    0  501    0  0.00000000000E+00 -0.00000000000E+00 -0.37312975500E+02  0.37312975500E+02  0.00000000000E+00 0. -1.
         25    2    1    2    0    0 -0.87565642327E+01  0.26956463777E+02  0.29007102450E+03  0.31716258064E+03  0.12509026720E+03 0.  0.
          5    1    3    3  502    0  0.39017775767E+02  0.53922217746E+02  0.10772409417E+03  0.12669627168E+03  0.41800000000E+01 0.  1.
         -5    1    3    3    0  502 -0.47774340000E+02 -0.26965753969E+02  0.18234693033E+03  0.19046630896E+03  0.41800000000E+01 0.  1.
        -11    1    1    2    0    0 -0.40970649353E+02 -0.79605909341E+01  0.33213916964E+02  0.53339754372E+02  0.00000000000E+00 0.  1.
         11    1    1    2    0    0  0.49727213586E+02 -0.18995872843E+02  0.37988316945E+02  0.65396874393E+02  0.00000000000E+00 0. -1.
</event>
<event>
 7    1  0.2564986E-009  0.7772144E+02  0.7561462E-02  0.1335645E+00
          2   -1    0    0  501    0  0.00000000000E+00  0.00000000000E+00  0.19905175988E+03  0.19905175988E+03  0.00000000000E+00 0. -1.
         -2   -1    0    0    0  501 -0.00000000000E+00 -0.00000000000E+00 -0.75928658148E+02  0.75928658148E+02  0.00000000000E+00 0.  1.
         25    2    1    2    0    0 -0.49400893933E+02 -0.11968365721E+02  0.38373334751E+02  0.14036939147E+03  0.12508942058E+03 0.  0.
          5    1    3    3  502    0 -0.99967942112E+01 -0.46611721584E+02  0.65529486641E+02  0.81142926389E+02  0.41800000000E+01 0.  1.
         -5    1    3    3    0  502 -0.39404099722E+02  0.34643355864E+02 -0.27156151890E+02  0.59226465080E+02  0.41800000000E+01 0.  1.
        -11    1    1    2    0    0  0.24087049357E+02  0.16556134882E+02  0.10035302267E+03  0.10452282386E+03  0.00000000000E+00 0. -1.
         11    1    1    2    0    0  0.25313844577E+02 -0.45877691619E+01 -0.15603255693E+02  0.30088202694E+02  0.00000000000E+00 0.  1.
</event>
<event>
 7    1  0.2564986E-009  0.1027649E+03  0.7561462E-02  0.1274587E+00
         -1   -1    0    0    0  501 -0.00000000000E+00  0.00000000000E+00  0.44171229624E+02  0.44171229624E+02  0.00000000000E+00 0.  1.
          1   -1    0    0  501    0  0.00000000000E+00 -0.00000000000E+00 -0.74061734808E+03  0.74061734808E+03  0.00000000000E+00 0. -1.
         25    2    1    2    0    0 -0.65214678641E+00 -0.68932189212E+02 -0.64495592233E+03  0.66058272393E+03  0.12509724782E+03 0.  0.
          5    1    3    3  502    0  0.46773585996E+01 -0.83836216318E+02 -0.63673963952E+03  0.64226570030E+03  0.41800000000E+01 0. -1.
         -5    1    3    3    0  502 -0.53295053861E+01  0.14904027106E+02 -0.82162828096E+01  0.18317023635E+02  0.41800000000E+01 0. -1.
        -11    1    1    2    0    0  0.30527713042E+02  0.68738047183E+02 -0.14397799889E+02  0.76577784218E+02  0.00000000000E+00 0.  1.
         11    1    1    2    0    0 -0.29875566256E+02  0.19414202906E+00 -0.37092396241E+02  0.47628069551E+02  0.00000000000E+00 0. -1.
</event>
<event>
 7    1  0.2564986E-009  0.2783715E+03  0.7561462E-02  0.1096582E+00
          1   -1    0    0  501    0  0.00000000000E+00  0.00000000000E+00  0.17504130232E+03  0.17504130232E+03  0.00000000000E+00 0. -1.
         -1   -1    0    0    0  501 -0.00000000000E+00 -0.00000000000E+00 -0.58764236693E+03  0.58764236693E+03  0.00000000000E+00 0.  1.
         25    2    1    2    0    0 -0.14431967519E+03  0.21568537719E+03 -0.27453313730E+02  0.28939570900E+03  0.12509133212E+03 0.  0.
          5    1    3    3  502    0 -0.12588067642E+03  0.87544593719E+02  0.12368200467E+02  0.15388451958E+03  0.41800000000E+01 0. -1.
         -5    1    3    3    0  502 -0.18438998775E+02  0.12814078347E+03 -0.39821514197E+02  0.13551118942E+03  0.41800000000E+01 0. -1.
        -11    1    1    2    0    0 -0.59236163066E+01 -0.49270528454E+02 -0.88251009441E+02  0.10124680178E+03  0.00000000000E+00 0.  1.
         11    1    1    2    0    0  0.15024329150E+03 -0.16641484874E+03 -0.29689674143E+03  0.37204115847E+03  0.00000000000E+00 0. -1.
</event>
<event>
 7    1  0.2564986E-009  0.1089145E+03  0.7561462E-02  0.1262593E+00
          4   -1    0    0  501    0  0.00000000000E+00  0.00000000000E+00  0.29335758847E+02  0.29335758847E+02  0.00000000000E+00 0. -1.
         -4   -1    0    0    0  501 -0.00000000000E+00 -0.00000000000E+00 -0.56632222038E+03  0.56632222038E+03  0.00000000000E+00 0.  1.
         25    2    1    2    0    0  0.62313991147E+02  0.48298211201E+01 -0.29088731754E+03  0.32275321518E+03  0.12509134958E+03 0.  0.
          5    1    3    3  502    0  0.62611923746E+02  0.33572454730E+02 -0.28416191198E+03  0.29293826540E+03  0.41800000000E+01 0. -1.
         -5    1    3    3    0  502 -0.29793259896E+00 -0.28742633609E+02 -0.67254055546E+01  0.29814949782E+02  0.41800000000E+01 0. -1.
        -11    1    1    2    0    0 -0.89899777890E+02 -0.25687857987E+01 -0.17908204227E+03  0.20039697250E+03  0.00000000000E+00 0. -1.
         11    1    1    2    0    0  0.27585786743E+02 -0.22610353213E+01 -0.67017101726E+02  0.72507791544E+02  0.00000000000E+00 0.  1.
</event>
<event>
 7    1  0.2564986E-009  0.1266448E+03  0.7561462E-02  0.1232521E+00
         -1   -1    0    0    0  501 -0.00000000000E+00  0.00000000000E+00  0.39125445887E+03  0.39125445887E+03  0.00000000000E+00 0.  1.
          1   -1    0    0  501    0  0.00000000000E+00 -0.00000000000E+00 -0.47397730908E+02  0.47397730908E+02  0.00000000000E+00 0. -1.
         25    2    1    2    0    0 -0.48646353577E+02  0.61177673726E+02  0.14585666630E+03  0.20743759712E+03  0.12508802546E+03 0.  0.
          5    1    3    3  502    0  0.40334756924E+02  0.22340643528E+01  0.43116577890E+02  0.59231708979E+02  0.41800000000E+01 0.  1.
         -5    1    3    3    0  502 -0.88981110501E+02  0.58943609373E+02  0.10274008841E+03  0.14820588814E+03  0.41800000000E+01 0.  1.
        -11    1    1    2    0    0  0.56192827653E+02 -0.72824752439E+02  0.19685961720E+03  0.21728963926E+03  0.00000000000E+00 0.  1.
         11    1    1    2    0    0 -0.75464740756E+01  0.11647078714E+02  0.11404444595E+01  0.13924953397E+02  0.00000000000E+00 0. -1.
</event>
<event>
 7    1  0.3236474E-009  0.1497178E+03  0.7561462E-02  0.1200820E+00
         -4   -1    0    0    0  501 -0.00000000000E+00  0.00000000000E+00  0.24242774284E+03  0.24242774284E+03  0.00000000000E+00 0.  1.
          4   -1    0    0  501    0  0.00000000000E+00 -0.00000000000E+00 -0.13085278889E+03  0.13085278889E+03  0.00000000000E+00 0. -1.
         25    2    1    2    0    0 -0.79088150929E+02  0.91853758025E+02  0.13508942994E+03  0.22042534911E+03  0.12508449932E+03 0.  0.
          5    1    3    3  502    0 -0.87759776390E+02  0.74290906845E+01  0.56789095495E+02  0.10487823181E+03  0.41800000000E+01 0.  1.
         -5    1    3    3    0  502  0.86716254608E+01  0.84424667340E+02  0.78300334440E+02  0.11554711730E+03  0.41800000000E+01 0.  1.
        -11    1    1    2    0    0  0.18032629602E+02 -0.47551516616E+02  0.31202440286E+02  0.59665021098E+02  0.00000000000E+00 0.  1.
         11    1    1    2    0    0  0.61055521327E+02 -0.44302241409E+02 -0.54716916270E+02  0.93190161521E+02  0.00000000000E+00 0. -1.
</event>
<event>
 7    1  0.2564986E-009  0.8765593E+02  0.7561462E-02  0.1308630E+00
          2   -1    0    0  501    0  0.00000000000E+00  0.00000000000E+00  0.54847880711E+02  0.54847880711E+02  0.00000000000E+00 0. -1.
         -2   -1    0    0    0  501 -0.00000000000E+00 -0.00000000000E+00 -0.28015565688E+03  0.28015565688E+03  0.00000000000E+00 0.  1.
         25    2    1    2    0    0 -0.13823303053E+02 -0.16186142022E+02 -0.59311816107E+02  0.14006641804E+03  0.12509050736E+03 0.  0.
          5    1    3    3  502    0  0.36982078973E+02 -0.33058281663E+02 -0.69423405038E+02  0.85426024833E+02  0.41800000000E+01 0. -1.
         -5    1    3    3    0  502 -0.50805382026E+02  0.16872139641E+02  0.10111588931E+02  0.54640393205E+02  0.41800000000E+01 0. -1.
        -11    1    1    2    0    0 -0.14168874852E+02  0.35234848146E+02 -0.15462432792E+03  0.15921976738E+03  0.00000000000E+00 0.  1.
         11    1    1    2    0    0  0.27992177905E+02 -0.19048706124E+02 -0.11371632140E+02  0.35717352175E+02  0.00000000000E+00 0. -1.
</event>
<event>
 7    1  0.2564986E-009  0.8479906E+02  0.7561462E-02  0.1315959E+00
         -4   -1    0    0    0  501 -0.00000000000E+00  0.00000000000E+00  0.29038255499E+03  0.29038255499E+03  0.00000000000E+00 0.  1.
          4   -1    0    0  501    0  0.00000000000E+00 -0.00000000000E+00 -0.48102289350E+02  0.48102289350E+02  0.00000000000E+00 0. -1.
         25    2    1    2    0    0  0.35739722221E+02 -0.12792267302E+01  0.92943526872E+02  0.15989036020E+03  0.12508982345E+03 0.  0.
          5    1    3    3  502    0 -0.40315414143E+02  0.23239617783E+02  0.52338947535E+02  0.70158750568E+02  0.41800000000E+01 0.  1.
         -5    1    3    3    0  502  0.76055136364E+02 -0.24518844513E+02  0.40604579338E+02  0.89731609630E+02  0.41800000000E+01 0.  1.
        -11    1    1    2    0    0 -0.29721614097E+02  0.10775960909E+02  0.16000327054E+03  0.16309672671E+03  0.00000000000E+00 0.  1.
         11    1    1    2    0    0 -0.60181081240E+01 -0.94967341789E+01 -0.10666531774E+02  0.15497757436E+02  0.00000000000E+00 0. -1.
</event>
<event>
 7    1  0.2564986E-009  0.1348918E+03  0.7561462E-02  0.1220373E+00
         -2   -1    0    0    0  501 -0.00000000000E+00  0.00000000000E+00  0.23445923620E+03  0.23445923620E+03  0.00000000000E+00 0.  1.
          2   -1    0    0  501    0  0.00000000000E+00 -0.00000000000E+00 -0.84517084621E+02  0.84517084621E+02  0.00000000000E+00 0. -1.
         25    2    1    2    0    0  0.28170183560E+02 -0.81405989779E+02  0.97831650926E+02  0.18066270695E+03  0.12508991704E+03 0.  0.
          5    1    3    3  502    0 -0.24178240857E+02 -0.86406248506E+02  0.29930974888E+02  0.94678206413E+02  0.41800000000E+01 0.  1.
         -5    1    3    3    0  502  0.52348424417E+02  0.50002587270E+01  0.67900676038E+02  0.85984500538E+02  0.41800000000E+01 0.  1.
        -11    1    1    2    0    0 -0.62359919723E+02  0.42774163743E+02  0.39003850685E+02  0.85086362245E+02  0.00000000000E+00 0.  1.
         11    1    1    2    0    0  0.34189736163E+02  0.38631826036E+02  0.13106649964E+02  0.53227251620E+02  0.00000000000E+00 0. -1.
</event>
<event>
 7    1  0.2564986E-009  0.1034503E+03  0.7561462E-02  0.1273203E+00
         -1   -1    0    0    0  501 -0.00000000000E+00  0.00000000000E+00  0.56351770961E+02  0.56351770961E+02  0.00000000000E+00 0.  1.
          1   -1    0    0  501    0  0.00000000000E+00 -0.00000000000E+00 -0.23335410043E+03  0.23335410043E+03  0.00000000000E+00 0. -1.
         25    2    1    2    0    0  0.15303606858E+02  0.23045292086E+02 -0.67670518786E+02  0.14488696816E+03  0.12509056143E+03 0.  0.
          5    1    3    3  502    0  0.20378201698E+02  0.70679177272E+02 -0.62330596219E+02  0.96505921214E+02  0.41800000000E+01 0.  1.
         -5    1    3    3    0  502 -0.50745948394E+01 -0.47633885186E+02 -0.53399225668E+01  0.48381046947E+02  0.41800000000E+01 0.  1.
        -11    1    1    2    0    0 -0.45599369556E+02 -0.29302989427E+02 -0.35568283561E+02  0.64831091990E+02  0.00000000000E+00 0.  1.
         11    1    1    2    0    0  0.30295762697E+02  0.62576973401E+01 -0.73763527123E+02  0.79987811240E+02  0.00000000000E+00 0. -1.
</event>
<event>
 7    1  0.2564986E-009  0.7856280E+02  0.7561462E-02  0.1333180E+00
         -1   -1    0    0    0  501 -0.00000000000E+00  0.00000000000E+00  0.13134465805E+03  0.13134465805E+03  0.00000000000E+00 0.  1.
          1   -1    0    0  501    0  0.00000000000E+00 -0.00000000000E+00 -0.30615385137E+03  0.30615385137E+03  0.00000000000E+00 0. -1.
         25    2    1    2    0    0 -0.20532862727E+02 -0.67059171549E+02 -0.25801621721E+03  0.29519226813E+03  0.12509027094E+03 0.  0.
          5    1    3    3  502    0 -0.19052777002E+02 -0.42927377499E+02 -0.26541065051E+03  0.26956641826E+03  0.41800000000E+01 0. -1.
         -5    1    3    3    0  502 -0.14800857247E+01 -0.24131794049E+02  0.73944333017E+01  0.25625849872E+02  0.41800000000E+01 0. -1.
        -11    1    1    2    0    0  0.13921162700E+02 -0.36733620736E+01 -0.15199713028E+02  0.20936180071E+02  0.00000000000E+00 0. -1.
         11    1    1    2    0    0  0.66117000269E+01  0.70732533622E+02  0.98406736914E+02  0.12137006122E+03  0.00000000000E+00 0.  1.
</event>
<event>
 7    1  0.2564986E-009  0.1286725E+03  0.7561462E-02  0.1229439E+00
         -2   -1    0    0    0  501 -0.00000000000E+00  0.00000000000E+00  0.17302997429E+03  0.17302997429E+03  0.00000000000E+00 0.  1.
          2   -1    0    0  501    0  0.00000000000E+00 -0.00000000000E+00 -0.11238896087E+03  0.11238896087E+03  0.00000000000E+00 0. -1.
         25    2    1    2    0    0  0.56812630468E+02 -0.64019063730E+02  0.27637716702E+02  0.15407089598E+03  0.12509149492E+03 0.  0.
          5    1    3    3  502    0 -0.40057144540E+02 -0.17829168229E+02  0.51800699942E+01  0.44348163362E+02  0.41800000000E+01 0. -1.
         -5    1    3    3    0  502  0.96869775008E+02 -0.46189895502E+02  0.22457646707E+02  0.10972273261E+03  0.41800000000E+01 0. -1.
        -11    1    1    2    0    0 -0.20697585891E+01  0.49123773413E+02 -0.20589343394E+02  0.53304315739E+02  0.00000000000E+00 0. -1.
         11    1    1    2    0    0 -0.54742871879E+02  0.14895290317E+02  0.53592640111E+02  0.78043723445E+02  0.00000000000E+00 0.  1.
</event>
<event>
 7    1  0.2564986E-009  0.1738612E+03  0.7561462E-02  0.1173880E+00
         -1   -1    0    0    0  501 -0.00000000000E+00  0.00000000000E+00  0.10744739912E+03  0.10744739912E+03  0.00000000000E+00 0.  1.
          1   -1    0    0  501    0  0.00000000000E+00 -0.00000000000E+00 -0.32919973184E+03  0.32919973184E+03  0.00000000000E+00 0. -1.
         25    2    1    2    0    0 -0.11756960973E+03 -0.93103347186E+02 -0.15236864752E+03  0.24770264732E+03  0.12509816287E+03 0.  0.
          5    1    3    3  502    0 -0.29324837156E+02 -0.77145205288E+02 -0.13186308293E+03  0.15561707430E+03  0.41800000000E+01 0.  1.
         -5    1    3    3    0  502 -0.88244772576E+02 -0.15958141899E+02 -0.20505564583E+02  0.92085573022E+02  0.41800000000E+01 0.  1.
        -11    1    1    2    0    0  0.10181982132E+03  0.24232520895E+02 -0.47880546070E+02  0.11509577652E+03  0.00000000000E+00 0.  1.
         11    1    1    2    0    0  0.15749788417E+02  0.68870826291E+02 -0.21503139138E+02  0.73848707111E+02  0.00000000000E+00 0. -1.
</event>
<event>
 7    1  0.2564986E-009  0.1206918E+03  0.7561462E-02  0.1241960E+00
          4   -1    0    0  501    0  0.00000000000E+00  0.00000000000E+00  0.87381983112E+02  0.87381983112E+02  0.00000000000E+00 0. -1.
         -4   -1    0    0    0  501 -0.00000000000E+00 -0.00000000000E+00 -0.25052380545E+03  0.25052380545E+03  0.00000000000E+00 0.  1.
         25    2    1    2    0    0 -0.53682192192E+00 -0.93986512406E+02 -0.48895240029E+02  0.16392332503E+03  0.12508540802E+03 0.  0.
          5    1    3    3  502    0 -0.23206958209E+02 -0.86492910071E+02  0.19165137800E+02  0.91675303702E+02  0.41800000000E+01 0.  1.
         -5    1    3    3    0  502  0.22670136287E+02 -0.74936023350E+01 -0.68060377829E+02  0.72248021325E+02  0.41800000000E+01 0.  1.
        -11    1    1    2    0    0  0.42916703448E+02  0.38347067705E+02 -0.31403845018E+02  0.65563271107E+02  0.00000000000E+00 0. -1.
         11    1    1    2    0    0 -0.42379881526E+02  0.55639444702E+02 -0.82842737291E+02  0.10841919243E+03  0.00000000000E+00 0.  1.
</event>
<event>
 7    1  0.2564986E-009  0.1440759E+03  0.7561462E-02  0.1207947E+00
         -1   -1    0    0    0  501 -0.00000000000E+00  0.00000000000E+00  0.19618465114E+02  0.19618465114E+02  0.00000000000E+00 0.  1.
          1   -1    0    0  501    0  0.00000000000E+00 -0.00000000000E+00 -0.14558846953E+04  0.14558846953E+04  0.00000000000E+00 0. -1.
         25    2    1    2    0    0  0.12434088444E+02 -0.10499226750E+03 -0.10936139736E+04  0.11058108306E+04  0.12509231447E+03 0.  0.
          5    1    3    3  502    0  0.11681654211E+02 -0.13385354415E+03 -0.91805282505E+03  0.92784249434E+03  0.41800000000E+01 0. -1.
         -5    1    3    3    0  502  0.75243423210E+00  0.28861276654E+02 -0.17556114852E+03  0.17796833627E+03  0.41800000000E+01 0. -1.
        -11    1    1    2    0    0 -0.37652506400E+02  0.82802968737E+02 -0.30913508982E+03  0.32223988987E+03  0.00000000000E+00 0. -1.
         11    1    1    2    0    0  0.25218417956E+02  0.22189298761E+02 -0.33517166786E+02  0.47452439906E+02  0.00000000000E+00 0.  1.
</event>
<event>
 7    1  0.2564986E-009  0.2000626E+03  0.7561462E-02  0.1149686E+00
          3   -1    0    0  501    0  0.00000000000E+00  0.00000000000E+00  0.49758738764E+03  0.49758738764E+03  0.00000000000E+00 0.  1.
         -3   -1    0    0    0  501 -0.00000000000E+00 -0.00000000000E+00 -0.91727234763E+02  0.91727234763E+02  0.00000000000E+00 0. -1.
         25    2    1    2    0    0  0.61556375820E+02  0.15855264646E+03  0.11621515797E+03  0.24100161986E+03  0.12509072199E+03 0.  0.
          5    1    3    3  502    0  0.24416775168E+02 -0.17728649209E+02  0.22640041635E+02  0.37954285629E+02  0.41800000000E+01 0. -1.
         -5    1    3    3    0  502  0.37139600652E+02  0.17628129567E+03  0.93575116332E+02  0.20304733423E+03  0.41800000000E+01 0. -1.
        -11    1    1    2    0    0 -0.51644009338E+01 -0.12233178285E+03  0.21920206744E+03  0.25108023120E+03  0.00000000000E+00 0.  1.
         11    1    1    2    0    0 -0.56391974887E+02 -0.36220863616E+02  0.70442927474E+02  0.97232771347E+02  0.00000000000E+00 0. -1.
</event>
<event>
 7    1  0.2564986E-009  0.9981766E+02  0.7561462E-02  0.1280680E+00
         -2   -1    0    0    0  501 -0.00000000000E+00  0.00000000000E+00  0.13488965808E+02  0.13488965808E+02  0.00000000000E+00 0.  1.
          2   -1    0    0  501    0  0.00000000000E+00 -0.00000000000E+00 -0.95747188706E+03  0.95747188706E+03  0.00000000000E+00 0. -1.
         25    2    1    2    0    0 -0.35525659009E+02 -0.75816378051E+00 -0.56786396938E+03  0.58256312338E+03  0.12509059813E+03 0.  0.
          5    1    3    3  502    0  0.35301965195E+02  0.12501492649E+01 -0.59910621590E+02  0.69674576418E+02  0.41800000000E+01 0. -1.
         -5    1    3    3    0  502 -0.70827624204E+02 -0.20083130455E+01 -0.50795334779E+03  0.51288854696E+03  0.41800000000E+01 0. -1.
        -11    1    1    2    0    0 -0.15463944945E+02  0.30399224430E+02 -0.89608988166E+02  0.95880223192E+02  0.00000000000E+00 0.  1.
         11    1    1    2    0    0  0.50989603955E+02 -0.29641060650E+02 -0.28650996370E+03  0.29251750629E+03  0.00000000000E+00 0. -1.
</event>
<event>
 7    1  0.2564986E-009  0.1058235E+03  0.7561462E-02  0.1268506E+00
         -2   -1    0    0    0  501 -0.00000000000E+00  0.00000000000E+00  0.38047299682E+02  0.38047299682E+02  0.00000000000E+00 0.  1.
          2   -1    0    0  501    0  0.00000000000E+00 -0.00000000000E+00 -0.38751044295E+03  0.38751044295E+03  0.00000000000E+00 0. -1.
         25    2    1    2    0    0  0.19247635946E+02 -0.47925859171E+02 -0.22757015973E+03  0.26477010942E+03  0.12509066223E+03 0.  0.
          5    1    3    3  502    0  0.70189006977E+02 -0.23441435340E+02 -0.16168044306E+03  0.17785959535E+03  0.41800000000E+01 0.  1.
         -5    1    3    3    0  502 -0.50941371031E+02 -0.24484423831E+02 -0.65889716673E+02  0.86910514071E+02  0.41800000000E+01 0.  1.
        -11    1    1    2    0    0  0.64236593668E+01 -0.13132452566E+02  0.67438376987E+01  0.16099815433E+02  0.00000000000E+00 0.  1.
         11    1    1    2    0    0 -0.25671295313E+02  0.61058311737E+02 -0.12863682124E+03  0.14468781778E+03  0.00000000000E+00 0. -1.
</event>
<event>
 7    1  0.2564986E-009  0.6931075E+02  0.7561462E-02  0.1362453E+00
          2   -1    0    0  501    0  0.00000000000E+00  0.00000000000E+00  0.34628903038E+03  0.34628903038E+03  0.00000000000E+00 0. -1.
         -2   -1    0    0    0  501 -0.00000000000E+00 -0.00000000000E+00 -0.35471657182E+02  0.35471657182E+02  0.00000000000E+00 0.  1.
         25    2    1    2    0    0 -0.19479617711E+02  0.43184594706E+00  0.14232183582E+03  0.19048261252E+03  0.12509387964E+03 0.  0.
          5    1    3    3  502    0  0.21864428440E+02  0.28011687106E+02  0.13549947579E+03  0.14014381251E+03  0.41800000000E+01 0. -1.
         -5    1    3    3    0  502 -0.41344046152E+02 -0.27579841159E+02  0.68223600365E+01  0.50338800016E+02  0.41800000000E+01 0. -1.
        -11    1    1    2    0    0  0.29500327853E+00 -0.23195779253E+02  0.33114432825E+01  0.23432815851E+02  0.00000000000E+00 0.  1.
         11    1    1    2    0    0  0.19184614433E+02  0.22763933306E+02  0.16518409409E+03  0.16784525918E+03  0.00000000000E+00 0. -1.
</event>
<event>
 7    1  0.2564986E-009  0.1040493E+03  0.7561462E-02  0.1272004E+00
         -1   -1    0    0    0  501 -0.00000000000E+00  0.00000000000E+00  0.52620584342E+03  0.52620584342E+03  0.00000000000E+00 0.  1.
          1   -1    0    0  501    0  0.00000000000E+00 -0.00000000000E+00 -0.22752078922E+02  0.22752078922E+02  0.00000000000E+00 0. -1.
         25    2    1    2    0    0  0.28748780336E+01 -0.13716539884E+02  0.26846039305E+03  0.29650520116E+03  0.12509173950E+03 0.  0.
          5    1    3    3  502    0  0.53900440722E+02 -0.30714200867E+02  0.19942341910E+03  0.20889181921E+03  0.41800000000E+01 0.  1.
         -5    1    3    3    0  502 -0.51025562688E+02  0.16997660983E+02  0.69036973944E+02  0.87613381957E+02  0.41800000000E+01 0.  1.
        -11    1    1    2    0    0 -0.30689448381E+02 -0.28194979265E+02  0.96827566218E+02  0.10541525828E+03  0.00000000000E+00 0.  1.
         11    1    1    2    0    0  0.27814570347E+02  0.41911519149E+02  0.13816580524E+03  0.14703746291E+03  0.00000000000E+00 0. -1.
</event>
<event>
 7    1  0.2842808E-009  0.7614596E+02  0.7561462E-02  0.1340359E+00
         -1   -1    0    0    0  501 -0.00000000000E+00  0.00000000000E+00  0.43538495595E+02  0.43538495595E+02  0.00000000000E+00 0.  1.
          1   -1    0    0  501    0  0.00000000000E+00 -0.00000000000E+00 -0.35202667768E+03  0.35202667768E+03  0.00000000000E+00 0. -1.
         25    2    1    2    0    0 -0.45947414142E+02  0.37092832184E+02 -0.18886614425E+03  0.23410213465E+03  0.12508535461E+03 0.  0.
          5    1    3    3  502    0  0.13065791282E+01  0.14975393177E+02  0.16182106622E+02  0.22478935129E+02  0.41800000000E+01 0.  1.
         -5    1    3    3    0  502 -0.47253993270E+02  0.22117439007E+02 -0.20504825087E+03  0.21162319952E+03  0.41800000000E+01 0.  1.
        -11    1    1    2    0    0  0.31046483566E+02  0.11816600066E+02 -0.20823009642E+01  0.33284413113E+02  0.00000000000E+00 0.  1.
         11    1    1    2    0    0  0.14900930576E+02 -0.48909432251E+02 -0.11753973687E+03  0.12817862551E+03  0.00000000000E+00 0. -1.
</event>
<event>
 7    1  0.2564986E-009  0.8866542E+02  0.7561462E-02  0.1306116E+00
          2   -1    0    0  501    0  0.00000000000E+00  0.00000000000E+00  0.38617377043E+03  0.38617377043E+03  0.00000000000E+00 0. -1.
         -2   -1    0    0    0  501 -0.00000000000E+00 -0.00000000000E+00 -0.41625351763E+02  0.41625351763E+02  0.00000000000E+00 0.  1.
         25    2    1    2    0    0  0.39435658207E+02 -0.40712588564E+02  0.13674558538E+03  0.19380434026E+03  0.12509229064E+03 0.  0.
          5    1    3    3  502    0  0.37033514459E+02 -0.54296397533E+02  0.15624436893E+03  0.16955634816E+03  0.41800000000E+01 0.  1.
         -5    1    3    3    0  502  0.24021437473E+01  0.13583808969E+02 -0.19498783555E+02  0.24247992098E+02  0.41800000000E+01 0.  1.
        -11    1    1    2    0    0  0.17501834893E+02  0.35876715040E+02  0.39100468703E+02  0.55877540743E+02  0.00000000000E+00 0. -1.
         11    1    1    2    0    0 -0.56937493100E+02  0.48358735242E+01  0.16870236459E+03  0.17811724119E+03  0.00000000000E+00 0.  1.
</event>
<event>
 7    1  0.2564986E-009  0.1433313E+03  0.7561462E-02  0.1208915E+00
         -1   -1    0    0    0  501 -0.00000000000E+00  0.00000000000E+00  0.31571246279E+03  0.31571246279E+03  0.00000000000E+00 0.  1.
          1   -1    0    0  501    0  0.00000000000E+00 -0.00000000000E+00 -0.66931799951E+02  0.66931799951E+02  0.00000000000E+00 0. -1.
         25    2    1    2    0    0 -0.64626403813E+02  0.70762737853E+02  0.11927075483E+03  0.19763094471E+03  0.12509412541E+03 0.  0.
          5    1    3    3  502    0 -0.33903264321E+02 -0.32917637919E+02  0.51128822636E+02  0.69746907615E+02  0.41800000000E+01 0. -1.
         -5    1    3    3    0  502 -0.30723139492E+02  0.10368037577E+03  0.68141932190E+02  0.12788403709E+03  0.41800000000E+01 0. -1.
        -11    1    1    2    0    0 -0.22182467904E+02 -0.68801438563E+01  0.32897717678E+02  0.40269816119E+02  0.00000000000E+00 0. -1.
         11    1    1    2    0    0  0.86808871717E+02 -0.63882593997E+02  0.96612190331E+02  0.14474350191E+03  0.00000000000E+00 0.  1.
</event>
<event>
 7    1  0.2564986E-009  0.7536586E+02  0.7561462E-02  0.1342742E+00
         -1   -1    0    0    0  501 -0.00000000000E+00  0.00000000000E+00  0.12821561299E+03  0.12821561299E+03  0.00000000000E+00 0.  1.
          1   -1    0    0  501    0  0.00000000000E+00 -0.00000000000E+00 -0.11185943996E+03  0.11185943996E+03  0.00000000000E+00 0. -1.
         25    2    1    2    0    0 -0.38417924407E+02  0.18338575462E+02 -0.21496232574E+02  0.13387422854E+03  0.12509188937E+03 0.  0.
          5    1    3    3  502    0 -0.42938901938E+02  0.40347488330E+02 -0.63083238549E+02  0.86421273422E+02  0.41800000000E+01 0.  1.
         -5    1    3    3    0  502  0.45209775308E+01 -0.22008912867E+02  0.41587005975E+02  0.47452955117E+02  0.41800000000E+01 0.  1.
        -11    1    1    2    0    0  0.12336811140E+02  0.19366646533E+02 -0.21328133056E+02  0.31339323009E+02  0.00000000000E+00 0. -1.
         11    1    1    2    0    0  0.26081113267E+02 -0.37705221995E+02  0.59180538657E+02  0.74861501393E+02  0.00000000000E+00 0.  1.
</event>
<event>
 7    1  0.2564986E-009  0.1142976E+03  0.7561462E-02  0.1252812E+00
          1   -1    0    0  501    0  0.00000000000E+00  0.00000000000E+00  0.17395868653E+02  0.17395868653E+02  0.00000000000E+00 0. -1.
         -1   -1    0    0    0  501 -0.00000000000E+00 -0.00000000000E+00 -0.92513749857E+03  0.92513749857E+03  0.00000000000E+00 0.  1.
         25    2    1    2    0    0 -0.55965829309E+02  0.58844513279E+01 -0.61215756850E+03  0.62733707040E+03  0.12509240749E+03 0.  0.
          5    1    3    3  502    0 -0.37791199701E+02 -0.50147919050E+02 -0.17039897686E+03  0.18164876073E+03  0.41800000000E+01 0. -1.
         -5    1    3    3    0  502 -0.18174629608E+02  0.56032370378E+02 -0.44175859163E+03  0.44568830967E+03  0.41800000000E+01 0. -1.
        -11    1    1    2    0    0 -0.84077436404E+01 -0.34971920729E+02 -0.68362076341E+02  0.77246999128E+02  0.00000000000E+00 0.  1.
         11    1    1    2    0    0  0.64373572949E+02  0.29087469401E+02 -0.22722198508E+03  0.23794929769E+03  0.00000000000E+00 0. -1.
</event>
<event>
 7    1  0.2564986E-009  0.2017315E+03  0.7561462E-02  0.1148286E+00
          1   -1    0    0  501    0  0.00000000000E+00  0.00000000000E+00  0.46087558411E+03  0.46087558411E+03  0.00000000000E+00 0. -1.
         -1   -1    0    0    0  501 -0.00000000000E+00 -0.00000000000E+00 -0.10122615036E+03  0.10122615036E+03  0.00000000000E+00 0.  1.
         25    2    1    2    0    0 -0.14007256710E+03 -0.12255894357E+03  0.20512409678E+03  0.30391498781E+03  0.12508959202E+03 0.  0.
          5    1    3    3  502    0 -0.25060207427E+02  0.50048442108E+01 -0.10732845424E+02  0.28030855013E+02  0.41800000000E+01 0.  1.
         -5    1    3    3    0  502 -0.11501235967E+03 -0.12756378778E+03  0.21585694221E+03  0.27588413280E+03  0.41800000000E+01 0.  1.
        -11    1    1    2    0    0  0.91437642285E+02  0.21983300823E+02  0.83810608694E+02  0.12596954422E+03  0.00000000000E+00 0. -1.
         11    1    1    2    0    0  0.48634924816E+02  0.10057564274E+03  0.70714728282E+02  0.13221720244E+03  0.00000000000E+00 0.  1.
</event>
<event>
 7    1  0.3593637E-009  0.1165429E+03  0.7561462E-02  0.1248912E+00
          1   -1    0    0  501    0  0.00000000000E+00  0.00000000000E+00  0.13368741469E+03  0.13368741469E+03  0.00000000000E+00 0. -1.
         -1   -1    0    0    0  501 -0.00000000000E+00 -0.00000000000E+00 -0.12884975815E+03  0.12884975815E+03  0.00000000000E+00 0.  1.
         25    2    1    2    0    0  0.30595977269E+02 -0.65663452491E+02 -0.74800839263E+01  0.14474319155E+03  0.12508731761E+03 0.  0.
          5    1    3    3  502    0  0.58621816273E+02 -0.89612422469E+02 -0.15849144534E+01  0.10717690030E+03  0.41800000000E+01 0. -1.
         -5    1    3    3    0  502 -0.28025839005E+02  0.23948969979E+02 -0.58951694729E+01  0.37566291247E+02  0.41800000000E+01 0. -1.
        -11    1    1    2    0    0  0.88513161287E+01  0.41776550324E+02 -0.32364114575E+02  0.53582290604E+02  0.00000000000E+00 0. -1.
         11    1    1    2    0    0 -0.39447293398E+02  0.23886902167E+02  0.44681855035E+02  0.64211690687E+02  0.00000000000E+00 0.  1.
</event>
<event>
 7    1  0.2564986E-009  0.1123530E+03  0.7561462E-02  0.1256274E+00
         -2   -1    0    0    0  501 -0.00000000000E+00  0.00000000000E+00  0.26246225757E+02  0.26246225757E+02  0.00000000000E+00 0.  1.
          2   -1    0    0  501    0  0.00000000000E+00 -0.00000000000E+00 -0.55070791715E+03  0.55070791715E+03  0.00000000000E+00 0. -1.
         25    2    1    2    0    0  0.90842969630E+01 -0.49278598083E+02 -0.30681224305E+03  0.33509989847E+03  0.12508910740E+03 0.  0.
          5    1    3    3  502    0  0.64149758017E+01  0.40254114470E+02 -0.61386141095E+02  0.73805666211E+02  0.41800000000E+01 0.  1.
         -5    1    3    3    0  502  0.26693211613E+01 -0.89532712553E+02 -0.24542610196E+03  0.26129423226E+03  0.41800000000E+01 0.  1.
        -11    1    1    2    0    0  0.15365086475E+02  0.63799568846E+02 -0.19422643650E+03  0.20501312032E+03  0.00000000000E+00 0. -1.
         11    1    1    2    0    0 -0.24449383438E+02 -0.14520970764E+02 -0.23423011848E+02  0.36841124120E+02  0.00000000000E+00 0.  1.
</event>
<event>
 7    1  0.2564986E-009  0.9023945E+02  0.7561462E-02  0.1302273E+00
          2   -1    0    0  501    0  0.00000000000E+00  0.00000000000E+00  0.71454340984E+03  0.71454340984E+03  0.00000000000E+00 0. -1.
         -2   -1    0    0    0  501 -0.00000000000E+00 -0.00000000000E+00 -0.21213657722E+02  0.21213657722E+02  0.00000000000E+00 0.  1.
         25    2    1    2    0    0  0.22443638337E+01 -0.97439179238E+01  0.56453803867E+03  0.57831719594E+03  0.12509037098E+03 0.  0.
          5    1    3    3  502    0  0.44147178036E+02 -0.16677296467E+02  0.88618076333E+02  0.10048751862E+03  0.41800000000E+01 0.  1.
         -5    1    3    3    0  502 -0.41902814203E+02  0.69333785432E+01  0.47591996234E+03  0.47782967732E+03  0.41800000000E+01 0.  1.
        -11    1    1    2    0    0  0.37151182145E+02 -0.18932299055E+02  0.63603038322E+02  0.76052539512E+02  0.00000000000E+00 0. -1.
         11    1    1    2    0    0 -0.39395545979E+02  0.28676216979E+02  0.65188675125E+02  0.81387332109E+02  0.00000000000E+00 0.  1.
</event>
<event>
 7    1  0.2564986E-009  0.6240848E+02  0.7561462E-02  0.1387994E+00
         -2   -1    0    0    0  501 -0.00000000000E+00  0.00000000000E+00  0.10140666033E+03  0.10140666033E+03  0.00000000000E+00 0.  1.
          2   -1    0    0  501    0  0.00000000000E+00 -0.00000000000E+00 -0.19021196746E+03  0.19021196746E+03  0.00000000000E+00 0. -1.
         25    2    1    2    0    0 -0.21875412811E+02 -0.11255967148E+02 -0.13576327724E+03  0.18623591600E+03  0.12508764319E+03 0.  0.
          5    1    3    3  502    0 -0.17461362238E+02 -0.27407816361E+02 -0.15613549632E+03  0.15953636946E+03  0.41800000000E+01 0.  1.
         -5    1    3    3    0  502 -0.44140505729E+01  0.16151849213E+02  0.20372219078E+02  0.26699546543E+02  0.41800000000E+01 0.  1.
        -11    1    1    2    0    0 -0.24764215607E+02  0.13299254861E+02 -0.11672297422E+02  0.30436476169E+02  0.00000000000E+00 0. -1.
         11    1    1    2    0    0  0.46639628418E+02 -0.20432877130E+01  0.58630267535E+02  0.74946235628E+02  0.00000000000E+00 0.  1.
</event>
<event>
 7    1  0.2564986E-009  0.2952085E+03  0.7561462E-02  0.1087661E+00
          1   -1    0    0  501    0  0.00000000000E+00  0.00000000000E+00  0.32424367274E+03  0.32424367274E+03  0.00000000000E+00 0. -1.
         -1   -1    0    0    0  501 -0.00000000000E+00 -0.00000000000E+00 -0.27580204871E+03  0.27580204871E+03  0.00000000000E+00 0.  1.
         25    2    1    2    0    0 -0.22847274630E+03  0.16039815847E+03  0.40247119832E+02  0.30853728446E+03  0.12509220683E+03 0.  0.
          5    1    3    3  502    0 -0.50854843874E+01 -0.15127991293E+02  0.16636346745E+02  0.23429867798E+02  0.41800000000E+01 0. -1.
         -5    1    3    3    0  502 -0.22338726191E+03  0.17552614976E+03  0.23610773087E+02  0.28510741667E+03  0.41800000000E+01 0. -1.
        -11    1    1    2    0    0  0.11036653952E+03 -0.12444168280E+03  0.19795455412E+02  0.16750631486E+03  0.00000000000E+00 0.  1.
         11    1    1    2    0    0  0.11810620678E+03 -0.35956475664E+02 -0.11600951215E+02  0.12400212212E+03  0.00000000000E+00 0. -1.
</event>
<event>
 7    1  0.2564986E-009  0.1054902E+03  0.7561462E-02  0.1269157E+00
         -1   -1    0    0    0  501 -0.00000000000E+00  0.00000000000E+00  0.53952823778E+03  0.53952823778E+03  0.00000000000E+00 0.  1.
          1   -1    0    0  501    0  0.00000000000E+00 -0.00000000000E+00 -0.22342744438E+02  0.22342744438E+02  0.00000000000E+00 0. -1.
         25    2    1    2    0    0 -0.16874250179E+01 -0.51193646239E+01  0.27441433144E+03  0.30162852774E+03  0.12508992025E+03 0.  0.
          5    1    3    3  502    0 -0.49444810911E+02  0.33714581192E+02  0.17089579416E+03  0.18111959357E+03  0.41800000000E+01 0. -1.
         -5    1    3    3    0  502  0.47757385893E+02 -0.38833945815E+02  0.10351853728E+03  0.12050893417E+03  0.41800000000E+01 0. -1.
        -11    1    1    2    0    0 -0.42261333803E+02 -0.88507999409E+01  0.15736609813E+03  0.16318224730E+03  0.00000000000E+00 0.  1.
         11    1    1    2    0    0  0.43948758821E+02  0.13970164565E+02  0.85405063776E+02  0.97060207183E+02  0.00000000000E+00 0. -1.
</event>
<event>
 7    1  0.2564986E-009  0.9408943E+02  0.7561462E-02  0.1293240E+00
         -3   -1    0    0    0  501 -0.00000000000E+00  0.00000000000E+00  0.11776456658E+03  0.11776456658E+03  0.00000000000E+00 0.  1.
          3   -1    0    0  501    0  0.00000000000E+00 -0.00000000000E+00 -0.23721483881E+03  0.23721483881E+03  0.00000000000E+00 0. -1.
         25    2    1    2    0    0 -0.13636437191E+01 -0.23074336299E+01  0.70563679228E+02  0.14365237930E+03  0.12509831924E+03 0.  0.
          5    1    3    3  502    0 -0.47964748161E+02 -0.25413306367E+02 -0.17579804045E+01  0.54470323129E+02  0.41800000000E+01 0.  1.
         -5    1    3    3    0  502  0.46601104441E+02  0.23105872738E+02  0.72321659633E+02  0.89182056167E+02  0.41800000000E+01 0.  1.
        -11    1    1    2    0    0 -0.39932496384E+02 -0.23197062149E+01 -0.14342606033E+03  0.14889936228E+03  0.00000000000E+00 0. -1.
         11    1    1    2    0    0  0.41296140103E+02  0.46271398448E+01 -0.46587891121E+02  0.62427663817E+02  0.00000000000E+00 0.  1.
</event>
<event>
 7    1  0.2564986E-009  0.1354582E+03  0.7561462E-02  0.1219574E+00
         -2   -1    0    0    0  501 -0.00000000000E+00  0.00000000000E+00  0.25563242076E+02  0.25563242076E+02  0.00000000000E+00 0.  1.
          2   -1    0    0  501    0  0.00000000000E+00 -0.00000000000E+00 -0.82261309397E+03  0.82261309397E+03  0.00000000000E+00 0. -1.
         25    2    1    2    0    0  0.12050424129E+01  0.89582398710E+02 -0.49424981300E+03  0.51764520930E+03  0.12508887552E+03 0.  0.
          5    1    3    3  502    0  0.27274227864E+02 -0.23795787006E+02 -0.94168674744E+02  0.10097195000E+03  0.41800000000E+01 0.  1.
         -5    1    3    3    0  502 -0.26069185451E+02  0.11337818572E+03 -0.40008113826E+03  0.41667325930E+03  0.41800000000E+01 0.  1.
        -11    1    1    2    0    0 -0.35153060490E+02 -0.71337198758E+02 -0.12173822778E+03  0.14541296260E+03  0.00000000000E+00 0.  1.
         11    1    1    2    0    0  0.33948018077E+02 -0.18245199952E+02 -0.18106181112E+03  0.18511816415E+03  0.00000000000E+00 0. -1.
</event>
<event>
 7    1  0.2564986E-009  0.2388772E+03  0.7561462E-02  0.1120543E+00
         -2   -1    0    0    0  501 -0.00000000000E+00  0.00000000000E+00  0.12507184265E+04  0.12507184265E+04  0.00000000000E+00 0.  1.
          2   -1    0    0  501    0  0.00000000000E+00 -0.00000000000E+00 -0.61925359440E+02  0.61925359440E+02  0.00000000000E+00 0. -1.
         25    2    1    2    0    0  0.21167167748E+03 -0.83648336065E+02  0.33322601524E+03  0.42247921711E+03  0.12508864250E+03 0.  0.
          5    1    3    3  502    0  0.16082432681E+03 -0.17202119216E+02  0.14836598246E+03  0.21952292398E+03  0.41800000000E+01 0.  1.
         -5    1    3    3    0  502  0.50847350670E+02 -0.66446216849E+02  0.18486003278E+03  0.20295629313E+03  0.41800000000E+01 0.  1.
        -11    1    1    2    0    0 -0.90009840868E+02  0.11506602658E+02  0.20166718035E+03  0.22114209231E+03  0.00000000000E+00 0. -1.
         11    1    1    2    0    0 -0.12166183661E+03  0.72141733407E+02  0.65389987143E+03  0.66902247648E+03  0.00000000000E+00 0.  1.
</event>
<event>
 7    1  0.2564986E-009  0.2715586E+03  0.7561462E-02  0.1100391E+00
          4   -1    0    0  501    0  0.00000000000E+00  0.00000000000E+00  0.14284740111E+04  0.14284740111E+04  0.00000000000E+00 0. -1.
         -4   -1    0    0    0  501 -0.00000000000E+00 -0.00000000000E+00 -0.58849866846E+02  0.58849866846E+02  0.00000000000E+00 0.  1.
         25    2    1    2    0    0  0.17162383924E+03 -0.19910544131E+03  0.56714694509E+03  0.63749582497E+03  0.12509016979E+03 0.  0.
          5    1    3    3  502    0  0.45166711098E+02 -0.33901391595E+02  0.26266340646E+03  0.26869848090E+03  0.41800000000E+01 0. -1.
         -5    1    3    3    0  502  0.12645712815E+03 -0.16520404972E+03  0.30448353862E+03  0.36879734407E+03  0.41800000000E+01 0. -1.
        -11    1    1    2    0    0 -0.94043518617E+02  0.17234327257E+03  0.60189921120E+03  0.63311061233E+03  0.00000000000E+00 0. -1.
         11    1    1    2    0    0 -0.77580320628E+02  0.26762168739E+02  0.20057798795E+03  0.21671744063E+03  0.00000000000E+00 0.  1.
</event>
<event>
 7    1  0.2564986E-009  0.4836622E+03  0.7561462E-02  0.1018134E+00
         -1   -1    0    0    0  501 -0.00000000000E+00  0.00000000000E+00  0.32858655298E+03  0.32858655298E+03  0.00000000000E+00 0.  1.
          1   -1    0    0  501    0  0.00000000000E+00 -0.00000000000E+00 -0.72768077598E+03  0.72768077598E+03  0.00000000000E+00 0. -1.
         25    2    1    2    0    0 -0.18852853826E+03 -0.43715670406E+03 -0.19241565388E+03  0.52850742567E+03  0.12508925409E+03 0.  0.
          5    1    3    3  502    0 -0.10788524050E+03 -0.15336676263E+03 -0.12634864340E+03  0.22614606140E+03  0.41800000000E+01 0.  1.
         -5    1    3    3    0  502 -0.80643297761E+02 -0.28378994144E+03 -0.66067010480E+02  0.30236136428E+03  0.41800000000E+01 0.  1.
        -11    1    1    2    0    0  0.13751125073E+02  0.13460023874E+03 -0.43477353754E+02  0.14211473533E+03  0.00000000000E+00 0.  1.
         11    1    1    2    0    0  0.17477741319E+03  0.30255646533E+03 -0.16320121536E+03  0.38564516796E+03  0.00000000000E+00 0. -1.
</event>
<event>
 7    1  0.2564986E-009  0.8509877E+02  0.7561462E-02  0.1315174E+00
          2   -1    0    0  501    0  0.00000000000E+00  0.00000000000E+00  0.39161253156E+03  0.39161253156E+03  0.00000000000E+00 0. -1.
         -2   -1    0    0    0  501 -0.00000000000E+00 -0.00000000000E+00 -0.44498907808E+02  0.44498907808E+02  0.00000000000E+00 0.  1.
         25    2    1    2    0    0  0.45883848665E+02 -0.31008690277E+01  0.29154310374E+03  0.32056091375E+03  0.12508786963E+03 0.  0.
          5    1    3    3  502    0  0.61713488107E+02  0.20430865056E+02  0.64349409955E+02  0.91565789588E+02  0.41800000000E+01 0. -1.
         -5    1    3    3    0  502 -0.15829639442E+02 -0.23531734083E+02  0.22719369378E+03  0.22899512416E+03  0.41800000000E+01 0. -1.
        -11    1    1    2    0    0  0.10777385711E+02  0.15021000696E+02 -0.15326181615E+02  0.24014044798E+02  0.00000000000E+00 0.  1.
         11    1    1    2    0    0 -0.56661234376E+02 -0.11920131668E+02  0.70896701632E+02  0.91536480828E+02  0.00000000000E+00 0. -1.
</event>
<event>
 7    1  0.2564986E-009  0.9753257E+02  0.7561462E-02  0.1285572E+00
         -2   -1    0    0    0  501 -0.00000000000E+00  0.00000000000E+00  0.17393372992E+02  0.17393372992E+02  0.00000000000E+00 0.  1.
          2   -1    0    0  501    0  0.00000000000E+00 -0.00000000000E+00 -0.12325698286E+04  0.12325698286E+04  0.00000000000E+00 0. -1.
         25    2    1    2    0    0 -0.30495223849E+02 -0.74439385431E+02 -0.89176758519E+03  0.90408435120E+03  0.12509159570E+03 0.  0.
          5    1    3    3  502    0  0.57529627708E+00 -0.77681660255E+02 -0.25656770438E+03  0.26810302243E+03  0.41800000000E+01 0. -1.
         -5    1    3    3    0  502 -0.31070520126E+02  0.32422748238E+01 -0.63519988080E+03  0.63598132877E+03  0.41800000000E+01 0. -1.
        -11    1    1    2    0    0  0.44469668740E+01  0.49466307534E+02 -0.29709579546E+03  0.30121852993E+03  0.00000000000E+00 0. -1.
         11    1    1    2    0    0  0.26048256975E+02  0.24973077897E+02 -0.26313075008E+02  0.44660320503E+02  0.00000000000E+00 0.  1.
</event>
<event>
 7    1  0.2564986E-009  0.1405016E+03  0.7561462E-02  0.1212656E+00
         -1   -1    0    0    0  501 -0.00000000000E+00  0.00000000000E+00  0.21399513442E+02  0.21399513442E+02  0.00000000000E+00 0.  1.
          1   -1    0    0  501    0  0.00000000000E+00 -0.00000000000E+00 -0.96038552408E+03  0.96038552408E+03  0.00000000000E+00 0. -1.
         25    2    1    2    0    0 -0.32512183245E+01 -0.93123737685E+02 -0.48872627164E+03  0.51301460856E+03  0.12509204236E+03 0.  0.
          5    1    3    3  502    0  0.44832322788E+02  0.42052970680E+01 -0.10785051853E+03  0.11694797321E+03  0.41800000000E+01 0. -1.
         -5    1    3    3    0  502 -0.48083541113E+02 -0.97329034753E+02 -0.38087575311E+03  0.39606663535E+03  0.41800000000E+01 0. -1.
        -11    1    1    2    0    0 -0.12784794712E+02  0.10588097661E+03 -0.33083380490E+03  0.34759925007E+03  0.00000000000E+00 0.  1.
         11    1    1    2    0    0  0.16036013037E+02 -0.12757238928E+02 -0.11942593410E+03  0.12117117890E+03  0.00000000000E+00 0. -1.
</event>
<event>
 7    1  0.2564986E-009  0.1492498E+03  0.7561462E-02  0.1201398E+00
         -1   -1    0    0    0  501 -0.00000000000E+00  0.00000000000E+00  0.95650104476E+02  0.95650104476E+02  0.00000000000E+00 0.  1.
          1   -1    0    0  501    0  0.00000000000E+00 -0.00000000000E+00 -0.29004689727E+03  0.29004689727E+03  0.00000000000E+00 0. -1.
         25    2    1    2    0    0 -0.88191803954E+02 -0.79511203282E+02 -0.15368666420E+03  0.23100855492E+03  0.12508211687E+03 0.  0.
          5    1    3    3  502    0  0.39435700041E+01 -0.56328924458E+02 -0.11530351375E+03  0.12845572061E+03  0.41800000000E+01 0.  1.
         -5    1    3    3    0  502 -0.92135373958E+02 -0.23182278824E+02 -0.38383150450E+02  0.10255283431E+03  0.41800000000E+01 0.  1.
        -11    1    1    2    0    0  0.99895548133E+02  0.43575727500E+02 -0.42187182993E+02  0.11686626105E+03  0.00000000000E+00 0. -1.
         11    1    1    2    0    0 -0.11703744178E+02  0.35935475782E+02  0.14770543917E+01  0.37822185780E+02  0.00000000000E+00 0.  1.
</event>
<event>
 7    1  0.2564986E-009  0.7817185E+02  0.7561462E-02  0.1334321E+00
          2   -1    0    0  501    0  0.00000000000E+00  0.00000000000E+00  0.18433506544E+02  0.18433506544E+02  0.00000000000E+00 0.  1.
         -2   -1    0    0    0  501 -0.00000000000E+00 -0.00000000000E+00 -0.65867642744E+03  0.65867642744E+03  0.00000000000E+00 0. -1.
         25    2    1    2    0    0  0.92021072060E+01  0.19314205285E+02 -0.37426205972E+03  0.39519248289E+03  0.12508913575E+03 0.  0.
          5    1    3    3  502    0 -0.19107968065E+02  0.32344678316E+02 -0.35762754406E+03  0.35961955638E+03  0.41800000000E+01 0.  1.
         -5    1    3    3    0  502  0.28310075271E+02 -0.13030473031E+02 -0.16634515656E+02  0.35572926508E+02  0.41800000000E+01 0.  1.
        -11    1    1    2    0    0 -0.44275475385E+02  0.48036416233E+01 -0.18663897442E+03  0.19187886665E+03  0.00000000000E+00 0. -1.
         11    1    1    2    0    0  0.35073368179E+02 -0.24117846909E+02 -0.79341886755E+02  0.90038584445E+02  0.00000000000E+00 0.  1.
</event>
<event>
 7    1  0.2564986E-009  0.1054506E+03  0.7561462E-02  0.1269234E+00
         -1   -1    0    0    0  501 -0.00000000000E+00  0.00000000000E+00  0.17767455072E+03  0.17767455072E+03  0.00000000000E+00 0.  1.
          1   -1    0    0  501    0  0.00000000000E+00 -0.00000000000E+00 -0.76483166191E+02  0.76483166191E+02  0.00000000000E+00 0. -1.
         25    2    1    2    0    0 -0.12657250024E+02 -0.11476069367E+02  0.15607193718E+02  0.12721552196E+03  0.12509315883E+03 0.  0.
          5    1    3    3  502    0 -0.22148423597E+01  0.52686511317E+02  0.29559415528E+02  0.60597074581E+02  0.41800000000E+01 0.  1.
         -5    1    3    3    0  502 -0.10442407665E+02 -0.64162580685E+02 -0.13952221810E+02  0.66618447380E+02  0.41800000000E+01 0.  1.
        -11    1    1    2    0    0 -0.36274687865E+02 -0.12504422633E+02  0.26900521665E+02  0.46859914969E+02  0.00000000000E+00 0. -1.
         11    1    1    2    0    0  0.48931937889E+02  0.23980492001E+02  0.58683669141E+02  0.80082279975E+02  0.00000000000E+00 0.  1.
</event>
<event>
 7    1  0.2564986E-009  0.9051163E+02  0.7561462E-02  0.1301617E+00
          2   -1    0    0  501    0  0.00000000000E+00  0.00000000000E+00  0.38780180095E+02  0.38780180095E+02  0.00000000000E+00 0. -1.
         -2   -1    0    0    0  501 -0.00000000000E+00 -0.00000000000E+00 -0.41615675878E+03  0.41615675878E+03  0.00000000000E+00 0.  1.
         25    2    1    2    0    0  0.10263544434E+02 -0.60272409363E+02 -0.22787685412E+03  0.26704672235E+03  0.12509191660E+03 0.  0.
          5    1    3    3  502    0  0.10814079991E+02 -0.83057229738E+02 -0.75260242595E+02  0.11268107318E+03  0.41800000000E+01 0. -1.
         -5    1    3    3    0  502 -0.55053555684E+00  0.22784820375E+02 -0.15261661153E+03  0.15436564917E+03  0.41800000000E+01 0. -1.
        -11    1    1    2    0    0 -0.26524947126E+02  0.34551219972E+02 -0.15126190480E+03  0.15740877824E+03  0.00000000000E+00 0.  1.
         11    1    1    2    0    0  0.16261402693E+02  0.25721189391E+02  0.17621802353E+01  0.30481438293E+02  0.00000000000E+00 0. -1.
</event>
<event>
 7    1  0.2564986E-009  0.1285817E+03  0.7561462E-02  0.1229576E+00
         -1   -1    0    0    0  501 -0.00000000000E+00  0.00000000000E+00  0.39237543844E+02  0.39237543844E+02  0.00000000000E+00 0.  1.
          1   -1    0    0  501    0  0.00000000000E+00 -0.00000000000E+00 -0.60258463064E+03  0.60258463064E+03  0.00000000000E+00 0. -1.
         25    2    1    2    0    0 -0.98170966734E+02 -0.30319712584E+02 -0.22912454352E+03  0.28053948192E+03  0.12509005073E+03 0.  0.
          5    1    3    3  502    0  0.17503781179E+01 -0.46319386282E+02 -0.25381931561E+02  0.53011925252E+02  0.41800000000E+01 0.  1.
         -5    1    3    3    0  502 -0.99921344852E+02  0.15999673698E+02 -0.20374261196E+03  0.22752755667E+03  0.41800000000E+01 0.  1.
        -11    1    1    2    0    0  0.31936606074E+02 -0.78630146779E+01 -0.21367222393E+02  0.39221575697E+02  0.00000000000E+00 0.  1.
         11    1    1    2    0    0  0.66234360659E+02  0.38182727262E+02 -0.31285532089E+03  0.32206111687E+03  0.00000000000E+00 0. -1.
</event>
<event>
 7    1  0.2564986E-009  0.1893806E+03  0.7561462E-02  0.1159021E+00
          3   -1    0    0  501    0  0.00000000000E+00  0.00000000000E+00  0.13435532664E+03  0.13435532664E+03  0.00000000000E+00 0. -1.
         -3   -1    0    0    0  501 -0.00000000000E+00 -0.00000000000E+00 -0.28491924646E+03  0.28491924646E+03  0.00000000000E+00 0.  1.
         25    2    1    2    0    0 -0.14915519254E+03 -0.59013428584E+02 -0.10870154619E+03  0.23063844868E+03  0.12509281214E+03 0.  0.
          5    1    3    3  502    0 -0.38305935279E+02  0.39406980777E+02 -0.30154453383E+02  0.62825299604E+02  0.41800000000E+01 0.  1.
         -5    1    3    3    0  502 -0.11084925726E+03 -0.98420409361E+02 -0.78547092804E+02  0.16781314907E+03  0.41800000000E+01 0.  1.
        -11    1    1    2    0    0  0.64170135901E+02 -0.11165132236E+02  0.11565989081E+02  0.66153145222E+02  0.00000000000E+00 0. -1.
         11    1    1    2    0    0  0.84985056637E+02  0.70178560820E+02 -0.53428362718E+02  0.12248297920E+03  0.00000000000E+00 0.  1.
</event>
<event>
 7    1  0.2564986E-009  0.1550253E+03  0.7561462E-02  0.1194430E+00
         -2   -1    0    0    0  501 -0.00000000000E+00  0.00000000000E+00  0.22895631206E+03  0.22895631206E+03  0.00000000000E+00 0.  1.
          2   -1    0    0  501    0  0.00000000000E+00 -0.00000000000E+00 -0.12737375498E+03  0.12737375498E+03  0.00000000000E+00 0. -1.
         25    2    1    2    0    0 -0.18760713321E+02 -0.11777338226E+03  0.11316629308E+03  0.20658206813E+03  0.12508799723E+03 0.  0.
          5    1    3    3  502    0 -0.70221063587E+02 -0.67934255921E+02  0.45162617462E+02  0.10771812900E+03  0.41800000000E+01 0.  1.
         -5    1    3    3    0  502  0.51460350266E+02 -0.49839126341E+02  0.68003675619E+02  0.98863939137E+02  0.41800000000E+01 0.  1.
        -11    1    1    2    0    0 -0.27875198866E+02  0.60686609083E+02 -0.30840771550E+02  0.73559801683E+02  0.00000000000E+00 0.  1.
         11    1    1    2    0    0  0.46635912187E+02  0.57086773179E+02  0.19257035556E+02  0.76188197222E+02  0.00000000000E+00 0. -1.
</event>
<event>
 7    1  0.2564986E-009  0.2453123E+03  0.7561462E-02  0.1116304E+00
         -1   -1    0    0    0  501 -0.00000000000E+00  0.00000000000E+00  0.13870418427E+03  0.13870418427E+03  0.00000000000E+00 0.  1.
          1   -1    0    0  501    0  0.00000000000E+00 -0.00000000000E+00 -0.96321282818E+03  0.96321282818E+03  0.00000000000E+00 0. -1.
         25    2    1    2    0    0 -0.29277036902E+01 -0.23243971594E+03 -0.80952138498E+03  0.85147490447E+03  0.12509135545E+03 0.  0.
          5    1    3    3  502    0  0.51174693463E+02 -0.77093649319E+02 -0.20493835125E+03  0.22489882221E+03  0.41800000000E+01 0. -1.
         -5    1    3    3    0  502 -0.54102397154E+02 -0.15534606662E+03 -0.60458303372E+03  0.62657608226E+03  0.41800000000E+01 0. -1.
        -11    1    1    2    0    0 -0.81781666163E+01  0.49561059997E+02 -0.41706247199E+02  0.65288529871E+02  0.00000000000E+00 0. -1.
         11    1    1    2    0    0  0.11105870306E+02  0.18287865594E+03  0.26718988259E+02  0.18515357811E+03  0.00000000000E+00 0.  1.
</event>
<event>
 7    1  0.2564986E-009  0.1045160E+03  0.7561462E-02  0.1271076E+00
          3   -1    0    0  501    0  0.00000000000E+00  0.00000000000E+00  0.43496218652E+02  0.43496218652E+02  0.00000000000E+00 0. -1.
         -3   -1    0    0    0  501 -0.00000000000E+00 -0.00000000000E+00 -0.42478444282E+03  0.42478444282E+03  0.00000000000E+00 0.  1.
         25    2    1    2    0    0  0.52696598051E+02 -0.60564995386E+02 -0.18881854536E+03  0.24029327920E+03  0.12507344580E+03 0.  0.
          5    1    3    3  502    0  0.47959961165E+02 -0.14407087776E+02 -0.18703820407E+03  0.19367107227E+03  0.41800000000E+01 0.  1.
         -5    1    3    3    0  502  0.47366368868E+01 -0.46157907610E+02 -0.17803412929E+01  0.46622206930E+02  0.41800000000E+01 0.  1.
        -11    1    1    2    0    0 -0.50980736842E+02 -0.61890280099E+00 -0.13387166394E+03  0.14325167006E+03  0.00000000000E+00 0.  1.
         11    1    1    2    0    0 -0.17158612088E+01  0.61183898187E+02 -0.58598014860E+02  0.84735712203E+02  0.00000000000E+00 0. -1.
</event>
<event>
 7    1  0.2564986E-009  0.1234713E+03  0.7561462E-02  0.1237478E+00
          4   -1    0    0  501    0  0.00000000000E+00  0.00000000000E+00  0.23522794867E+02  0.23522794867E+02  0.00000000000E+00 0. -1.
         -4   -1    0    0    0  501 -0.00000000000E+00 -0.00000000000E+00 -0.86681140320E+03  0.86681140320E+03  0.00000000000E+00 0.  1.
         25    2    1    2    0    0  0.12485847385E+02 -0.89726204241E+02 -0.52958511361E+03  0.55164735753E+03  0.12509087258E+03 0.  0.
          5    1    3    3  502    0 -0.35295404042E+02 -0.77299224663E+02 -0.18633075906E+03  0.20483544579E+03  0.41800000000E+01 0.  1.
         -5    1    3    3    0  502  0.47781251428E+02 -0.12426979578E+02 -0.34325435455E+03  0.34681191175E+03  0.41800000000E+01 0.  1.
        -11    1    1    2    0    0 -0.33160416597E+02  0.18126098430E+02 -0.19425121710E+03  0.19789316314E+03  0.00000000000E+00 0.  1.
         11    1    1    2    0    0  0.20674569212E+02  0.71600105811E+02 -0.11945227762E+03  0.14079367739E+03  0.00000000000E+00 0. -1.
</event>
<event>
 7    1  0.2564986E-009  0.1060613E+03  0.7561462E-02  0.1268043E+00
         -1   -1    0    0    0  501 -0.00000000000E+00  0.00000000000E+00  0.19085044477E+03  0.19085044477E+03  0.00000000000E+00 0.  1.
          1   -1    0    0  501    0  0.00000000000E+00 -0.00000000000E+00 -0.76584245179E+02  0.76584245179E+02  0.00000000000E+00 0. -1.
         25    2    1    2    0    0  0.48748292042E+02 -0.22369112408E+02  0.63275335150E+02  0.15009343476E+03  0.12508995944E+03 0.  0.
          5    1    3    3  502    0  0.24393989468E+02  0.51689598918E+02  0.34467465293E+02  0.66875705022E+02  0.41800000000E+01 0. -1.
         -5    1    3    3    0  502  0.24354302574E+02 -0.74058711327E+02  0.28807869857E+02  0.83217729739E+02  0.41800000000E+01 0. -1.
        -11    1    1    2    0    0 -0.34230361279E+02  0.40813752502E+02  0.69417238221E+02  0.87499902794E+02  0.00000000000E+00 0.  1.
         11    1    1    2    0    0 -0.14517930763E+02 -0.18444640094E+02 -0.18426373782E+02  0.29841352392E+02  0.00000000000E+00 0. -1.
</event>
<event>
 7    1  0.2564986E-009  0.6683441E+02  0.7561462E-02  0.1371201E+00
         -2   -1    0    0    0  501 -0.00000000000E+00  0.00000000000E+00  0.45127931129E+02  0.45127931129E+02  0.00000000000E+00 0.  1.
          2   -1    0    0  501    0  0.00000000000E+00 -0.00000000000E+00 -0.27860513184E+03  0.27860513184E+03  0.00000000000E+00 0. -1.
         25    2    1    2    0    0  0.16144305352E+02 -0.54487575057E+01 -0.96836901279E+02  0.15910922400E+03  0.12509209471E+03 0.  0.
          5    1    3    3  502    0  0.32589988543E+02  0.16870099738E+02 -0.11821576833E+03  0.12385131368E+03  0.41800000000E+01 0. -1.
         -5    1    3    3    0  502 -0.16445683190E+02 -0.22318857244E+02  0.21378867049E+02  0.35257910326E+02  0.41800000000E+01 0. -1.
        -11    1    1    2    0    0 -0.41922758402E+01 -0.30513838604E+02 -0.99205084388E+01  0.32358708423E+02  0.00000000000E+00 0.  1.
         11    1    1    2    0    0 -0.11952029512E+02  0.35962596110E+02 -0.12671979100E+03  0.13226513055E+03  0.00000000000E+00 0. -1.
</event>
<event>
 7    1  0.2564986E-009  0.1170804E+03  0.7561462E-02  0.1247993E+00
         -2   -1    0    0    0  501 -0.00000000000E+00  0.00000000000E+00  0.27202359592E+02  0.27202359592E+02  0.00000000000E+00 0.  1.
          2   -1    0    0  501    0  0.00000000000E+00 -0.00000000000E+00 -0.11748271660E+04  0.11748271660E+04  0.00000000000E+00 0. -1.
         25    2    1    2    0    0 -0.81602100224E+02 -0.72093396108E+02 -0.91170370038E+03  0.92666514178E+03  0.12509311410E+03 0.  0.
          5    1    3    3  502    0 -0.68608113963E+02 -0.51088989893E+02 -0.24584039908E+03  0.26033081341E+03  0.41800000000E+01 0.  1.
         -5    1    3    3    0  502 -0.12993986262E+02 -0.21004406215E+02 -0.66586330129E+03  0.66633432837E+03  0.41800000000E+01 0.  1.
        -11    1    1    2    0    0  0.21747084648E+02  0.58047475622E+02 -0.50305535605E+02  0.79831648043E+02  0.00000000000E+00 0.  1.
         11    1    1    2    0    0  0.59855015576E+02  0.14045920486E+02 -0.18561557047E+03  0.19553273580E+03  0.00000000000E+00 0. -1.
</event>
<event>
 7    1  0.2564986E-009  0.1019615E+03  0.7561462E-02  0.1276224E+00
          1   -1    0    0  501    0  0.00000000000E+00  0.00000000000E+00  0.12102817440E+04  0.12102817440E+04  0.00000000000E+00 0. -1.
         -1   -1    0    0    0  501 -0.00000000000E+00 -0.00000000000E+00 -0.13712710592E+02  0.13712710592E+02  0.00000000000E+00 0.  1.
         25    2    1    2    0    0  0.28512495550E+02  0.49967195749E+01  0.99527019943E+03  0.10035173807E+04  0.12508570629E+03 0.  0.
          5    1    3    3  502    0  0.59494264351E+02  0.46876855913E+02  0.55684616350E+03  0.56198943880E+03  0.41800000000E+01 0.  1.
         -5    1    3    3    0  502 -0.30981768801E+02 -0.41880136338E+02  0.43842403593E+03  0.44152794192E+03  0.41800000000E+01 0.  1.
        -11    1    1    2    0    0 -0.48300787178E+02  0.11941871177E+02  0.18023979921E+03  0.18698117431E+03  0.00000000000E+00 0. -1.
         11    1    1    2    0    0  0.19788291627E+02 -0.16938590752E+02  0.21059034779E+02  0.33495899570E+02  0.00000000000E+00 0.  1.
</event>
<event>
 7    1  0.2564986E-009  0.1083381E+03  0.7561462E-02  0.1263679E+00
         -3   -1    0    0    0  501 -0.00000000000E+00  0.00000000000E+00  0.35885000667E+03  0.35885000667E+03  0.00000000000E+00 0.  1.
          3   -1    0    0  501    0  0.00000000000E+00 -0.00000000000E+00 -0.98458404557E+02  0.98458404557E+02  0.00000000000E+00 0. -1.
         25    2    1    2    0    0  0.79452625459E+02 -0.30922802257E+02 -0.19398029058E+02  0.15262018749E+03  0.12509076188E+03 0.  0.
          5    1    3    3  502    0  0.84469057099E+02 -0.65763998074E+01  0.35696977538E+02  0.92032696619E+02  0.41800000000E+01 0. -1.
         -5    1    3    3    0  502 -0.50164316403E+01 -0.24346402450E+02 -0.55095006596E+02  0.60587490875E+02  0.41800000000E+01 0. -1.
        -11    1    1    2    0    0 -0.10077497663E+02  0.35706862887E+02  0.17523515493E+03  0.17911977987E+03  0.00000000000E+00 0.  1.
         11    1    1    2    0    0 -0.69375127796E+02 -0.47840606291E+01  0.10455447623E+03  0.12556844386E+03  0.00000000000E+00 0. -1.
</event>
<event>
 7    1  0.2564986E-009  0.8252958E+02  0.7561462E-02  0.1322022E+00
          1   -1    0    0  501    0  0.00000000000E+00  0.00000000000E+00  0.58776211343E+03  0.58776211343E+03  0.00000000000E+00 0. -1.
         -1   -1    0    0    0  501 -0.00000000000E+00 -0.00000000000E+00 -0.21128934347E+02  0.21128934347E+02  0.00000000000E+00 0.  1.
         25    2    1    2    0    0 -0.23805468629E+02 -0.90006670783E+01  0.29046564255E+03  0.31727849102E+03  0.12509052327E+03 0.  0.
          5    1    3    3  502    0 -0.66312479463E+01  0.29155270091E+02  0.73706206624E+01  0.31077349828E+02  0.41800000000E+01 0.  1.
         -5    1    3    3    0  502 -0.17174220682E+02 -0.38155937169E+02  0.28309502189E+03  0.28620114119E+03  0.41800000000E+01 0.  1.
        -11    1    1    2    0    0  0.50837870889E+02 -0.18647422617E+02  0.14163597198E+03  0.15163431025E+03  0.00000000000E+00 0.  1.
         11    1    1    2    0    0 -0.27032402261E+02  0.27648089695E+02  0.13453156455E+03  0.13997824651E+03  0.00000000000E+00 0. -1.
</event>
<event>
 7    1  0.2564986E-009  0.1510075E+03  0.7561462E-02  0.1199240E+00
         -2   -1    0    0    0  501 -0.00000000000E+00  0.00000000000E+00  0.66975639462E+02  0.66975639462E+02  0.00000000000E+00 0.  1.
          2   -1    0    0  501    0  0.00000000000E+00 -0.00000000000E+00 -0.53646728328E+03  0.53646728328E+03  0.00000000000E+00 0. -1.
         25    2    1    2    0    0  0.24029186172E+02  0.10497053609E+03 -0.68998166614E+02  0.17889687817E+03  0.12508849183E+03 0.  0.
          5    1    3    3  502    0 -0.48021253416E+01  0.12675429118E+03 -0.64128758093E+02  0.14219592384E+03  0.41800000000E+01 0.  1.
         -5    1    3    3    0  502  0.28831311513E+02 -0.21783755096E+02 -0.48694085211E+01  0.36700954334E+02  0.41800000000E+01 0.  1.
        -11    1    1    2    0    0 -0.57096618174E+02 -0.59080009271E+02 -0.27237175053E+03  0.28449401011E+03  0.00000000000E+00 0. -1.
         11    1    1    2    0    0  0.33067432002E+02 -0.45890526816E+02 -0.12812172668E+03  0.14005203446E+03  0.00000000000E+00 0.  1.
</event>
<event>
 7    1  0.2564986E-009  0.1017297E+03  0.7561462E-02  0.1276700E+00
         -4   -1    0    0    0  501 -0.00000000000E+00  0.00000000000E+00  0.57267790019E+03  0.57267790019E+03  0.00000000000E+00 0.  1.
          4   -1    0    0  501    0  0.00000000000E+00 -0.00000000000E+00 -0.26144441976E+02  0.26144441976E+02  0.00000000000E+00 0. -1.
         25    2    1    2    0    0 -0.67198165512E+01  0.49813010621E+02  0.24475166429E+03  0.27942368354E+03  0.12509087012E+03 0.  0.
          5    1    3    3  502    0 -0.31144502810E+02 -0.24731127923E+02  0.15534501260E+03  0.16040933291E+03  0.41800000000E+01 0. -1.
         -5    1    3    3    0  502  0.24424686259E+02  0.74544138544E+02  0.89406651690E+02  0.11901435063E+03  0.41800000000E+01 0. -1.
        -11    1    1    2    0    0  0.20140212131E+02 -0.62975884990E+02  0.28947602273E+03  0.29693089764E+03  0.00000000000E+00 0.  1.
         11    1    1    2    0    0 -0.13420395580E+02  0.13162874369E+02  0.12305771188E+02  0.22467760986E+02  0.00000000000E+00 0. -1.
</event>
<event>
 7    1  0.2564986E-009  0.2045565E+03  0.7561462E-02  0.1145951E+00
         -1   -1    0    0    0  501 -0.00000000000E+00  0.00000000000E+00  0.57315456344E+02  0.57315456344E+02  0.00000000000E+00 0.  1.
          1   -1    0    0  501    0  0.00000000000E+00 -0.00000000000E+00 -0.98641092877E+03  0.98641092877E+03  0.00000000000E+00 0. -1.
         25    2    1    2    0    0 -0.76848241156E+02  0.18171241900E+03 -0.31333865815E+03  0.39083779098E+03  0.12509200125E+03 0.  0.
          5    1    3    3  502    0  0.63936382496E+01  0.63576909777E+02 -0.25874745957E+02  0.69064295734E+02  0.41800000000E+01 0.  1.
         -5    1    3    3    0  502 -0.83241879406E+02  0.11813550922E+03 -0.28746391220E+03  0.32177349524E+03  0.41800000000E+01 0.  1.
        -11    1    1    2    0    0  0.36646110646E+02 -0.12961401910E+03 -0.51668270779E+03  0.53395107632E+03  0.00000000000E+00 0. -1.
         11    1    1    2    0    0  0.40202130510E+02 -0.52098399893E+02 -0.99074106477E+02  0.11893751781E+03  0.00000000000E+00 0.  1.
</event>
<event>
 7    1  0.2564986E-009  0.1134067E+03  0.7561462E-02  0.1254388E+00
          1   -1    0    0  501    0  0.00000000000E+00  0.00000000000E+00  0.28237134677E+03  0.28237134677E+03  0.00000000000E+00 0. -1.
         -1   -1    0    0    0  501 -0.00000000000E+00 -0.00000000000E+00 -0.62174421978E+02  0.62174421978E+02  0.00000000000E+00 0.  1.
         25    2    1    2    0    0 -0.48749868107E+02  0.28424294417E+01  0.44621408541E+02  0.14150390189E+03  0.12509058759E+03 0.  0.
          5    1    3    3  502    0 -0.92268054364E+01 -0.56164533868E+02  0.40994684372E+02  0.70268238558E+02  0.41800000000E+01 0. -1.
         -5    1    3    3    0  502 -0.39523062670E+02  0.59006963310E+02  0.36267241685E+01  0.71235663330E+02  0.41800000000E+01 0. -1.
        -11    1    1    2    0    0 -0.24309606622E+02  0.59094893627E+01  0.24581529725E+02  0.35073218304E+02  0.00000000000E+00 0.  1.
         11    1    1    2    0    0  0.73059474728E+02 -0.87519188043E+01  0.15099398653E+03  0.16796864856E+03  0.00000000000E+00 0. -1.
</event>
<event>
 7    1  0.2564986E-009  0.1167386E+03  0.7561462E-02  0.1248576E+00
         -3   -1    0    0    0  501 -0.00000000000E+00  0.00000000000E+00  0.87020242058E+03  0.87020242058E+03  0.00000000000E+00 0.  1.
          3   -1    0    0  501    0  0.00000000000E+00 -0.00000000000E+00 -0.23130659786E+02  0.23130659786E+02  0.00000000000E+00 0. -1.
         25    2    1    2    0    0 -0.67187659256E+02  0.56175374544E+02  0.61748679621E+03  0.63608663587E+03  0.12508561298E+03 0.  0.
          5    1    3    3  502    0 -0.11553716716E+02  0.83034155544E+02  0.25813730546E+03  0.27144152266E+03  0.41800000000E+01 0. -1.
         -5    1    3    3    0  502 -0.55633942540E+02 -0.26858781000E+02  0.35934949076E+03  0.36464511321E+03  0.41800000000E+01 0. -1.
        -11    1    1    2    0    0  0.40451980071E+02 -0.32083395583E+02  0.21003970352E+03  0.21629235774E+03  0.00000000000E+00 0.  1.
         11    1    1    2    0    0  0.26735679186E+02 -0.24091978961E+02  0.19545261063E+02  0.40954086753E+02  0.00000000000E+00 0. -1.
</event>
<event>
 7    1  0.2564986E-009  0.1232974E+03  0.7561462E-02  0.1237754E+00
         -1   -1    0    0    0  501 -0.00000000000E+00  0.00000000000E+00  0.26401283324E+02  0.26401283324E+02  0.00000000000E+00 0.  1.
          1   -1    0    0  501    0  0.00000000000E+00 -0.00000000000E+00 -0.86518721059E+03  0.86518721059E+03  0.00000000000E+00 0. -1.
         25    2    1    2    0    0  0.70406072454E+01 -0.10642929139E+03 -0.52913595729E+03  0.55408401362E+03  0.12508984225E+03 0.  0.
          5    1    3    3  502    0 -0.18054747333E+02 -0.31897610494E+02 -0.40757897251E+03  0.40924506434E+03  0.41800000000E+01 0.  1.
         -5    1    3    3    0  502  0.25095354579E+02 -0.74531680899E+02 -0.12155698479E+03  0.14483894928E+03  0.41800000000E+01 0.  1.
        -11    1    1    2    0    0 -0.41666337101E+02  0.57680139957E+02 -0.13048812542E+03  0.14862783410E+03  0.00000000000E+00 0.  1.
         11    1    1    2    0    0  0.34625729856E+02  0.48749151436E+02 -0.17916184455E+03  0.18887664619E+03  0.00000000000E+00 0. -1.
</event>
<event>
 7    1  0.2564986E-009  0.1263293E+03  0.7561462E-02  0.1233006E+00
         -1   -1    0    0    0  501 -0.00000000000E+00  0.00000000000E+00  0.55724040593E+02  0.55724040593E+02  0.00000000000E+00 0.  1.
          1   -1    0    0  501    0  0.00000000000E+00 -0.00000000000E+00 -0.40681956252E+03  0.40681956252E+03  0.00000000000E+00 0. -1.
         25    2    1    2    0    0  0.10005856400E+03  0.92943279528E+01 -0.23644626344E+03  0.28574928555E+03  0.12509083876E+03 0.  0.
          5    1    3    3  502    0  0.97580622875E+02  0.27422661847E+02 -0.82763107355E+02  0.13092434717E+03  0.41800000000E+01 0.  1.
         -5    1    3    3    0  502  0.24779411217E+01 -0.18128333894E+02 -0.15368315608E+03  0.15482493838E+03  0.41800000000E+01 0.  1.
        -11    1    1    2    0    0 -0.10818986883E+03 -0.28250080752E+02 -0.10708897758E+03  0.15482623776E+03  0.00000000000E+00 0. -1.
         11    1    1    2    0    0  0.81313048332E+01  0.18955752799E+02 -0.75602809075E+01  0.21968079795E+02  0.00000000000E+00 0.  1.
</event>
<event>
 7    1  0.2564986E-009  0.1530411E+03  0.7561462E-02  0.1196785E+00
          2   -1    0    0  501    0  0.00000000000E+00  0.00000000000E+00  0.18920731865E+03  0.18920731865E+03  0.00000000000E+00 0. -1.
         -2   -1    0    0    0  501 -0.00000000000E+00 -0.00000000000E+00 -0.14441906037E+03  0.14441906037E+03  0.00000000000E+00 0.  1.
         25    2    1    2    0    0 -0.91395864590E+02 -0.81916433457E+02  0.45076489973E+02  0.18095086840E+03  0.12509124947E+03 0.  0.
          5    1    3    3  502    0  0.12193708414E+02 -0.40374214315E+02  0.54301723567E+02  0.68883330994E+02  0.41800000000E+01 0. -1.
         -5    1    3    3    0  502 -0.10358957300E+03 -0.41542219142E+02 -0.92252335940E+01  0.11206753741E+03  0.41800000000E+01 0. -1.
        -11    1    1    2    0    0  0.97054580277E+02  0.32615374969E+02  0.64710947585E+01  0.10259254020E+03  0.00000000000E+00 0. -1.
         11    1    1    2    0    0 -0.56587156867E+01  0.49301058488E+02 -0.67593264462E+01  0.50082970412E+02  0.00000000000E+00 0.  1.
</event>
<event>
 7    1  0.2564986E-009  0.1039796E+03  0.7561462E-02  0.1272143E+00
          2   -1    0    0  501    0  0.00000000000E+00  0.00000000000E+00  0.23595957370E+03  0.23595957370E+03  0.00000000000E+00 0. -1.
         -2   -1    0    0    0  501 -0.00000000000E+00 -0.00000000000E+00 -0.21295376598E+03  0.21295376598E+03  0.00000000000E+00 0.  1.
         25    2    1    2    0    0  0.72525370907E+02 -0.31678621396E+02  0.19106047788E+03  0.24168599882E+03  0.12507818090E+03 0.  0.
          5    1    3    3  502    0  0.55973243344E+02  0.25847351785E+02  0.27823802368E+02  0.67769653555E+02  0.41800000000E+01 0. -1.
         -5    1    3    3    0  502  0.16552127563E+02 -0.57525973182E+02  0.16323667552E+03  0.17391634527E+03  0.41800000000E+01 0. -1.
        -11    1    1    2    0    0 -0.42389831949E+02  0.36128035431E+02 -0.16775953948E+03  0.17676367241E+03  0.00000000000E+00 0.  1.
         11    1    1    2    0    0 -0.30135538958E+02 -0.44494140349E+01 -0.29513068397E+00  0.30463668454E+02  0.00000000000E+00 0. -1.
</event>
<event>
 7    1  0.2564986E-009  0.2931924E+03  0.7561462E-02  0.1088694E+00
          2   -1    0    0  501    0  0.00000000000E+00  0.00000000000E+00  0.87802058023E+03  0.87802058023E+03  0.00000000000E+00 0. -1.
         -2   -1    0    0    0  501 -0.00000000000E+00 -0.00000000000E+00 -0.11773876089E+03  0.11773876089E+03  0.00000000000E+00 0.  1.
         25    2    1    2    0    0 -0.13366513033E+03  0.23830635938E+03  0.58764193789E+03  0.66002039455E+03  0.12509031161E+03 0.  0.
          5    1    3    3  502    0 -0.46193032372E+02  0.67403175397E+00  0.73992009265E+02  0.87330065805E+02  0.41800000000E+01 0.  1.
         -5    1    3    3    0  502 -0.87472097962E+02  0.23763232762E+03  0.51364992863E+03  0.57269032874E+03  0.41800000000E+01 0.  1.
        -11    1    1    2    0    0  0.54571385877E+02 -0.18106332249E+03  0.99059562459E+02  0.21348245788E+03  0.00000000000E+00 0. -1.
         11    1    1    2    0    0  0.79093744458E+02 -0.57243036888E+02  0.73580318986E+02  0.12225648869E+03  0.00000000000E+00 0.  1.
</event>
<event>
 7    1  0.2564986E-009  0.1105710E+03  0.7561462E-02  0.1259516E+00
          1   -1    0    0  501    0  0.00000000000E+00  0.00000000000E+00  0.24327790316E+03  0.24327790316E+03  0.00000000000E+00 0. -1.
         -1   -1    0    0    0  501 -0.00000000000E+00 -0.00000000000E+00 -0.11110665167E+03  0.11110665167E+03  0.00000000000E+00 0.  1.
         25    2    1    2    0    0  0.27801372023E+02  0.53542638212E+02  0.18559765984E+03  0.23179660428E+03  0.12507375434E+03 0.  0.
          5    1    3    3  502    0  0.59339040073E+02  0.15655773291E+02  0.16862472254E+03  0.17949371678E+03  0.41800000000E+01 0.  1.
         -5    1    3    3    0  502 -0.31537668050E+02  0.37886864922E+02  0.16972937300E+02  0.52302887494E+02  0.41800000000E+01 0.  1.
        -11    1    1    2    0    0  0.28433391671E+02 -0.45068605186E+02 -0.22395071546E+02  0.57802907927E+02  0.00000000000E+00 0. -1.
         11    1    1    2    0    0 -0.56234763694E+02 -0.84740330267E+01 -0.31031336801E+02  0.64785042618E+02  0.00000000000E+00 0.  1.
</event>
<event>
 7    1  0.2564986E-009  0.7780982E+02  0.7561462E-02  0.1335384E+00
         -2   -1    0    0    0  501 -0.00000000000E+00  0.00000000000E+00  0.10499725952E+03  0.10499725952E+03  0.00000000000E+00 0.  1.
          2   -1    0    0  501    0  0.00000000000E+00 -0.00000000000E+00 -0.15899019624E+03  0.15899019624E+03  0.00000000000E+00 0. -1.
         25    2    1    2    0    0  0.22324791311E+02  0.43363633104E+02 -0.78492532882E+02  0.15552263377E+03  0.12508961153E+03 0.  0.
          5    1    3    3  502    0  0.51419877856E+02  0.41465539759E+02 -0.99386765750E+02  0.11940936493E+03  0.41800000000E+01 0.  1.
         -5    1    3    3    0  502 -0.29095086545E+02  0.18980933452E+01  0.20894232868E+02  0.36113268844E+02  0.41800000000E+01 0.  1.
        -11    1    1    2    0    0 -0.27235274217E+02 -0.14805802072E+02  0.57023473677E+02  0.64904918819E+02  0.00000000000E+00 0.  1.
         11    1    1    2    0    0  0.49104829067E+01 -0.28557831032E+02 -0.32523877513E+02  0.43559903169E+02  0.00000000000E+00 0. -1.
</event>
<event>
 7    1  0.2564986E-009  0.1104725E+03  0.7561462E-02  0.1259697E+00
          2   -1    0    0  501    0  0.00000000000E+00  0.00000000000E+00  0.54349532594E+03  0.54349532594E+03  0.00000000000E+00 0.  1.
         -2   -1    0    0    0  501 -0.00000000000E+00 -0.00000000000E+00 -0.30984671071E+02  0.30984671071E+02  0.00000000000E+00 0. -1.
         25    2    1    2    0    0  0.10390885689E+02  0.69842553282E+02  0.32007120996E+03  0.35083059547E+03  0.12510225626E+03 0.  0.
          5    1    3    3  502    0  0.41170301804E+02  0.64016155110E+02  0.87182294664E+02  0.11580711018E+03  0.41800000000E+01 0.  1.
         -5    1    3    3    0  502 -0.30779416115E+02  0.58263981730E+01  0.23288891529E+03  0.23502348529E+03  0.41800000000E+01 0.  1.
        -11    1    1    2    0    0 -0.47231857371E+02 -0.20383838770E+02  0.10116086389E+03  0.11348951324E+03  0.00000000000E+00 0.  1.
         11    1    1    2    0    0  0.36840971681E+02 -0.49458714512E+02  0.91278581026E+02  0.11015988830E+03  0.00000000000E+00 0. -1.
</event>
<event>
 7    1  0.2564986E-009  0.1677064E+03  0.7561462E-02  0.1180261E+00
          2   -1    0    0  501    0  0.00000000000E+00  0.00000000000E+00  0.25973069497E+03  0.25973069497E+03  0.00000000000E+00 0. -1.
         -2   -1    0    0    0  501 -0.00000000000E+00 -0.00000000000E+00 -0.12976594225E+03  0.12976594225E+03  0.00000000000E+00 0.  1.
         25    2    1    2    0    0  0.71032800155E+02  0.11547950289E+03  0.61418135613E+01  0.18457056178E+03  0.12508955239E+03 0.  0.
          5    1    3    3  502    0  0.89354606494E+02  0.26530523316E+02  0.79334802625E+01  0.93640412633E+02  0.41800000000E+01 0.  1.
         -5    1    3    3    0  502 -0.18321806339E+02  0.88948979570E+02 -0.17916667012E+01  0.90930149145E+02  0.41800000000E+01 0.  1.
        -11    1    1    2    0    0 -0.10254761233E+02 -0.80339429979E+02  0.27089851722E+02  0.85401663939E+02  0.00000000000E+00 0.  1.
         11    1    1    2    0    0 -0.60778038921E+02 -0.35140072907E+02  0.96733087436E+02  0.11952441150E+03  0.00000000000E+00 0. -1.
</event>
<event>
 7    1  0.2564986E-009  0.1252226E+03  0.7561462E-02  0.1234722E+00
         -1   -1    0    0    0  501 -0.00000000000E+00  0.00000000000E+00  0.20478467594E+02  0.20478467594E+02  0.00000000000E+00 0.  1.
          1   -1    0    0  501    0  0.00000000000E+00 -0.00000000000E+00 -0.15668285578E+04  0.15668285578E+04  0.00000000000E+00 0. -1.
         25    2    1    2    0    0  0.82285361332E+02 -0.35547732868E+02 -0.13087745567E+04  0.13177894621E+04  0.12507479407E+03 0.  0.
          5    1    3    3  502    0  0.24839358058E+02 -0.71982615130E+02 -0.91390051744E+03  0.91707694267E+03  0.41800000000E+01 0. -1.
         -5    1    3    3    0  502  0.57446003274E+02  0.36434882263E+02 -0.39487403925E+03  0.40071251941E+03  0.41800000000E+01 0. -1.
        -11    1    1    2    0    0 -0.74789371144E+00  0.23609870961E+02 -0.69674030154E+01  0.24627830936E+02  0.00000000000E+00 0.  1.
         11    1    1    2    0    0 -0.81537467621E+02  0.11937861906E+02 -0.23060813044E+03  0.24488973233E+03  0.00000000000E+00 0. -1.
</event>
<event>
 7    1  0.2564986E-009  0.1066084E+03  0.7561462E-02  0.1266983E+00
         -1   -1    0    0    0  501 -0.00000000000E+00  0.00000000000E+00  0.56285710474E+03  0.56285710474E+03  0.00000000000E+00 0.  1.
          1   -1    0    0  501    0  0.00000000000E+00 -0.00000000000E+00 -0.21446037663E+02  0.21446037663E+02  0.00000000000E+00 0. -1.
         25    2    1    2    0    0 -0.11468296320E+02  0.11645525788E+02  0.28613986080E+03  0.31271318521E+03  0.12508547547E+03 0.  0.
          5    1    3    3  502    0 -0.66524754939E+02  0.84891522094E+01  0.11899347845E+03  0.13665478052E+03  0.41800000000E+01 0.  1.
         -5    1    3    3    0  502  0.55056458619E+02  0.31563735790E+01  0.16714638235E+03  0.17605840469E+03  0.41800000000E+01 0.  1.
        -11    1    1    2    0    0 -0.14458813511E+02  0.34711487052E+02  0.13444612595E+03  0.13960553501E+03  0.00000000000E+00 0. -1.
         11    1    1    2    0    0  0.25927109831E+02 -0.46357012841E+02  0.12082508033E+03  0.13198442219E+03  0.00000000000E+00 0.  1.
</event>
<event>
 7    1  0.2564986E-009  0.9185450E+02  0.7561462E-02  0.1298422E+00
         -1   -1    0    0    0  501 -0.00000000000E+00  0.00000000000E+00  0.14551441490E+03  0.14551441490E+03  0.00000000000E+00 0.  1.
          1   -1    0    0  501    0  0.00000000000E+00 -0.00000000000E+00 -0.10652572283E+03  0.10652572283E+03  0.00000000000E+00 0. -1.
         25    2    1    2    0    0  0.10091834969E+02  0.96714173835E+01  0.18042469003E+02  0.12715757308E+03  0.12509251080E+03 0.  0.
          5    1    3    3  502    0  0.46571504226E+02 -0.28913020165E+02 -0.23322449196E+02  0.59718311911E+02  0.41800000000E+01 0. -1.
         -5    1    3    3    0  502 -0.36479669257E+02  0.38584437549E+02  0.41364918199E+02  0.67439261174E+02  0.41800000000E+01 0. -1.
        -11    1    1    2    0    0 -0.39631543014E+02  0.88447452407E+01  0.60052223949E+02  0.72492470790E+02  0.00000000000E+00 0.  1.
         11    1    1    2    0    0  0.29539708044E+02 -0.18516162624E+02 -0.39106000883E+02  0.52390093861E+02  0.00000000000E+00 0. -1.
</event>
<event>
 7    1  0.2564986E-009  0.1073039E+03  0.7561462E-02  0.1265646E+00
          2   -1    0    0  501    0  0.00000000000E+00  0.00000000000E+00  0.11874532588E+04  0.11874532588E+04  0.00000000000E+00 0. -1.
         -2   -1    0    0    0  501 -0.00000000000E+00 -0.00000000000E+00 -0.17847039253E+02  0.17847039253E+02  0.00000000000E+00 0.  1.
         25    2    1    2    0    0 -0.87722735920E+02  0.33442183194E+02  0.79036269368E+03  0.80568903808E+03  0.12509188824E+03 0.  0.
          5    1    3    3  502    0 -0.31133099200E+02  0.15207993247E+02  0.67443416187E+03  0.67533655611E+03  0.41800000000E+01 0.  1.
         -5    1    3    3    0  502 -0.56589636720E+02  0.18234189947E+02  0.11592853181E+03  0.13035248197E+03  0.41800000000E+01 0.  1.
        -11    1    1    2    0    0  0.80637097337E+02  0.52142573572E+01  0.19241091081E+03  0.20868993399E+03  0.00000000000E+00 0.  1.
         11    1    1    2    0    0  0.70856385824E+01 -0.38656440551E+02  0.18683261510E+03  0.19092132604E+03  0.00000000000E+00 0. -1.
</event>
<event>
 7    1  0.2564986E-009  0.1056315E+03  0.7561462E-02  0.1268880E+00
         -2   -1    0    0    0  501 -0.00000000000E+00  0.00000000000E+00  0.12642401066E+04  0.12642401066E+04  0.00000000000E+00 0. -1.
          2   -1    0    0  501    0  0.00000000000E+00 -0.00000000000E+00 -0.10331954518E+02  0.10331954518E+02  0.00000000000E+00 0.  1.
         25    2    1    2    0    0 -0.37239753404E+01 -0.13045926141E+01  0.95659992994E+03  0.96475153653E+03  0.12508609562E+03 0.  0.
          5    1    3    3  502    0 -0.32268432210E+02  0.53387427573E+02  0.53511016127E+03  0.53875024477E+03  0.41800000000E+01 0.  1.
         -5    1    3    3    0  502  0.28544456870E+02 -0.54692020187E+02  0.42148976867E+03  0.42600129176E+03  0.41800000000E+01 0.  1.
        -11    1    1    2    0    0 -0.65795282818E+01 -0.41939564121E+02  0.13350104638E+03  0.14008835289E+03  0.00000000000E+00 0. -1.
         11    1    1    2    0    0  0.10303503622E+02  0.43244156735E+02  0.16380717573E+03  0.16973217167E+03  0.00000000000E+00 0.  1.
</event>
<event>
 7    1  0.2564986E-009  0.1413019E+03  0.7561462E-02  0.1211588E+00
          2   -1    0    0  501    0  0.00000000000E+00  0.00000000000E+00  0.45335359284E+02  0.45335359284E+02  0.00000000000E+00 0. -1.
         -2   -1    0    0    0  501 -0.00000000000E+00 -0.00000000000E+00 -0.49965615210E+03  0.49965615210E+03  0.00000000000E+00 0.  1.
         25    2    1    2    0    0 -0.40553699227E+02  0.95596432741E+02 -0.26699631345E+03  0.31259891321E+03  0.12509104153E+03 0.  0.
          5    1    3    3  502    0  0.40082831495E+02  0.21628071248E+02 -0.40798892010E+02  0.61289712316E+02  0.41800000000E+01 0. -1.
         -5    1    3    3    0  502 -0.80636530721E+02  0.73968361493E+02 -0.22619742144E+03  0.25130920089E+03  0.41800000000E+01 0. -1.
        -11    1    1    2    0    0 -0.17047349715E+02 -0.53136063228E+02 -0.12729193806E+03  0.13898665707E+03  0.00000000000E+00 0.  1.
         11    1    1    2    0    0  0.57601048942E+02 -0.42460369513E+02 -0.60032541314E+02  0.93405941112E+02  0.00000000000E+00 0. -1.
</event>
<event>
 7    1  0.2564986E-009  0.1079605E+03  0.7561462E-02  0.1264394E+00
         -3   -1    0    0    0  501 -0.00000000000E+00  0.00000000000E+00  0.18992303825E+02  0.18992303825E+02  0.00000000000E+00 0.  1.
          3   -1    0    0  501    0  0.00000000000E+00 -0.00000000000E+00 -0.74833987880E+03  0.74833987880E+03  0.00000000000E+00 0. -1.
         25    2    1    2    0    0  0.47625602856E+02 -0.68943827938E+01 -0.38955568440E+03  0.41196670084E+03  0.12508877165E+03 0.  0.
          5    1    3    3  502    0  0.52442246647E+02  0.47189216768E+02 -0.14352488054E+03  0.15998085869E+03  0.41800000000E+01 0.  1.
         -5    1    3    3    0  502 -0.48166437920E+01 -0.54083599561E+02 -0.24603080386E+03  0.25198584215E+03  0.41800000000E+01 0.  1.
        -11    1    1    2    0    0 -0.33547007169E+02 -0.33865362756E+02 -0.26308176132E+03  0.26736543835E+03  0.00000000000E+00 0. -1.
         11    1    1    2    0    0 -0.14078595686E+02  0.40759745549E+02 -0.76710129252E+02  0.88000043429E+02  0.00000000000E+00 0.  1.
</event>
<event>
 7    1  0.2564986E-009  0.9419770E+02  0.7561462E-02  0.1292993E+00
          1   -1    0    0  501    0  0.00000000000E+00  0.00000000000E+00  0.29859279834E+03  0.29859279834E+03  0.00000000000E+00 0. -1.
         -1   -1    0    0    0  501 -0.00000000000E+00 -0.00000000000E+00 -0.49788268595E+02  0.49788268595E+02  0.00000000000E+00 0.  1.
         25    2    1    2    0    0  0.32069119713E+02 -0.13245587158E+02  0.79049977151E+02  0.15199163295E+03  0.12509469845E+03 0.  0.
          5    1    3    3  502    0  0.15214224541E+02 -0.53615188085E+02  0.90691881670E+02  0.10652957722E+03  0.41800000000E+01 0. -1.
         -5    1    3    3    0  502  0.16854895172E+02  0.40369600926E+02 -0.11641904518E+02  0.45462055728E+02  0.41800000000E+01 0. -1.
        -11    1    1    2    0    0 -0.11461436627E+02  0.47347920303E+02  0.48442423257E+02  0.68701226027E+02  0.00000000000E+00 0. -1.
         11    1    1    2    0    0 -0.20607683086E+02 -0.34102333145E+02  0.12131212934E+03  0.12768820797E+03  0.00000000000E+00 0.  1.
</event>
<event>
 7    1  0.2564986E-009  0.8709932E+02  0.7561462E-02  0.1310032E+00
          2   -1    0    0  501    0  0.00000000000E+00  0.00000000000E+00  0.17687390779E+03  0.17687390779E+03  0.00000000000E+00 0. -1.
         -2   -1    0    0    0  501 -0.00000000000E+00 -0.00000000000E+00 -0.82068879123E+02  0.82068879123E+02  0.00000000000E+00 0.  1.
         25    2    1    2    0    0 -0.49701818963E+02  0.14633339000E+02  0.39108658379E+02  0.14092899131E+03  0.12508832085E+03 0.  0.
          5    1    3    3  502    0 -0.59318342517E+02  0.38522771273E+02 -0.22241544802E+02  0.74261890501E+02  0.41800000000E+01 0.  1.
         -5    1    3    3    0  502  0.96165235542E+01 -0.23889432273E+02  0.61350203181E+02  0.66667100807E+02  0.41800000000E+01 0.  1.
        -11    1    1    2    0    0  0.49497535013E+01 -0.29643622892E+02 -0.14542714421E+02  0.33387647126E+02  0.00000000000E+00 0.  1.
         11    1    1    2    0    0  0.44752065462E+02  0.15010283892E+02  0.70239084708E+02  0.84626148478E+02  0.00000000000E+00 0. -1.
</event>
<event>
 7    1  0.2564986E-009  0.1009885E+03  0.7561462E-02  0.1278231E+00
         -2   -1    0    0    0  501 -0.00000000000E+00  0.00000000000E+00  0.29643591213E+02  0.29643591213E+02  0.00000000000E+00 0.  1.
          2   -1    0    0  501    0  0.00000000000E+00 -0.00000000000E+00 -0.51056051492E+03  0.51056051492E+03  0.00000000000E+00 0. -1.
         25    2    1    2    0    0  0.11909983713E+02  0.40459855959E+02 -0.33958729969E+03  0.36434395420E+03  0.12509250655E+03 0.  0.
          5    1    3    3  502    0  0.56885253006E+02  0.33808176932E+02 -0.96991763887E+02  0.11748957187E+03  0.41800000000E+01 0.  1.
         -5    1    3    3    0  502 -0.44975269293E+02  0.66516790266E+01 -0.24259553581E+03  0.24685438233E+03  0.41800000000E+01 0.  1.
        -11    1    1    2    0    0  0.31444442712E+02 -0.11067518446E+01 -0.98258444663E+02  0.10317315457E+03  0.00000000000E+00 0.  1.
         11    1    1    2    0    0 -0.43354426425E+02 -0.39353104114E+02 -0.43071179351E+02  0.72686997357E+02  0.00000000000E+00 0. -1.
</event>
<event>
 7    1  0.2564986E-009  0.1052797E+03  0.7561462E-02  0.1269570E+00
         -1   -1    0    0    0  501 -0.00000000000E+00  0.00000000000E+00  0.56510244016E+02  0.56510244016E+02  0.00000000000E+00 0.  1.
          1   -1    0    0  501    0  0.00000000000E+00 -0.00000000000E+00 -0.34764016748E+03  0.34764016748E+03  0.00000000000E+00 0. -1.
         25    2    1    2    0    0  0.60144031610E+02 -0.65140321655E+02 -0.13048859125E+03  0.20133473372E+03  0.12509131269E+03 0.  0.
          5    1    3    3  502    0  0.52935156069E+02 -0.30858357032E+02 -0.14923861408E+03  0.16138155185E+03  0.41800000000E+01 0. -1.
         -5    1    3    3    0  502  0.72088755411E+01 -0.34281964623E+02  0.18750022828E+02  0.39953181864E+02  0.41800000000E+01 0. -1.
        -11    1    1    2    0    0 -0.74485116061E+02  0.65969503580E+02 -0.10220240692E+03  0.14263709159E+03  0.00000000000E+00 0.  1.
         11    1    1    2    0    0  0.14341084451E+02 -0.82918192501E+00 -0.58438925291E+02  0.60178586184E+02  0.00000000000E+00 0. -1.
</event>
<event>
 7    1  0.2564986E-009  0.1017820E+03  0.7561462E-02  0.1276593E+00
         -2   -1    0    0    0  501 -0.00000000000E+00  0.00000000000E+00  0.88520208292E+03  0.88520208292E+03  0.00000000000E+00 0.  1.
          2   -1    0    0  501    0  0.00000000000E+00 -0.00000000000E+00 -0.15524896131E+02  0.15524896131E+02  0.00000000000E+00 0. -1.
         25    2    1    2    0    0  0.41029895759E+02  0.10800233729E+02  0.47319149831E+03  0.49128193266E+03  0.12509055078E+03 0.  0.
          5    1    3    3  502    0 -0.91053961019E+01 -0.33108213529E+02  0.39607224094E+02  0.52585802663E+02  0.41800000000E+01 0.  1.
         -5    1    3    3    0  502  0.50135291861E+02  0.43908447259E+02  0.43358427421E+03  0.43869613000E+03  0.41800000000E+01 0.  1.
        -11    1    1    2    0    0 -0.71241982525E+02 -0.10289200663E+02  0.27932580225E+03  0.28845136770E+03  0.00000000000E+00 0.  1.
         11    1    1    2    0    0  0.30212086766E+02 -0.51103306642E+00  0.11715988623E+03  0.12099367869E+03  0.00000000000E+00 0. -1.
</event>
<event>
 7    1  0.2564986E-009  0.1569965E+03  0.7561462E-02  0.1192130E+00
          2   -1    0    0  501    0  0.00000000000E+00  0.00000000000E+00  0.31316345856E+03  0.31316345856E+03  0.00000000000E+00 0. -1.
         -2   -1    0    0    0  501 -0.00000000000E+00 -0.00000000000E+00 -0.11290882600E+03  0.11290882600E+03  0.00000000000E+00 0.  1.
         25    2    1    2    0    0  0.12568024422E+03  0.60416370458E+02  0.37237924582E+02  0.19099737691E+03  0.12509066054E+03 0.  0.
          5    1    3    3  502    0  0.11543444096E+03  0.31670298359E+02  0.75723853306E+02  0.14170283101E+03  0.41800000000E+01 0. -1.
         -5    1    3    3    0  502  0.10245803259E+02  0.28746072099E+02 -0.38485928724E+02  0.49294545898E+02  0.41800000000E+01 0. -1.
        -11    1    1    2    0    0 -0.12251705391E+03 -0.78205247846E+02  0.12023521248E+03  0.18863455571E+03  0.00000000000E+00 0.  1.
         11    1    1    2    0    0 -0.31631903151E+01  0.17788877388E+02  0.42781495493E+02  0.46440351940E+02  0.00000000000E+00 0. -1.
</event>
<event>
 7    1  0.2564986E-009  0.1127569E+03  0.7561462E-02  0.1255548E+00
          1   -1    0    0  501    0  0.00000000000E+00  0.00000000000E+00  0.28115439220E+03  0.28115439220E+03  0.00000000000E+00 0. -1.
         -1   -1    0    0    0  501 -0.00000000000E+00 -0.00000000000E+00 -0.64230005683E+02  0.64230005683E+02  0.00000000000E+00 0.  1.
         25    2    1    2    0    0 -0.58245913674E+02 -0.51342381405E+02  0.13194626749E+03  0.19770933880E+03  0.12510211251E+03 0.  0.
          5    1    3    3  502    0 -0.74084805009E+02 -0.80316744394E+02  0.77981083928E+02  0.13430509899E+03  0.41800000000E+01 0.  1.
         -5    1    3    3    0  502  0.15838891335E+02  0.28974362990E+02  0.53965183557E+02  0.63404239809E+02  0.41800000000E+01 0.  1.
        -11    1    1    2    0    0  0.35226133351E+02  0.48123334232E+02  0.65346747111E-01  0.59638410765E+02  0.00000000000E+00 0.  1.
         11    1    1    2    0    0  0.23019780323E+02  0.32190471730E+01  0.84912772286E+02  0.88036648324E+02  0.00000000000E+00 0. -1.
</event>
<event>
 7    1  0.2564986E-009  0.1108593E+03  0.7561462E-02  0.1258987E+00
         -1   -1    0    0    0  501 -0.00000000000E+00  0.00000000000E+00  0.12007855113E+03  0.12007855113E+03  0.00000000000E+00 0.  1.
          1   -1    0    0  501    0  0.00000000000E+00 -0.00000000000E+00 -0.19037250515E+03  0.19037250515E+03  0.00000000000E+00 0. -1.
         25    2    1    2    0    0 -0.79441156743E+02  0.23490500715E+01 -0.10908654404E+03  0.18402129510E+03  0.12509015765E+03 0.  0.
          5    1    3    3  502    0 -0.90763412327E+02  0.20003988985E+01 -0.13074267777E+03  0.15922662718E+03  0.41800000000E+01 0. -1.
         -5    1    3    3    0  502  0.11322255585E+02  0.34865117304E+00  0.21656133732E+02  0.24794667923E+02  0.41800000000E+01 0. -1.
        -11    1    1    2    0    0  0.92302004568E+02 -0.22363330587E+02  0.38923392551E+02  0.10263921809E+03  0.00000000000E+00 0. -1.
         11    1    1    2    0    0 -0.12860847825E+02  0.20014280515E+02 -0.13080252821E+00  0.23790543092E+02  0.00000000000E+00 0.  1.
</event>
<event>
 7    1  0.2564986E-009  0.1134518E+03  0.7561462E-02  0.1254308E+00
         -3   -1    0    0    0  501 -0.00000000000E+00  0.00000000000E+00  0.10561994987E+03  0.10561994987E+03  0.00000000000E+00 0.  1.
          3   -1    0    0  501    0  0.00000000000E+00 -0.00000000000E+00 -0.13318254875E+03  0.13318254875E+03  0.00000000000E+00 0. -1.
         25    2    1    2    0    0 -0.41133712472E+02 -0.75547989986E+01  0.80432052163E+01  0.13214072090E+03  0.12508964657E+03 0.  0.
          5    1    3    3  502    0 -0.30421437317E+02  0.55589658251E+02 -0.12549607541E+02  0.64735145032E+02  0.41800000000E+01 0.  1.
         -5    1    3    3    0  502 -0.10712275155E+02 -0.63144457250E+02  0.20592812758E+02  0.67405575864E+02  0.41800000000E+01 0.  1.
        -11    1    1    2    0    0  0.69452884847E+02 -0.15397674880E+01 -0.16802735239E+02  0.71473113889E+02  0.00000000000E+00 0.  1.
         11    1    1    2    0    0 -0.28319172375E+02  0.90945664866E+01 -0.18803068862E+02  0.35188663831E+02  0.00000000000E+00 0. -1.
</event>
<event>
 7    1  0.2564986E-009  0.5868127E+02  0.7561462E-02  0.1403451E+00
         -2   -1    0    0    0  501 -0.00000000000E+00  0.00000000000E+00  0.36013729810E+02  0.36013729810E+02  0.00000000000E+00 0.  1.
          2   -1    0    0  501    0  0.00000000000E+00 -0.00000000000E+00 -0.35742470088E+03  0.35742470088E+03  0.00000000000E+00 0. -1.
         25    2    1    2    0    0 -0.26391537229E+02  0.62062863042E+01 -0.22716496154E+03  0.26074087953E+03  0.12508739057E+03 0.  0.
          5    1    3    3  502    0 -0.29206123344E+02  0.14386394826E+02  0.54444719128E+00  0.32828871739E+02  0.41800000000E+01 0.  1.
         -5    1    3    3    0  502  0.28145861151E+01 -0.81801085219E+01 -0.22770940873E+03  0.22791200779E+03  0.41800000000E+01 0.  1.
        -11    1    1    2    0    0 -0.16303682248E+02 -0.23719960795E+02 -0.79026527303E+02  0.84104926208E+02  0.00000000000E+00 0. -1.
         11    1    1    2    0    0  0.42695219478E+02  0.17513674491E+02 -0.15219482227E+02  0.48592624951E+02  0.00000000000E+00 0.  1.
</event>
<event>
 7    1  0.2564986E-009  0.7992757E+02  0.7561462E-02  0.1329257E+00
          1   -1    0    0  501    0  0.00000000000E+00  0.00000000000E+00  0.35902394302E+03  0.35902394302E+03  0.00000000000E+00 0. -1.
         -1   -1    0    0    0  501 -0.00000000000E+00 -0.00000000000E+00 -0.51061166796E+02  0.51061166796E+02  0.00000000000E+00 0.  1.
         25    2    1    2    0    0 -0.72358388865E+02  0.35542453600E+01  0.11805101815E+03  0.18663295596E+03  0.12508976084E+03 0.  0.
          5    1    3    3  502    0 -0.29281645272E+02 -0.51624794013E+01  0.13577835003E+03  0.13905861598E+03  0.41800000000E+01 0. -1.
         -5    1    3    3    0  502 -0.43076743593E+02  0.87167247613E+01 -0.17727331878E+02  0.47574339981E+02  0.41800000000E+01 0. -1.
        -11    1    1    2    0    0  0.46595742928E+02 -0.24348356892E+02  0.30798001815E+02  0.60930473969E+02  0.00000000000E+00 0.  1.
         11    1    1    2    0    0  0.25762645937E+02  0.20794111532E+02  0.15911375626E+03  0.16252167988E+03  0.00000000000E+00 0. -1.
</event>
<event>
 7    1  0.2564986E-009  0.9435180E+02  0.7561462E-02  0.1292643E+00
          2   -1    0    0  501    0  0.00000000000E+00  0.00000000000E+00  0.26762794483E+02  0.26762794483E+02  0.00000000000E+00 0.  1.
         -2   -1    0    0    0  501 -0.00000000000E+00 -0.00000000000E+00 -0.66593906881E+03  0.66593906881E+03  0.00000000000E+00 0. -1.
         25    2    1    2    0    0 -0.14107619141E+02  0.30902486853E+02 -0.27010486301E+03  0.29959884531E+03  0.12509533356E+03 0.  0.
          5    1    3    3  502    0  0.13019102143E+02 -0.60632818300E+00 -0.25469302387E+03  0.25506052902E+03  0.41800000000E+01 0. -1.
         -5    1    3    3    0  502 -0.27126721284E+02  0.31508815036E+02 -0.15411839139E+02  0.44538316293E+02  0.41800000000E+01 0. -1.
        -11    1    1    2    0    0  0.20903031265E+02  0.48878118509E+02 -0.11455048119E+03  0.12628467811E+03  0.00000000000E+00 0.  1.
         11    1    1    2    0    0 -0.67954121245E+01 -0.79780605362E+02 -0.25452093012E+03  0.26681833987E+03  0.00000000000E+00 0. -1.
</event>
<event>
 7    1  0.2564986E-009  0.9179297E+02  0.7561462E-02  0.1298567E+00
          1   -1    0    0  501    0  0.00000000000E+00  0.00000000000E+00  0.77612486279E+02  0.77612486279E+02  0.00000000000E+00 0. -1.
         -1   -1    0    0    0  501 -0.00000000000E+00 -0.00000000000E+00 -0.23138172093E+03  0.23138172093E+03  0.00000000000E+00 0.  1.
         25    2    1    2    0    0  0.13360694585E+02  0.76994934212E+02 -0.76405443952E+02  0.16610637740E+03  0.12508720436E+03 0.  0.
          5    1    3    3  502    0  0.21846316483E+02  0.74806421598E+02 -0.10789057510E+03  0.13315821736E+03  0.41800000000E+01 0. -1.
         -5    1    3    3    0  502 -0.84856218981E+01  0.21885126143E+01  0.31485131149E+02  0.32948160038E+02  0.41800000000E+01 0. -1.
        -11    1    1    2    0    0  0.21849400190E+02 -0.29712104150E+02  0.93355640719E+01  0.38044160896E+02  0.00000000000E+00 0. -1.
         11    1    1    2    0    0 -0.35210094775E+02 -0.47282830062E+02 -0.86699354771E+02  0.10484366891E+03  0.00000000000E+00 0.  1.
</event>
<event>
 7    1  0.2564986E-009  0.1011725E+03  0.7561462E-02  0.1277850E+00
          1   -1    0    0  501    0  0.00000000000E+00  0.00000000000E+00  0.63431868721E+03  0.63431868721E+03  0.00000000000E+00 0. -1.
         -1   -1    0    0    0  501 -0.00000000000E+00 -0.00000000000E+00 -0.30794808442E+02  0.30794808442E+02  0.00000000000E+00 0.  1.
         25    2    1    2    0    0 -0.44242668688E+02 -0.39255251413E+02  0.17202720255E+03  0.22076540687E+03  0.12508244464E+03 0.  0.
          5    1    3    3  502    0  0.17137073665E+02 -0.30019198605E+02  0.15120487131E+03  0.15516190604E+03  0.41800000000E+01 0. -1.
         -5    1    3    3    0  502 -0.61379742353E+02 -0.92360528086E+01  0.20822331247E+02  0.65603500832E+02  0.41800000000E+01 0. -1.
        -11    1    1    2    0    0 -0.12531854753E+02  0.46428019222E+02  0.22406503733E+03  0.22916751363E+03  0.00000000000E+00 0. -1.
         11    1    1    2    0    0  0.56774523441E+02 -0.71727678089E+01  0.20743163889E+03  0.21518057515E+03  0.00000000000E+00 0.  1.
</event>
<event>
 7    1  0.2564986E-009  0.1403784E+03  0.7561462E-02  0.1212821E+00
         -2   -1    0    0    0  501 -0.00000000000E+00  0.00000000000E+00  0.41824735308E+02  0.41824735308E+02  0.00000000000E+00 0. -1.
          2   -1    0    0  501    0  0.00000000000E+00 -0.00000000000E+00 -0.64467761373E+03  0.64467761373E+03  0.00000000000E+00 0.  1.
         25    2    1    2    0    0 -0.11828695468E+02  0.10084414127E+03 -0.18027115530E+03  0.24177316063E+03  0.12508842034E+03 0.  0.
          5    1    3    3  502    0 -0.32898653668E+02 -0.86786038357E+01 -0.59625907390E+01  0.34794603978E+02  0.41800000000E+01 0.  1.
         -5    1    3    3    0  502  0.21069958200E+02  0.10952274511E+03 -0.17430856456E+03  0.20697855665E+03  0.41800000000E+01 0.  1.
        -11    1    1    2    0    0 -0.37555770636E+02 -0.59984561436E+02 -0.17002539808E+03  0.18416628223E+03  0.00000000000E+00 0. -1.
         11    1    1    2    0    0  0.49384466103E+02 -0.40859579834E+02 -0.25255632504E+03  0.26056290618E+03  0.00000000000E+00 0.  1.
</event>
<event>
 7    1  0.2564986E-009  0.2056251E+03  0.7561462E-02  0.1145078E+00
         -1   -1    0    0    0  501 -0.00000000000E+00  0.00000000000E+00  0.64815858231E+02  0.64815858231E+02  0.00000000000E+00 0.  1.
          1   -1    0    0  501    0  0.00000000000E+00 -0.00000000000E+00 -0.84602364054E+03  0.84602364054E+03  0.00000000000E+00 0. -1.
         25    2    1    2    0    0  0.16203461271E+03  0.10990244030E+03 -0.27156196097E+03  0.35739019565E+03  0.12509233071E+03 0.  0.
          5    1    3    3  502    0  0.96962291543E+02  0.64827918263E+02 -0.24896314566E+03  0.27496266158E+03  0.41800000000E+01 0. -1.
         -5    1    3    3    0  502  0.65072321163E+02  0.45074522040E+02 -0.22598815306E+02  0.82427534064E+02  0.41800000000E+01 0. -1.
        -11    1    1    2    0    0 -0.90558287150E+02 -0.81549906079E+01 -0.19638179275E+03  0.21640960184E+03  0.00000000000E+00 0. -1.
         11    1    1    2    0    0 -0.71476325556E+02 -0.10174744969E+03 -0.31326402860E+03  0.33703970129E+03  0.00000000000E+00 0.  1.
</event>
<event>
 7    1  0.2564986E-009  0.1477246E+03  0.7561462E-02  0.1203297E+00
          3   -1    0    0  501    0  0.00000000000E+00  0.00000000000E+00  0.83709485015E+02  0.83709485015E+02  0.00000000000E+00 0. -1.
         -3   -1    0    0    0  501 -0.00000000000E+00 -0.00000000000E+00 -0.39190858799E+03  0.39190858799E+03  0.00000000000E+00 0.  1.
         25    2    1    2    0    0 -0.10743290540E+03 -0.36944817494E+02 -0.55532930099E+02  0.17787135698E+03  0.12509022586E+03 0.  0.
          5    1    3    3  502    0 -0.12237971520E+03 -0.34209143839E+02 -0.75467853294E+01  0.12736359992E+03  0.41800000000E+01 0. -1.
         -5    1    3    3    0  502  0.14946809804E+02 -0.27356736552E+01 -0.47986144769E+02  0.50507757062E+02  0.41800000000E+01 0. -1.
        -11    1    1    2    0    0  0.58616915039E+02  0.71710606516E+02 -0.11542435899E+03  0.14799032557E+03  0.00000000000E+00 0. -1.
         11    1    1    2    0    0  0.48815990361E+02 -0.34765789021E+02 -0.13724181389E+03  0.14975639045E+03  0.00000000000E+00 0.  1.
</event>
<event>
 7    1  0.2564986E-009  0.8981674E+02  0.7561462E-02  0.1303296E+00
          2   -1    0    0  501    0  0.00000000000E+00  0.00000000000E+00  0.10394680942E+04  0.10394680942E+04  0.00000000000E+00 0. -1.
         -2   -1    0    0    0  501 -0.00000000000E+00 -0.00000000000E+00 -0.15087449972E+02  0.15087449972E+02  0.00000000000E+00 0.  1.
         25    2    1    2    0    0 -0.61851319763E+00  0.61067435587E+02  0.58965529039E+03  0.60586305976E+03  0.12508825466E+03 0.  0.
          5    1    3    3  502    0  0.14956899735E+02  0.28672603676E+02  0.55434462552E+03  0.55530285727E+03  0.41800000000E+01 0.  1.
         -5    1    3    3    0  502 -0.15575412933E+02  0.32394831911E+02  0.35310664874E+02  0.50560202496E+02  0.41800000000E+01 0.  1.
        -11    1    1    2    0    0  0.46125564719E+02 -0.23172601346E+02  0.18776076526E+03  0.19472709659E+03  0.00000000000E+00 0.  1.
         11    1    1    2    0    0 -0.45507051521E+02 -0.37894834241E+02  0.24696458855E+03  0.25396538780E+03  0.00000000000E+00 0. -1.
</event>
<event>
 7    1  0.2564986E-009  0.1090795E+03  0.7561462E-02  0.1262284E+00
          2   -1    0    0  501    0  0.00000000000E+00  0.00000000000E+00  0.78879302832E+02  0.78879302832E+02  0.00000000000E+00 0. -1.
         -2   -1    0    0    0  501 -0.00000000000E+00 -0.00000000000E+00 -0.19735758163E+03  0.19735758163E+03  0.00000000000E+00 0.  1.
         25    2    1    2    0    0 -0.43263494639E-01 -0.27835148015E+02 -0.53550391399E+01  0.12826089507E+03  0.12508950165E+03 0.  0.
          5    1    3    3  502    0  0.50456027533E+01 -0.74938552814E+02 -0.21156948699E+02  0.78143033492E+02  0.41800000000E+01 0.  1.
         -5    1    3    3    0  502 -0.50888662480E+01  0.47103404799E+02  0.15801909559E+02  0.50117861577E+02  0.41800000000E+01 0.  1.
        -11    1    1    2    0    0 -0.42413989322E+02 -0.35684877822E+01 -0.48942548987E+02  0.64861804605E+02  0.00000000000E+00 0.  1.
         11    1    1    2    0    0  0.42457252816E+02  0.31403635797E+02 -0.64180690670E+02  0.83114184788E+02  0.00000000000E+00 0. -1.
</event>
<event>
 7    1  0.2564986E-009  0.1125783E+03  0.7561462E-02  0.1255869E+00
         -1   -1    0    0    0  501 -0.00000000000E+00  0.00000000000E+00  0.32323342448E+03  0.32323342448E+03  0.00000000000E+00 0.  1.
          1   -1    0    0  501    0  0.00000000000E+00 -0.00000000000E+00 -0.47343010272E+02  0.47343010272E+02  0.00000000000E+00 0. -1.
         25    2    1    2    0    0  0.25463536717E+01 -0.32286353604E+02  0.80506126197E+02  0.15225665444E+03  0.12510779320E+03 0.  0.
          5    1    3    3  502    0  0.27627907610E+01  0.47673217868E+02  0.40475894611E+02  0.62738657614E+02  0.41800000000E+01 0. -1.
         -5    1    3    3    0  502 -0.21643708929E+00 -0.79959571472E+02  0.40030231586E+02  0.89517996826E+02  0.41800000000E+01 0. -1.
        -11    1    1    2    0    0  0.43286635486E+02  0.44189496630E+01  0.95447090486E+02  0.10489712584E+03  0.00000000000E+00 0.  1.
         11    1    1    2    0    0 -0.45832989157E+02  0.27867403941E+02  0.99937197524E+02  0.11342265447E+03  0.00000000000E+00 0. -1.
</event>
<event>
 7    1  0.2564986E-009  0.1553988E+03  0.7561462E-02  0.1193992E+00
          1   -1    0    0  501    0  0.00000000000E+00  0.00000000000E+00  0.46339978503E+03  0.46339978503E+03  0.00000000000E+00 0. -1.
         -1   -1    0    0    0  501 -0.00000000000E+00 -0.00000000000E+00 -0.72282880207E+02  0.72282880207E+02  0.00000000000E+00 0.  1.
         25    2    1    2    0    0 -0.13741571010E+03 -0.40727978329E+02  0.13208714109E+03  0.23159451127E+03  0.12508860543E+03 0.  0.
          5    1    3    3  502    0 -0.25378710457E+02 -0.35341602939E+02 -0.15320104437E+02  0.46317230516E+02  0.41800000000E+01 0.  1.
         -5    1    3    3    0  502 -0.11203699965E+03 -0.53863753895E+01  0.14740724553E+03  0.18527728076E+03  0.41800000000E+01 0.  1.
        -11    1    1    2    0    0  0.44264247382E+02  0.42934018417E+02  0.69640212293E+02  0.93018346051E+02  0.00000000000E+00 0. -1.
         11    1    1    2    0    0  0.93151462721E+02 -0.22060400890E+01  0.18938955144E+03  0.21106980792E+03  0.00000000000E+00 0.  1.
</event>
<event>
 7    1  0.2564986E-009  0.1108601E+03  0.7561462E-02  0.1258985E+00
         -2   -1    0    0    0  501 -0.00000000000E+00  0.00000000000E+00  0.26155214594E+02  0.26155214594E+02  0.00000000000E+00 0. -1.
          2   -1    0    0  501    0  0.00000000000E+00 -0.00000000000E+00 -0.71684857861E+03  0.71684857861E+03  0.00000000000E+00 0.  1.
         25    2    1    2    0    0 -0.93874920683E+01 -0.79426933224E+02 -0.42999668885E+03  0.45490863931E+03  0.12509178619E+03 0.  0.
          5    1    3    3  502    0 -0.38203054921E+02 -0.97691008117E+00 -0.37907882208E+02  0.53989885091E+02  0.41800000000E+01 0. -1.
         -5    1    3    3    0  502  0.28815562853E+02 -0.78450023143E+02 -0.39208880664E+03  0.40091875422E+03  0.41800000000E+01 0. -1.
        -11    1    1    2    0    0 -0.23680386074E+02  0.17675978424E+02 -0.17469446020E+03  0.17717605742E+03  0.00000000000E+00 0. -1.
         11    1    1    2    0    0  0.33067878142E+02  0.61750954800E+02 -0.86002214974E+02  0.11091909648E+03  0.00000000000E+00 0.  1.
</event>
<event>
 7    1  0.2564986E-009  0.1137697E+03  0.7561462E-02  0.1253744E+00
          1   -1    0    0  501    0  0.00000000000E+00  0.00000000000E+00  0.22168842217E+03  0.22168842217E+03  0.00000000000E+00 0. -1.
         -1   -1    0    0    0  501 -0.00000000000E+00 -0.00000000000E+00 -0.81023456063E+02  0.81023456063E+02  0.00000000000E+00 0.  1.
         25    2    1    2    0    0  0.36101237534E+02 -0.31406571334E+02  0.78685064786E+01  0.13416146897E+03  0.12509082415E+03 0.  0.
          5    1    3    3  502    0  0.78807139483E+02 -0.67989482233E+01 -0.13367958561E+02  0.80330353208E+02  0.41800000000E+01 0.  1.
         -5    1    3    3    0  502 -0.42705901949E+02 -0.24607623110E+02  0.21236465040E+02  0.53831115759E+02  0.41800000000E+01 0.  1.
        -11    1    1    2    0    0  0.21922896166E+02 -0.13275815676E+02  0.14575934934E+02  0.29484208271E+02  0.00000000000E+00 0.  1.
         11    1    1    2    0    0 -0.58024133700E+02  0.44682387010E+02  0.11822052470E+03  0.13906620100E+03  0.00000000000E+00 0. -1.
</event>
<event>
 7    1  0.2564986E-009  0.9889965E+02  0.7561462E-02  0.1282627E+00
         -2   -1    0    0    0  501 -0.00000000000E+00  0.00000000000E+00  0.10572782778E+03  0.10572782778E+03  0.00000000000E+00 0.  1.
          2   -1    0    0  501    0  0.00000000000E+00 -0.00000000000E+00 -0.13946659730E+03  0.13946659730E+03  0.00000000000E+00 0. -1.
         25    2    1    2    0    0 -0.48166799572E+02  0.12856991066E+02  0.11154376006E+02  0.13512611198E+03  0.12509717517E+03 0.  0.
          5    1    3    3  502    0 -0.27613301795E+02 -0.48814193637E+02  0.34443209312E+02  0.65947911295E+02  0.41800000000E+01 0. -1.
         -5    1    3    3    0  502 -0.20553497777E+02  0.61671184703E+02 -0.23288833306E+02  0.69178200687E+02  0.41800000000E+01 0. -1.
        -11    1    1    2    0    0  0.35105230973E+02  0.20461483738E+02  0.12429445835E+02  0.42491654265E+02  0.00000000000E+00 0.  1.
         11    1    1    2    0    0  0.13061568599E+02 -0.33318474804E+02 -0.57322591365E+02  0.67576658828E+02  0.00000000000E+00 0. -1.
</event>
<event>
 7    1  0.2564986E-009  0.1091988E+03  0.7561462E-02  0.1262061E+00
         -1   -1    0    0    0  501 -0.00000000000E+00  0.00000000000E+00  0.11430180334E+03  0.11430180334E+03  0.00000000000E+00 0. -1.
          1   -1    0    0  501    0  0.00000000000E+00 -0.00000000000E+00 -0.12815722363E+03  0.12815722363E+03  0.00000000000E+00 0.  1.
         25    2    1    2    0    0 -0.52407028976E+01  0.35980735397E+02 -0.50004532400E+02  0.13953262120E+03  0.12508725288E+03 0.  0.
          5    1    3    3  502    0 -0.50248598456E+02 -0.18424214973E+02 -0.13830605275E+01  0.53700638735E+02  0.41800000000E+01 0. -1.
         -5    1    3    3    0  502  0.45007895558E+02  0.54404950370E+02 -0.48621471873E+02  0.85831982468E+02  0.41800000000E+01 0. -1.
        -11    1    1    2    0    0  0.39445532607E+02  0.59263335292E+01  0.42169654296E+01  0.40110525666E+02  0.00000000000E+00 0.  1.
         11    1    1    2    0    0 -0.34204829710E+02 -0.41907068926E+02  0.31932146681E+02  0.62815880103E+02  0.00000000000E+00 0. -1.
</event>
<event>
 7    1  0.2564986E-009  0.1713113E+03  0.7561462E-02  0.1176487E+00
         -1   -1    0    0    0  501 -0.00000000000E+00  0.00000000000E+00  0.11655624864E+04  0.11655624864E+04  0.00000000000E+00 0.  1.
          1   -1    0    0  501    0  0.00000000000E+00 -0.00000000000E+00 -0.27580526247E+02  0.27580526247E+02  0.00000000000E+00 0. -1.
         25    2    1    2    0    0 -0.14011439787E+03 -0.73873569619E+01  0.67034311504E+03  0.69620054955E+03  0.12509474722E+03 0.  0.
          5    1    3    3  502    0 -0.52791328185E+02 -0.60287695460E+02  0.21381175117E+03  0.22837352713E+03  0.41800000000E+01 0. -1.
         -5    1    3    3    0  502 -0.87323069680E+02  0.52900338498E+02  0.45653136386E+03  0.46782702241E+03  0.41800000000E+01 0. -1.
        -11    1    1    2    0    0  0.83490659055E+02 -0.33908913934E+02  0.18550337373E+03  0.20623289325E+03  0.00000000000E+00 0. -1.
         11    1    1    2    0    0  0.56623738811E+02  0.41296270896E+02  0.28213547141E+03  0.29070956987E+03  0.00000000000E+00 0.  1.
</event>
<event>
 7    1  0.2564986E-009  0.1484730E+03  0.7561462E-02  0.1202362E+00
         -2   -1    0    0    0  501 -0.00000000000E+00  0.00000000000E+00  0.49797063434E+02  0.49797063434E+02  0.00000000000E+00 0.  1.
          2   -1    0    0  501    0  0.00000000000E+00 -0.00000000000E+00 -0.60159570470E+03  0.60159570470E+03  0.00000000000E+00 0. -1.
         25    2    1    2    0    0 -0.37055038780E+02 -0.12096404744E+03 -0.38168042044E+03  0.42110894835E+03  0.12508967329E+03 0.  0.
          5    1    3    3  502    0 -0.86951035714E+01 -0.13213961771E+03 -0.35961971329E+03  0.38324964968E+03  0.41800000000E+01 0. -1.
         -5    1    3    3    0  502 -0.28359935209E+02  0.11175570271E+02 -0.22060707149E+02  0.37859298671E+02  0.41800000000E+01 0. -1.
        -11    1    1    2    0    0  0.46716031162E+02  0.92486492818E+02 -0.68258988599E+02  0.12407831578E+03  0.00000000000E+00 0.  1.
         11    1    1    2    0    0 -0.96609923817E+01  0.28477554620E+02 -0.10185923223E+03  0.10620550401E+03  0.00000000000E+00 0. -1.
</event>
<event>
 7    1  0.2564986E-009  0.9182341E+02  0.7561462E-02  0.1298495E+00
          1   -1    0    0  501    0  0.00000000000E+00  0.00000000000E+00  0.20332566292E+03  0.20332566292E+03  0.00000000000E+00 0. -1.
         -1   -1    0    0    0  501 -0.00000000000E+00 -0.00000000000E+00 -0.66660095213E+02  0.66660095213E+02  0.00000000000E+00 0.  1.
         25    2    1    2    0    0 -0.21930077144E+01 -0.11035457302E+02  0.12458564833E+03  0.17691024696E+03  0.12509620742E+03 0.  0.
          5    1    3    3  502    0 -0.28955743120E+02  0.37257167401E+02  0.10982546254E+03  0.11960617127E+03  0.41800000000E+01 0.  1.
         -5    1    3    3    0  502  0.26762735406E+02 -0.48292624703E+02  0.14760185784E+02  0.57304075697E+02  0.41800000000E+01 0.  1.
        -11    1    1    2    0    0  0.25028622391E+01  0.45935663410E+02  0.28904196799E+02  0.54330489459E+02  0.00000000000E+00 0. -1.
         11    1    1    2    0    0 -0.30985452472E+00 -0.34900206107E+02 -0.16824277423E+02  0.38745021706E+02  0.00000000000E+00 0.  1.
</event>
<event>
 7    1  0.2564986E-009  0.1000617E+03  0.7561462E-02  0.1280166E+00
          2   -1    0    0  501    0  0.00000000000E+00  0.00000000000E+00  0.58913016044E+03  0.58913016044E+03  0.00000000000E+00 0. -1.
         -2   -1    0    0    0  501 -0.00000000000E+00 -0.00000000000E+00 -0.27003314225E+02  0.27003314225E+02  0.00000000000E+00 0.  1.
         25    2    1    2    0    0 -0.53348376891E+02  0.32783504293E+02  0.29543752814E+03  0.32688260091E+03  0.12509234298E+03 0.  0.
          5    1    3    3  502    0 -0.18383261377E+01 -0.16419707895E+02 -0.52587573156E+01  0.17835727596E+02  0.41800000000E+01 0.  1.
         -5    1    3    3    0  502 -0.51510050753E+02  0.49203212188E+02  0.30069628546E+03  0.30904687331E+03  0.41800000000E+01 0.  1.
        -11    1    1    2    0    0  0.60639130365E+01  0.31413287527E+02  0.85734026829E+02  0.91508956015E+02  0.00000000000E+00 0.  1.
         11    1    1    2    0    0  0.47284463854E+02 -0.64196791819E+02  0.18095529125E+03  0.19774191774E+03  0.00000000000E+00 0. -1.
</event>
<event>
 7    1  0.2564986E-009  0.9901747E+02  0.7561462E-02  0.1282376E+00
         -4   -1    0    0    0  501 -0.00000000000E+00  0.00000000000E+00  0.73511102687E+02  0.73511102687E+02  0.00000000000E+00 0.  1.
          4   -1    0    0  501    0  0.00000000000E+00 -0.00000000000E+00 -0.27285108892E+03  0.27285108892E+03  0.00000000000E+00 0. -1.
         25    2    1    2    0    0 -0.90154960542E+02  0.13399332570E+02 -0.11581569961E+03  0.19331191454E+03  0.12509500791E+03 0.  0.
          5    1    3    3  502    0 -0.12248103047E+02  0.21942945552E+02 -0.11186301332E+03  0.11472713295E+03  0.41800000000E+01 0.  1.
         -5    1    3    3    0  502 -0.77906857495E+02 -0.85436129816E+01 -0.39526862910E+01  0.78584781583E+02  0.41800000000E+01 0.  1.
        -11    1    1    2    0    0  0.66900664056E+02  0.65353324874E+00 -0.10070502143E+03  0.12090338001E+03  0.00000000000E+00 0. -1.
         11    1    1    2    0    0  0.23254296486E+02 -0.14052865819E+02  0.17180734796E+02  0.32146897066E+02  0.00000000000E+00 0.  1.
</event>
<event>
 7    1  0.2564986E-009  0.6202825E+02  0.7561462E-02  0.1389512E+00
          1   -1    0    0  501    0  0.00000000000E+00  0.00000000000E+00  0.11748170926E+03  0.11748170926E+03  0.00000000000E+00 0. -1.
         -1   -1    0    0    0  501 -0.00000000000E+00 -0.00000000000E+00 -0.11354885197E+03  0.11354885197E+03  0.00000000000E+00 0.  1.
         25    2    1    2    0    0 -0.16246770085E+02 -0.26554692664E+02  0.27045843713E+02  0.13171086374E+03  0.12508862748E+03 0.  0.
          5    1    3    3  502    0 -0.26508952358E+02 -0.20635942020E+02 -0.46266978332E+02  0.57329506732E+02  0.41800000000E+01 0. -1.
         -5    1    3    3    0  502  0.10262182273E+02 -0.59187506430E+01  0.73312822045E+02  0.74381357008E+02  0.41800000000E+01 0. -1.
        -11    1    1    2    0    0  0.38822215172E+02  0.36209393559E+02 -0.42525109338E+02  0.68019625823E+02  0.00000000000E+00 0.  1.
         11    1    1    2    0    0 -0.22575445087E+02 -0.96547008959E+01  0.19412122919E+02  0.31300071669E+02  0.00000000000E+00 0. -1.
</event>
<event>
 7    1  0.2564986E-009  0.4375755E+03  0.7561462E-02  0.1031493E+00
         -2   -1    0    0    0  501 -0.00000000000E+00  0.00000000000E+00  0.39055764790E+03  0.39055764790E+03  0.00000000000E+00 0.  1.
          2   -1    0    0  501    0  0.00000000000E+00 -0.00000000000E+00 -0.93693837120E+03  0.93693837120E+03  0.00000000000E+00 0. -1.
         25    2    1    2    0    0 -0.40145495790E+03 -0.14005551994E+03 -0.73083835153E+03  0.85472425405E+03  0.12508885842E+03 0.  0.
          5    1    3    3  502    0 -0.25107716459E+03 -0.28681112695E+02 -0.47041611044E+03  0.53401417412E+03  0.41800000000E+01 0. -1.
         -5    1    3    3    0  502 -0.15037779331E+03 -0.11137440724E+03 -0.26042224109E+03  0.32071007992E+03  0.41800000000E+01 0. -1.
        -11    1    1    2    0    0  0.43960065363E+02  0.49978791474E+02  0.31355613978E+02  0.73576772638E+02  0.00000000000E+00 0. -1.
         11    1    1    2    0    0  0.35749489254E+03  0.90076728464E+02  0.15310201425E+03  0.39919499242E+03  0.00000000000E+00 0.  1.
</event>
<event>
 7    1  0.2564986E-009  0.2417840E+03  0.7561462E-02  0.1118610E+00
          1   -1    0    0  501    0  0.00000000000E+00  0.00000000000E+00  0.31463929904E+03  0.31463929904E+03  0.00000000000E+00 0. -1.
         -1   -1    0    0    0  501 -0.00000000000E+00 -0.00000000000E+00 -0.21450615516E+03  0.21450615516E+03  0.00000000000E+00 0.  1.
         25    2    1    2    0    0  0.96341230349E+02  0.20785058542E+03  0.10321204324E+03  0.28068437977E+03  0.12508995424E+03 0.  0.
          5    1    3    3  502    0  0.42824839629E+01  0.68384159163E+02 -0.21714919332E+02  0.71998215359E+02  0.41800000000E+01 0.  1.
         -5    1    3    3    0  502  0.92058746386E+02  0.13946642626E+03  0.12492696257E+03  0.20868616441E+03  0.41800000000E+01 0.  1.
        -11    1    1    2    0    0 -0.67772447919E+02 -0.20844466974E+03  0.31805155800E+01  0.21920857811E+03  0.00000000000E+00 0.  1.
         11    1    1    2    0    0 -0.28568782430E+02  0.59408431897E+00 -0.62594149421E+01  0.29252496323E+02  0.00000000000E+00 0. -1.
</event>
<event>
 7    1  0.2564986E-009  0.2052109E+03  0.7561462E-02  0.1145416E+00
         -2   -1    0    0    0  501 -0.00000000000E+00  0.00000000000E+00  0.15936833868E+03  0.15936833868E+03  0.00000000000E+00 0.  1.
          2   -1    0    0  501    0  0.00000000000E+00 -0.00000000000E+00 -0.31116987523E+03  0.31116987523E+03  0.00000000000E+00 0. -1.
         25    2    1    2    0    0 -0.16532490544E+03 -0.99385384724E+02 -0.64512320892E+02  0.23878687554E+03  0.12509018078E+03 0.  0.
          5    1    3    3  502    0 -0.11723977119E+03 -0.92129784265E+02 -0.98994499606E+02  0.17902637920E+03  0.41800000000E+01 0. -1.
         -5    1    3    3    0  502 -0.48085134252E+02 -0.72556004586E+01  0.34482178714E+02  0.59760496341E+02  0.41800000000E+01 0. -1.
        -11    1    1    2    0    0  0.66597747890E+02  0.91821552280E+02 -0.29896904062E+02  0.11730422993E+03  0.00000000000E+00 0.  1.
         11    1    1    2    0    0  0.98727157553E+02  0.75638324443E+01 -0.57392311589E+02  0.11444710844E+03  0.00000000000E+00 0. -1.
</event>
<event>
 7    1  0.2564986E-009  0.1948429E+03  0.7561462E-02  0.1154164E+00
          3   -1    0    0  501    0  0.00000000000E+00  0.00000000000E+00  0.65076184679E+03  0.65076184679E+03  0.00000000000E+00 0. -1.
         -3   -1    0    0    0  501 -0.00000000000E+00 -0.00000000000E+00 -0.74291778504E+02  0.74291778504E+02  0.00000000000E+00 0.  1.
         25    2    1    2    0    0 -0.65243704651E+02  0.17745213311E+03  0.34205881014E+03  0.41036340505E+03  0.12509154275E+03 0.  0.
          5    1    3    3  502    0  0.72983936858E+01  0.69718084388E+02  0.22416042583E+03  0.23490263249E+03  0.41800000000E+01 0. -1.
         -5    1    3    3    0  502 -0.72542098336E+02  0.10773404872E+03  0.11789838431E+03  0.17546077256E+03  0.41800000000E+01 0. -1.
        -11    1    1    2    0    0  0.21787184409E+02 -0.42846253752E+02  0.13080661741E+03  0.13935872424E+03  0.00000000000E+00 0. -1.
         11    1    1    2    0    0  0.43456520241E+02 -0.13460587935E+03  0.10360464073E+03  0.17533149600E+03  0.00000000000E+00 0.  1.
</event>
<event>
 7    1  0.2564986E-009  0.1847796E+03  0.7561462E-02  0.1163256E+00
          4   -1    0    0  501    0  0.00000000000E+00  0.00000000000E+00  0.18149098271E+03  0.18149098271E+03  0.00000000000E+00 0.  1.
         -4   -1    0    0    0  501 -0.00000000000E+00 -0.00000000000E+00 -0.23012163385E+03  0.23012163385E+03  0.00000000000E+00 0. -1.
         25    2    1    2    0    0 -0.13684770870E+03 -0.90294218066E+02  0.29148297416E+02  0.20826901926E+03  0.12508405154E+03 0.  0.
          5    1    3    3  502    0 -0.10867709827E+03  0.43706005957E+00 -0.16265355522E+00  0.10875845515E+03  0.41800000000E+01 0. -1.
         -5    1    3    3    0  502 -0.28170610422E+02 -0.90731278126E+02  0.29310950971E+02  0.99510564106E+02  0.41800000000E+01 0. -1.
        -11    1    1    2    0    0  0.93511544462E+01  0.14880296557E+02  0.19403673070E+02  0.26179569204E+02  0.00000000000E+00 0.  1.
         11    1    1    2    0    0  0.12749655425E+03  0.75413921509E+02 -0.97182621628E+02  0.17716402809E+03  0.00000000000E+00 0. -1.
</event>
<event>
 7    1  0.2564986E-009  0.7162225E+02  0.7561462E-02  0.1354662E+00
         -1   -1    0    0    0  501 -0.00000000000E+00  0.00000000000E+00  0.30754894049E+02  0.30754894049E+02  0.00000000000E+00 0.  1.
          1   -1    0    0  501    0  0.00000000000E+00 -0.00000000000E+00 -0.49407105197E+03  0.49407105197E+03  0.00000000000E+00 0. -1.
         25    2    1    2    0    0  0.25912936926E+02 -0.36067840153E+02 -0.34249386233E+03  0.36731709069E+03  0.12508968777E+03 0.  0.
          5    1    3    3  502    0  0.12010020258E+02  0.45396467014E+00 -0.32335135100E+03  0.32360163051E+03  0.41800000000E+01 0.  1.
         -5    1    3    3    0  502  0.13902916668E+02 -0.36521804823E+02 -0.19142511329E+02  0.43715460187E+02  0.41800000000E+01 0.  1.
        -11    1    1    2    0    0  0.18651528388E+02  0.42291110449E+02 -0.27190164503E+02  0.53625764143E+02  0.00000000000E+00 0.  1.
         11    1    1    2    0    0 -0.44564465314E+02 -0.62232702965E+01 -0.93632131084E+02  0.10388309118E+03  0.00000000000E+00 0. -1.
</event>
<event>
 7    1  0.2564986E-009  0.7234288E+02  0.7561462E-02  0.1352302E+00
          2   -1    0    0  501    0  0.00000000000E+00  0.00000000000E+00  0.47026973524E+03  0.47026973524E+03  0.00000000000E+00 0. -1.
         -2   -1    0    0    0  501 -0.00000000000E+00 -0.00000000000E+00 -0.33432711124E+02  0.33432711124E+02  0.00000000000E+00 0.  1.
         25    2    1    2    0    0 -0.64195489857E+01 -0.19036100183E+02  0.36447178124E+03  0.38586312475E+03  0.12508832080E+03 0.  0.
          5    1    3    3  502    0  0.44587024595E+02 -0.37155845994E+02  0.98475455677E+02  0.11438289831E+03  0.41800000000E+01 0. -1.
         -5    1    3    3    0  502 -0.51006573581E+02  0.18119745811E+02  0.26599632557E+03  0.27148022645E+03  0.41800000000E+01 0. -1.
        -11    1    1    2    0    0 -0.97789123997E+01  0.71603164623E+01 -0.19961583132E+02  0.23352988261E+02  0.00000000000E+00 0.  1.
         11    1    1    2    0    0  0.16198461385E+02  0.11875783721E+02  0.92326826001E+02  0.94486333349E+02  0.00000000000E+00 0. -1.
</event>
<event>
 7    1  0.2564986E-009  0.1071131E+03  0.7561462E-02  0.1266011E+00
         -2   -1    0    0    0  501 -0.00000000000E+00  0.00000000000E+00  0.47206606675E+02  0.47206606675E+02  0.00000000000E+00 0.  1.
          2   -1    0    0  501    0  0.00000000000E+00 -0.00000000000E+00 -0.27597972282E+03  0.27597972282E+03  0.00000000000E+00 0. -1.
         25    2    1    2    0    0  0.15758902010E+02 -0.14120598726E+02 -0.14915646472E+03  0.19581038030E+03  0.12508524998E+03 0.  0.
          5    1    3    3  502    0  0.66133086355E+02 -0.29358267456E+02 -0.70735000665E+02  0.10127391420E+03  0.41800000000E+01 0.  1.
         -5    1    3    3    0  502 -0.50374184344E+02  0.15237668730E+02 -0.78421464056E+02  0.94536466093E+02  0.41800000000E+01 0.  1.
        -11    1    1    2    0    0 -0.36249748955E+02 -0.25519548074E+02 -0.11252724291E+02  0.45737462076E+02  0.00000000000E+00 0.  1.
         11    1    1    2    0    0  0.20490846944E+02  0.39640146800E+02 -0.68363927129E+02  0.81638487121E+02  0.00000000000E+00 0. -1.
</event>
<event>
 7    1  0.2564986E-009  0.1059801E+03  0.7561462E-02  0.1268201E+00
         -2   -1    0    0    0  501 -0.00000000000E+00  0.00000000000E+00  0.42958274780E+03  0.42958274780E+03  0.00000000000E+00 0.  1.
          2   -1    0    0  501    0  0.00000000000E+00 -0.00000000000E+00 -0.40713581937E+02  0.40713581937E+02  0.00000000000E+00 0. -1.
         25    2    1    2    0    0 -0.39692553321E+02 -0.11174922642E+02  0.31742986326E+03  0.34366981679E+03  0.12508735826E+03 0.  0.
          5    1    3    3  502    0  0.17660207224E+02 -0.44216407746E+02  0.54430494897E+02  0.72437040303E+02  0.41800000000E+01 0. -1.
         -5    1    3    3    0  502 -0.57352760545E+02  0.33041485104E+02  0.26299936837E+03  0.27123277649E+03  0.41800000000E+01 0. -1.
        -11    1    1    2    0    0  0.41228667109E+02  0.46693807636E+02  0.65839028547E+02  0.90636043289E+02  0.00000000000E+00 0. -1.
         11    1    1    2    0    0 -0.15361137879E+01 -0.35518884993E+02  0.56002740531E+01  0.35990469658E+02  0.00000000000E+00 0.  1.
</event>
<event>
 7    1  0.2564986E-009  0.1536646E+03  0.7561462E-02  0.1196041E+00
         -1   -1    0    0    0  501 -0.00000000000E+00  0.00000000000E+00  0.23121405258E+03  0.23121405258E+03  0.00000000000E+00 0.  1.
          1   -1    0    0  501    0  0.00000000000E+00 -0.00000000000E+00 -0.13109126633E+03  0.13109126633E+03  0.00000000000E+00 0. -1.
         25    2    1    2    0    0  0.11649346089E+03 -0.37866299538E+01 -0.25038054381E+02  0.17280178519E+03  0.12509391592E+03 0.  0.
          5    1    3    3  502    0  0.11843966059E+03 -0.46601253726E+02 -0.24801031601E+02  0.12973894411E+03  0.41800000000E+01 0.  1.
         -5    1    3    3    0  502 -0.19461997037E+01  0.42814623772E+02 -0.23702278014E+00  0.43062841080E+02  0.41800000000E+01 0.  1.
        -11    1    1    2    0    0 -0.82238089371E+01 -0.23809264132E+02  0.54890780270E+01  0.25780653008E+02  0.00000000000E+00 0.  1.
         11    1    1    2    0    0 -0.10826965195E+03  0.27595894086E+02  0.11967176261E+03  0.16372288072E+03  0.00000000000E+00 0. -1.
</event>
<event>
 7    1  0.2564986E-009  0.1039964E+03  0.7561462E-02  0.1272110E+00
          1   -1    0    0  501    0  0.00000000000E+00  0.00000000000E+00  0.58240932803E+02  0.58240932803E+02  0.00000000000E+00 0. -1.
         -1   -1    0    0    0  501 -0.00000000000E+00 -0.00000000000E+00 -0.21761693860E+03  0.21761693860E+03  0.00000000000E+00 0.  1.
         25    2    1    2    0    0  0.14855907090E+02  0.16084617349E+02 -0.59856738251E+02  0.14039125820E+03  0.12508982122E+03 0.  0.
          5    1    3    3  502    0 -0.10028063028E+02  0.63305959090E+02 -0.58430742539E+02  0.86832197819E+02  0.41800000000E+01 0. -1.
         -5    1    3    3    0  502  0.24883970119E+02 -0.47221341740E+02 -0.14259957116E+01  0.53559060376E+02  0.41800000000E+01 0. -1.
        -11    1    1    2    0    0  0.11289685246E+02 -0.47801755568E+02 -0.41149211847E+02  0.64075911729E+02  0.00000000000E+00 0.  1.
         11    1    1    2    0    0 -0.26145592337E+02  0.31717138219E+02 -0.58370055701E+02  0.71390701481E+02  0.00000000000E+00 0. -1.
</event>
<event>
 7    1  0.2564986E-009  0.1521114E+03  0.7561462E-02  0.1197902E+00
          2   -1    0    0  501    0  0.00000000000E+00  0.00000000000E+00  0.13784045492E+03  0.13784045492E+03  0.00000000000E+00 0. -1.
         -2   -1    0    0    0  501 -0.00000000000E+00 -0.00000000000E+00 -0.28971264422E+03  0.28971264422E+03  0.00000000000E+00 0.  1.
         25    2    1    2    0    0  0.13353586820E+03 -0.43434621541E+02  0.17936972511E+02  0.18891388920E+03  0.12509327762E+03 0.  0.
          5    1    3    3  502    0  0.37265610385E+02 -0.23264414689E+02  0.65972128625E+02  0.79370982503E+02  0.41800000000E+01 0.  1.
         -5    1    3    3    0  502  0.96270257817E+02 -0.20170206852E+02 -0.48035156114E+02  0.10954290670E+03  0.41800000000E+01 0.  1.
        -11    1    1    2    0    0 -0.90854592366E+02  0.67001522418E+02 -0.86919177962E+02  0.14247352195E+03  0.00000000000E+00 0. -1.
         11    1    1    2    0    0 -0.42681275836E+02 -0.23566900877E+02 -0.82889983843E+02  0.96165687984E+02  0.00000000000E+00 0.  1.
</event>
<event>
 7    1  0.2564986E-009  0.9025026E+02  0.7561462E-02  0.1302247E+00
         -4   -1    0    0    0  501 -0.00000000000E+00  0.00000000000E+00  0.37127754510E+03  0.37127754510E+03  0.00000000000E+00 0. -1.
          4   -1    0    0  501    0  0.00000000000E+00 -0.00000000000E+00 -0.52306104796E+02  0.52306104796E+02  0.00000000000E+00 0.  1.
         25    2    1    2    0    0 -0.32401084784E+02  0.38713944354E+02  0.30456928965E+03  0.33310342263E+03  0.12508732224E+03 0.  0.
          5    1    3    3  502    0 -0.25871302467E+02 -0.20475079556E+02  0.25007268156E+03  0.25227439751E+03  0.41800000000E+01 0.  1.
         -5    1    3    3    0  502 -0.65297823166E+01  0.59189023910E+02  0.54496608092E+02  0.80829025121E+02  0.41800000000E+01 0.  1.
        -11    1    1    2    0    0  0.55461574453E+02 -0.27052655851E+02  0.18099424627E+01  0.61734174662E+02  0.00000000000E+00 0. -1.
         11    1    1    2    0    0 -0.23060489669E+02 -0.11661288503E+02  0.12592208187E+02  0.28746052605E+02  0.00000000000E+00 0.  1.
</event>
<event>
 7    1  0.2564986E-009  0.1293797E+03  0.7561462E-02  0.1228379E+00
          3   -1    0    0  501    0  0.00000000000E+00  0.00000000000E+00  0.55232988040E+02  0.55232988040E+02  0.00000000000E+00 0. -1.
         -3   -1    0    0    0  501 -0.00000000000E+00 -0.00000000000E+00 -0.63047726641E+03  0.63047726641E+03  0.00000000000E+00 0.  1.
         25    2    1    2    0    0 -0.87929583960E+02 -0.62074326120E+02 -0.10712734107E+03  0.19674552288E+03  0.12509076653E+03 0.  0.
          5    1    3    3  502    0 -0.45632451386E+02  0.68255390212E+01  0.16321423252E+02  0.49119953780E+02  0.41800000000E+01 0.  1.
         -5    1    3    3    0  502 -0.42297132574E+02 -0.68899865141E+02 -0.12344876432E+03  0.14762556910E+03  0.41800000000E+01 0.  1.
        -11    1    1    2    0    0  0.91561793860E+02  0.25948820463E+02 -0.40609374483E+03  0.41709595175E+03  0.00000000000E+00 0.  1.
         11    1    1    2    0    0 -0.36322099002E+01  0.36125505657E+02 -0.62023192472E+02  0.71868779816E+02  0.00000000000E+00 0. -1.
</event>
<event>
 7    1  0.2564986E-009  0.1729483E+03  0.7561462E-02  0.1174808E+00
         -2   -1    0    0    0  501 -0.00000000000E+00  0.00000000000E+00  0.82980522216E+02  0.82980522216E+02  0.00000000000E+00 0.  1.
          2   -1    0    0  501    0  0.00000000000E+00 -0.00000000000E+00 -0.37814777112E+03  0.37814777112E+03  0.00000000000E+00 0. -1.
         25    2    1    2    0    0 -0.13917789846E+03 -0.88020707232E+00 -0.11870074322E+03  0.22159993044E+03  0.12508157556E+03 0.  0.
          5    1    3    3  502    0 -0.56018952226E+02 -0.59760458429E+02 -0.73191984614E+02  0.10992713228E+03  0.41800000000E+01 0.  1.
         -5    1    3    3    0  502 -0.83158946231E+02  0.58880251357E+02 -0.45508758607E+02  0.11167279816E+03  0.41800000000E+01 0.  1.
        -11    1    1    2    0    0  0.12630532327E+03  0.30211214604E+02 -0.13874942148E+03  0.19004513709E+03  0.00000000000E+00 0. -1.
         11    1    1    2    0    0  0.12872575191E+02 -0.29331007532E+02 -0.37717084210E+02  0.49483225807E+02  0.00000000000E+00 0.  1.
</event>
<event>
 7    1  0.2564986E-009  0.1624703E+03  0.7561462E-02  0.1185936E+00
         -1   -1    0    0    0  501 -0.00000000000E+00  0.00000000000E+00  0.36182452071E+02  0.36182452071E+02  0.00000000000E+00 0. -1.
          1   -1    0    0  501    0  0.00000000000E+00 -0.00000000000E+00 -0.79934442080E+03  0.79934442080E+03  0.00000000000E+00 0.  1.
         25    2    1    2    0    0 -0.38508113753E+02 -0.12470631756E+03 -0.42614398391E+03  0.46290418193E+03  0.12508815357E+03 0.  0.
          5    1    3    3  502    0  0.41671668794E+02 -0.72698484942E+02 -0.22608977068E+03  0.24115483512E+03  0.41800000000E+01 0.  1.
         -5    1    3    3    0  502 -0.80179782547E+02 -0.52007832621E+02 -0.20005421323E+03  0.22174934682E+03  0.41800000000E+01 0.  1.
        -11    1    1    2    0    0  0.43240963296E+02  0.35222094939E+02 -0.62090574661E+02  0.83460268035E+02  0.00000000000E+00 0. -1.
         11    1    1    2    0    0 -0.47328495428E+01  0.89484222624E+02 -0.27492741016E+03  0.28916242290E+03  0.00000000000E+00 0.  1.
</event>
<event>
 7    1  0.2564986E-009  0.1231248E+03  0.7561462E-02  0.1238029E+00
         -1   -1    0    0    0  501 -0.00000000000E+00  0.00000000000E+00  0.91436169313E+02  0.91436169313E+02  0.00000000000E+00 0.  1.
          1   -1    0    0  501    0  0.00000000000E+00 -0.00000000000E+00 -0.24016835505E+03  0.24016835505E+03  0.00000000000E+00 0. -1.
         25    2    1    2    0    0 -0.67652519545E+01 -0.91099732961E+02 -0.32132599285E+02  0.15819315732E+03  0.12509053164E+03 0.  0.
          5    1    3    3  502    0  0.43162490866E+02 -0.82029129459E+02 -0.48516997689E+02  0.10470506274E+03  0.41800000000E+01 0. -1.
         -5    1    3    3    0  502 -0.49927742821E+02 -0.90706035017E+01  0.16384398404E+02  0.53488094583E+02  0.41800000000E+01 0. -1.
        -11    1    1    2    0    0  0.16003972337E+02  0.62271589033E+01  0.10626867697E+02  0.20194924007E+02  0.00000000000E+00 0.  1.
         11    1    1    2    0    0 -0.92387203828E+01  0.84872574058E+02 -0.12722645415E+03  0.15321644303E+03  0.00000000000E+00 0. -1.
</event>
<event>
 7    1  0.2564986E-009  0.1600622E+03  0.7561462E-02  0.1188627E+00
          1   -1    0    0  501    0  0.00000000000E+00  0.00000000000E+00  0.71206846488E+03  0.71206846488E+03  0.00000000000E+00 0. -1.
         -1   -1    0    0    0  501 -0.00000000000E+00 -0.00000000000E+00 -0.39552752190E+02  0.39552752190E+02  0.00000000000E+00 0.  1.
         25    2    1    2    0    0  0.67920730325E+02  0.10921113485E+03  0.32906349790E+03  0.37479379434E+03  0.12508918834E+03 0.  0.
          5    1    3    3  502    0  0.27785775703E+02 -0.25063717402E+02  0.91458359405E+02  0.98905728684E+02  0.41800000000E+01 0. -1.
         -5    1    3    3    0  502  0.40134954622E+02  0.13427485225E+03  0.23760513850E+03  0.27588806565E+03  0.41800000000E+01 0. -1.
        -11    1    1    2    0    0 -0.32434462216E+02 -0.10066875774E+03  0.30913947089E+03  0.32673139670E+03  0.00000000000E+00 0.  1.
         11    1    1    2    0    0 -0.35486268109E+02 -0.85423771039E+01  0.34312743896E+02  0.50096026036E+02  0.00000000000E+00 0. -1.
</event>
<event>
 7    1  0.2564986E-009  0.7874306E+02  0.7561462E-02  0.1332657E+00
          1   -1    0    0  501    0  0.00000000000E+00  0.00000000000E+00  0.14539737793E+03  0.14539737793E+03  0.00000000000E+00 0. -1.
         -1   -1    0    0    0  501 -0.00000000000E+00 -0.00000000000E+00 -0.85572397182E+02  0.85572397182E+02  0.00000000000E+00 0.  1.
         25    2    1    2    0    0  0.64512592669E+01  0.25996612395E+02  0.45404354023E+02  0.13574505714E+03  0.12509085726E+03 0.  0.
          5    1    3    3  502    0  0.32704148414E+02  0.74703287341E+01  0.80902955055E+02  0.87681968908E+02  0.41800000000E+01 0.  1.
         -5    1    3    3    0  502 -0.26252889147E+02  0.18526283661E+02 -0.35498601032E+02  0.48063088229E+02  0.41800000000E+01 0.  1.
        -11    1    1    2    0    0  0.52596716948E+01 -0.57462852489E+02 -0.22336023467E+01  0.57746277300E+02  0.00000000000E+00 0.  1.
         11    1    1    2    0    0 -0.11710930962E+02  0.31466240094E+02  0.16654229072E+02  0.37478440677E+02  0.00000000000E+00 0. -1.
</event>
<event>
 7    1  0.2564986E-009  0.1175610E+03  0.7561462E-02  0.1247176E+00
         -2   -1    0    0    0  501 -0.00000000000E+00  0.00000000000E+00  0.18307964024E+02  0.18307964024E+02  0.00000000000E+00 0.  1.
          2   -1    0    0  501    0  0.00000000000E+00 -0.00000000000E+00 -0.10937040636E+04  0.10937040636E+04  0.00000000000E+00 0. -1.
         25    2    1    2    0    0  0.68839896226E+02 -0.49954765551E+02 -0.70139773182E+03  0.71752362886E+03  0.12508784856E+03 0.  0.
          5    1    3    3  502    0 -0.10240246771E+02 -0.24332587250E+02 -0.26940084138E+02  0.37949677068E+02  0.41800000000E+01 0.  1.
         -5    1    3    3    0  502  0.79080142997E+02 -0.25622178301E+02 -0.67445764768E+03  0.67957395179E+03  0.41800000000E+01 0.  1.
        -11    1    1    2    0    0 -0.81419660327E+02  0.65973398029E+02 -0.30202160222E+03  0.31968531174E+03  0.00000000000E+00 0. -1.
         11    1    1    2    0    0  0.12579764101E+02 -0.16018632478E+02 -0.71976765526E+02  0.74803087015E+02  0.00000000000E+00 0.  1.
</event>
<event>
 7    1  0.2564986E-009  0.1538253E+03  0.7561462E-02  0.1195850E+00
          3   -1    0    0  501    0  0.00000000000E+00  0.00000000000E+00  0.19010558010E+03  0.19010558010E+03  0.00000000000E+00 0. -1.
         -3   -1    0    0    0  501 -0.00000000000E+00 -0.00000000000E+00 -0.25934824224E+03  0.25934824224E+03  0.00000000000E+00 0.  1.
         25    2    1    2    0    0  0.12941788414E+03  0.53249322506E+02  0.99086052615E+02  0.21224983516E+03  0.12508983819E+03 0.  0.
          5    1    3    3  502    0  0.32278297783E+02  0.29048833680E+01 -0.29038146245E+02  0.43715136881E+02  0.41800000000E+01 0. -1.
         -5    1    3    3    0  502  0.97139586355E+02  0.50344439138E+02  0.12812419886E+03  0.16853469828E+03  0.41800000000E+01 0. -1.
        -11    1    1    2    0    0 -0.48654237054E+02 -0.67767718570E+02 -0.10143578151E+03  0.13133512947E+03  0.00000000000E+00 0.  1.
         11    1    1    2    0    0 -0.80763647084E+02  0.14518396063E+02 -0.66892933251E+02  0.10586885771E+03  0.00000000000E+00 0. -1.
</event>
<event>
 7    1  0.2564986E-009  0.1055988E+03  0.7561462E-02  0.1268944E+00
          2   -1    0    0  501    0  0.00000000000E+00  0.00000000000E+00  0.41585205733E+03  0.41585205733E+03  0.00000000000E+00 0. -1.
         -2   -1    0    0    0  501 -0.00000000000E+00 -0.00000000000E+00 -0.38105257242E+02  0.38105257242E+02  0.00000000000E+00 0.  1.
         25    2    1    2    0    0  0.27532750054E+02 -0.51913017794E+02  0.16148981189E+03  0.21255431970E+03  0.12508943095E+03 0.  0.
          5    1    3    3  502    0  0.56902353941E+02 -0.71457768356E+02  0.14914536613E+03  0.17494542915E+03  0.41800000000E+01 0. -1.
         -5    1    3    3    0  502 -0.29369603887E+02  0.19544750563E+02  0.12344445762E+02  0.37608890548E+02  0.41800000000E+01 0. -1.
        -11    1    1    2    0    0  0.19113569829E+02  0.10255991553E+02  0.66842021612E+01  0.22697851724E+02  0.00000000000E+00 0.  1.
         11    1    1    2    0    0 -0.46646319883E+02  0.41657026241E+02  0.20957278604E+03  0.21870514315E+03  0.00000000000E+00 0. -1.
</event>
<event>
 7    1  0.3823809E-009  0.1237097E+03  0.7561462E-02  0.1237100E+00
         -2   -1    0    0    0  501 -0.00000000000E+00  0.00000000000E+00  0.17664979824E+02  0.17664979824E+02  0.00000000000E+00 0.  1.
          2   -1    0    0  501    0  0.00000000000E+00 -0.00000000000E+00 -0.10278397281E+04  0.10278397281E+04  0.00000000000E+00 0. -1.
         25    2    1    2    0    0 -0.46388240745E+02  0.63991696033E+02 -0.60301723532E+03  0.62090622116E+03  0.12509173969E+03 0.  0.
          5    1    3    3  502    0  0.42610158215E+02  0.24899078666E+02 -0.24140896220E+03  0.24643731279E+03  0.41800000000E+01 0.  1.
         -5    1    3    3    0  502 -0.88998398960E+02  0.39092617367E+02 -0.36160827312E+03  0.37446890838E+03  0.41800000000E+01 0.  1.
        -11    1    1    2    0    0  0.61031990774E+02 -0.41675435134E+02 -0.37763498614E+03  0.38479855581E+03  0.00000000000E+00 0. -1.
         11    1    1    2    0    0 -0.14643750030E+02 -0.22316260899E+02 -0.29522526836E+02  0.39799930983E+02  0.00000000000E+00 0.  1.
</event>
<event>
 7    1  0.2564986E-009  0.8393319E+02  0.7561462E-02  0.1318246E+00
         -2   -1    0    0    0  501 -0.00000000000E+00  0.00000000000E+00  0.73821031326E+02  0.73821031326E+02  0.00000000000E+00 0.  1.
          2   -1    0    0  501    0  0.00000000000E+00 -0.00000000000E+00 -0.17680694403E+03  0.17680694403E+03  0.00000000000E+00 0. -1.
         25    2    1    2    0    0 -0.24584984507E+02  0.20370492290E+02 -0.44618577946E+02  0.13659833170E+03  0.12509559667E+03 0.  0.
          5    1    3    3  502    0 -0.47182614357E+02  0.17778254057E+02  0.29766687695E+02  0.58700881691E+02  0.41800000000E+01 0.  1.
         -5    1    3    3    0  502  0.22597629850E+02  0.25922382332E+01 -0.74385265641E+02  0.77897450012E+02  0.41800000000E+01 0.  1.
        -11    1    1    2    0    0 -0.27395670690E+02  0.15037457334E+02 -0.35032379456E+02  0.46945878477E+02  0.00000000000E+00 0. -1.
         11    1    1    2    0    0  0.51980655197E+02 -0.35407949624E+02 -0.23334955301E+02  0.67083765176E+02  0.00000000000E+00 0.  1.
</event>
<event>
 7    1  0.2564986E-009  0.1093586E+03  0.7561462E-02  0.1261762E+00
          1   -1    0    0  501    0  0.00000000000E+00  0.00000000000E+00  0.33098806376E+02  0.33098806376E+02  0.00000000000E+00 0. -1.
         -1   -1    0    0    0  501 -0.00000000000E+00 -0.00000000000E+00 -0.70600002767E+03  0.70600002767E+03  0.00000000000E+00 0.  1.
         25    2    1    2    0    0 -0.41793818899E+02  0.87212191172E+02 -0.47777817575E+03  0.50326115154E+03  0.12508841607E+03 0.  0.
          5    1    3    3  502    0 -0.13032620724E+02  0.40210148868E+02 -0.42409674859E+03  0.42621852357E+03  0.41800000000E+01 0. -1.
         -5    1    3    3    0  502 -0.28761198175E+02  0.47002042305E+02 -0.53681427165E+02  0.77042627965E+02  0.41800000000E+01 0. -1.
        -11    1    1    2    0    0  0.62616359123E+02 -0.60076883612E+02 -0.17700516246E+03  0.19713160049E+03  0.00000000000E+00 0.  1.
         11    1    1    2    0    0 -0.20822540224E+02 -0.27135307561E+02 -0.18117883082E+02  0.38706082018E+02  0.00000000000E+00 0. -1.
</event>
<event>
 7    1  0.2564986E-009  0.9337402E+02  0.7561462E-02  0.1294881E+00
         -2   -1    0    0    0  501 -0.00000000000E+00  0.00000000000E+00  0.32653464064E+02  0.32653464064E+02  0.00000000000E+00 0.  1.
          2   -1    0    0  501    0  0.00000000000E+00 -0.00000000000E+00 -0.41044147883E+03  0.41044147883E+03  0.00000000000E+00 0. -1.
         25    2    1    2    0    0 -0.42382930302E+02  0.18810276820E+02 -0.20489972903E+03  0.24449975259E+03  0.12508433462E+03 0.  0.
          5    1    3    3  502    0  0.31547608990E+01 -0.34315949271E+02 -0.81794439715E+01  0.35663883613E+02  0.41800000000E+01 0. -1.
         -5    1    3    3    0  502 -0.45537691201E+02  0.53126226091E+02 -0.19672028506E+03  0.20883586898E+03  0.41800000000E+01 0. -1.
        -11    1    1    2    0    0 -0.79653273438E+00  0.22302400972E+02 -0.10878795084E+03  0.11105336466E+03  0.00000000000E+00 0. -1.
         11    1    1    2    0    0  0.43179463037E+02 -0.41112677792E+02 -0.64100334896E+02  0.87541825645E+02  0.00000000000E+00 0.  1.
</event>
<event>
 7    1  0.2564986E-009  0.1235924E+03  0.7561462E-02  0.1237286E+00
         -2   -1    0    0    0  501 -0.00000000000E+00  0.00000000000E+00  0.14619774478E+03  0.14619774478E+03  0.00000000000E+00 0.  1.
          2   -1    0    0  501    0  0.00000000000E+00 -0.00000000000E+00 -0.11807507987E+03  0.11807507987E+03  0.00000000000E+00 0. -1.
         25    2    1    2    0    0 -0.31946356431E+02  0.65840297887E+02 -0.16754776694E+02  0.14588991232E+03  0.12509048509E+03 0.  0.
          5    1    3    3  502    0 -0.75448735855E+02  0.20388691228E+02 -0.25312265724E+02  0.82258091810E+02  0.41800000000E+01 0.  1.
         -5    1    3    3    0  502  0.43502379424E+02  0.45451606659E+02  0.85574890305E+01  0.63631820515E+02  0.41800000000E+01 0.  1.
        -11    1    1    2    0    0 -0.44040568974E+01  0.15850512809E+02  0.19347878998E+02  0.25396355943E+02  0.00000000000E+00 0.  1.
         11    1    1    2    0    0  0.36350413328E+02 -0.81690810697E+02  0.25529562608E+02  0.92986556385E+02  0.00000000000E+00 0. -1.
</event>
<event>
 7    1  0.2564986E-009  0.9707255E+02  0.7561462E-02  0.1286575E+00
         -1   -1    0    0    0  501 -0.00000000000E+00  0.00000000000E+00  0.38016707547E+02  0.38016707547E+02  0.00000000000E+00 0.  1.
          1   -1    0    0  501    0  0.00000000000E+00 -0.00000000000E+00 -0.36733446528E+03  0.36733446528E+03  0.00000000000E+00 0. -1.
         25    2    1    2    0    0  0.16154809080E+02  0.40034636830E+02 -0.21954174676E+03  0.25634145772E+03  0.12509442183E+03 0.  0.
          5    1    3    3  502    0 -0.37746107430E+02 -0.26529252476E+02 -0.69520406209E+02  0.83541182314E+02  0.41800000000E+01 0.  1.
         -5    1    3    3    0  502  0.53900916511E+02  0.66563889306E+02 -0.15002134055E+03  0.17280027541E+03  0.41800000000E+01 0.  1.
        -11    1    1    2    0    0 -0.31742571597E+02 -0.28704796664E+02 -0.11985230275E+03  0.12726401957E+03  0.00000000000E+00 0. -1.
         11    1    1    2    0    0  0.15587762517E+02 -0.11329840166E+02  0.10076291774E+02  0.21745695537E+02  0.00000000000E+00 0.  1.
</event>
<event>
 7    1  0.2564986E-009  0.9035968E+02  0.7561462E-02  0.1301983E+00
          1   -1    0    0  501    0  0.00000000000E+00  0.00000000000E+00  0.51923802781E+03  0.51923802781E+03  0.00000000000E+00 0. -1.
         -1   -1    0    0    0  501 -0.00000000000E+00 -0.00000000000E+00 -0.36984621783E+02  0.36984621783E+02  0.00000000000E+00 0.  1.
         25    2    1    2    0    0 -0.30030625580E+02  0.37207141721E+02  0.40872248562E+03  0.43009963119E+03  0.12508162386E+03 0.  0.
          5    1    3    3  502    0  0.43746226068E+02  0.16178218223E+02  0.24250447679E+03  0.24698453536E+03  0.41800000000E+01 0.  1.
         -5    1    3    3    0  502 -0.73776851648E+02  0.21028923498E+02  0.16621800883E+03  0.18311509583E+03  0.41800000000E+01 0.  1.
        -11    1    1    2    0    0  0.18162812709E+02 -0.16393806361E+00  0.83918792355E+02  0.85861972674E+02  0.00000000000E+00 0. -1.
         11    1    1    2    0    0  0.11867812871E+02 -0.37043203658E+02 -0.10387871950E+02  0.40261045729E+02  0.00000000000E+00 0.  1.
</event>
<event>
 7    1  0.2564986E-009  0.8877919E+02  0.7561462E-02  0.1305835E+00
         -2   -1    0    0    0  501 -0.00000000000E+00  0.00000000000E+00  0.13275155093E+03  0.13275155093E+03  0.00000000000E+00 0.  1.
          2   -1    0    0  501    0  0.00000000000E+00 -0.00000000000E+00 -0.12734409561E+03  0.12734409561E+03  0.00000000000E+00 0. -1.
         25    2    1    2    0    0 -0.42988775103E+02  0.57086966311E+02 -0.11124625873E+02  0.14449126089E+03  0.12508801168E+03 0.  0.
          5    1    3    3  502    0  0.10811992999E+02  0.58719542217E+01 -0.56080319535E+02  0.57566080969E+02  0.41800000000E+01 0. -1.
         -5    1    3    3    0  502 -0.53800768102E+02  0.51215012090E+02  0.44955693662E+02  0.86925179921E+02  0.41800000000E+01 0. -1.
        -11    1    1    2    0    0  0.32756441975E+02 -0.67833215291E+02  0.41913546818E+02  0.86203683183E+02  0.00000000000E+00 0.  1.
         11    1    1    2    0    0  0.10232333129E+02  0.10746248980E+02 -0.25381465627E+02  0.29400702471E+02  0.00000000000E+00 0. -1.
</event>
<event>
 7    1  0.2564986E-009  0.1860528E+03  0.7561462E-02  0.1162070E+00
         -2   -1    0    0    0  501 -0.00000000000E+00  0.00000000000E+00  0.23610283804E+03  0.23610283804E+03  0.00000000000E+00 0.  1.
          2   -1    0    0  501    0  0.00000000000E+00 -0.00000000000E+00 -0.19347826142E+03  0.19347826142E+03  0.00000000000E+00 0. -1.
         25    2    1    2    0    0  0.17122128665E+03  0.63712875768E+02  0.32665746249E+01  0.22143550130E+03  0.12508777392E+03 0.  0.
          5    1    3    3  502    0  0.13138853961E+03  0.26120795226E+02 -0.51771205224E+02  0.14367663128E+03  0.41800000000E+01 0. -1.
         -5    1    3    3    0  502  0.39832747041E+02  0.37592080542E+02  0.55037779849E+02  0.77758870022E+02  0.41800000000E+01 0. -1.
        -11    1    1    2    0    0 -0.90830787084E+02 -0.26885640779E+02  0.66397540491E+02  0.11567931079E+03  0.00000000000E+00 0. -1.
         11    1    1    2    0    0 -0.80390499570E+02 -0.36827234989E+02 -0.27039538494E+02  0.92466287371E+02  0.00000000000E+00 0.  1.
</event>
<event>
 7    1  0.2564986E-009  0.1059199E+03  0.7561462E-02  0.1268318E+00
         -2   -1    0    0    0  501 -0.00000000000E+00  0.00000000000E+00  0.31791910995E+02  0.31791910995E+02  0.00000000000E+00 0.  1.
          2   -1    0    0  501    0  0.00000000000E+00 -0.00000000000E+00 -0.53006401744E+03  0.53006401744E+03  0.00000000000E+00 0. -1.
         25    2    1    2    0    0 -0.21402177813E+02 -0.64139647670E+02 -0.19273916843E+03  0.23951223779E+03  0.12508308192E+03 0.  0.
          5    1    3    3  502    0 -0.33249053787E+02  0.91883742848E+01 -0.20314664303E+01  0.34806968491E+02  0.41800000000E+01 0. -1.
         -5    1    3    3    0  502  0.11846875974E+02 -0.73328021955E+02 -0.19070770200E+03  0.20470526930E+03  0.41800000000E+01 0. -1.
        -11    1    1    2    0    0 -0.22769402214E+02  0.52183366740E+02 -0.17396433178E+03  0.18304408806E+03  0.00000000000E+00 0.  1.
         11    1    1    2    0    0  0.44171580027E+02  0.11956280930E+02 -0.13156860623E+03  0.13929960259E+03  0.00000000000E+00 0. -1.
</event>
<event>
 7    1  0.2564986E-009  0.2159646E+03  0.7561462E-02  0.1136928E+00
          2   -1    0    0  501    0  0.00000000000E+00  0.00000000000E+00  0.11977775974E+04  0.11977775974E+04  0.00000000000E+00 0. -1.
         -2   -1    0    0    0  501 -0.00000000000E+00 -0.00000000000E+00 -0.52587347298E+02  0.52587347298E+02  0.00000000000E+00 0.  1.
         25    2    1    2    0    0  0.19341566740E+03 -0.36170799502E+02  0.86480841249E+03  0.89568960457E+03  0.12509328632E+03 0.  0.
          5    1    3    3  502    0  0.10031544546E+03 -0.62909543257E+02  0.63985174686E+03  0.65072922908E+03  0.41800000000E+01 0.  1.
         -5    1    3    3    0  502  0.93100221942E+02  0.26738743755E+02  0.22495666564E+03  0.24496037548E+03  0.41800000000E+01 0.  1.
        -11    1    1    2    0    0  0.21813749658E+01 -0.14318380953E+02  0.26836592919E+02  0.30495526711E+02  0.00000000000E+00 0. -1.
         11    1    1    2    0    0 -0.19559704237E+03  0.50489180455E+02  0.25354524471E+03  0.32417981344E+03  0.00000000000E+00 0.  1.
</event>
<event>
 7    1  0.2564986E-009  0.1391000E+03  0.7561462E-02  0.1214545E+00
          1   -1    0    0  501    0  0.00000000000E+00  0.00000000000E+00  0.41945274371E+03  0.41945274371E+03  0.00000000000E+00 0. -1.
         -1   -1    0    0    0  501 -0.00000000000E+00 -0.00000000000E+00 -0.53234087723E+02  0.53234087723E+02  0.00000000000E+00 0.  1.
         25    2    1    2    0    0 -0.47786126414E+02  0.86320238802E+02  0.23905249692E+03  0.28727813183E+03  0.12509169134E+03 0.  0.
          5    1    3    3  502    0  0.27317235411E+02 -0.23952479328E+01  0.11044875696E+03  0.11387874638E+03  0.41800000000E+01 0.  1.
         -5    1    3    3    0  502 -0.75103361825E+02  0.88715486735E+02  0.12860373996E+03  0.17339938545E+03  0.41800000000E+01 0.  1.
        -11    1    1    2    0    0  0.74065669941E+02 -0.75396593995E+02  0.91621300471E+02  0.13987434557E+03  0.00000000000E+00 0. -1.
         11    1    1    2    0    0 -0.26279543527E+02 -0.10923644808E+02  0.35544858597E+02  0.45534354026E+02  0.00000000000E+00 0.  1.
</event>
<event>
 7    1  0.2564986E-009  0.1252362E+03  0.7561462E-02  0.1234701E+00
         -4   -1    0    0    0  501 -0.00000000000E+00  0.00000000000E+00  0.38952839170E+02  0.38952839170E+02  0.00000000000E+00 0.  1.
          4   -1    0    0  501    0  0.00000000000E+00 -0.00000000000E+00 -0.57192245588E+03  0.57192245588E+03  0.00000000000E+00 0. -1.
         25    2    1    2    0    0  0.56654648656E+02  0.59316862304E+02 -0.16305166979E+03  0.22127227884E+03  0.12508930807E+03 0.  0.
          5    1    3    3  502    0  0.61603294880E+02 -0.83681537420E+01 -0.13312099395E+03  0.14698184706E+03  0.41800000000E+01 0. -1.
         -5    1    3    3    0  502 -0.49486462241E+01  0.67685016046E+02 -0.29930675841E+02  0.74290431773E+02  0.41800000000E+01 0. -1.
        -11    1    1    2    0    0 -0.42495112919E+02  0.14580556565E+02 -0.10501399593E+03  0.11422069249E+03  0.00000000000E+00 0.  1.
         11    1    1    2    0    0 -0.14159535737E+02 -0.73897418869E+02 -0.26490395099E+03  0.27538232372E+03  0.00000000000E+00 0. -1.
</event>
<event>
 7    1  0.2564986E-009  0.1357957E+03  0.7561462E-02  0.1219101E+00
          2   -1    0    0  501    0  0.00000000000E+00  0.00000000000E+00  0.10231504872E+04  0.10231504872E+04  0.00000000000E+00 0. -1.
         -2   -1    0    0    0  501 -0.00000000000E+00 -0.00000000000E+00 -0.19593714416E+02  0.19593714416E+02  0.00000000000E+00 0.  1.
         25    2    1    2    0    0  0.15099191676E+01 -0.88754645379E+02  0.55065592448E+03  0.57161871070E+03  0.12508531618E+03 0.  0.
          5    1    3    3  502    0 -0.24681527692E+02 -0.10730393912E+03  0.31424494966E+03  0.33300251343E+03  0.41800000000E+01 0.  1.
         -5    1    3    3    0  502  0.26191446859E+02  0.18549293739E+02  0.23641097482E+03  0.23861619727E+03  0.41800000000E+01 0.  1.
        -11    1    1    2    0    0 -0.47048559038E+02  0.35304210010E+02  0.23150659723E+03  0.23886242633E+03  0.00000000000E+00 0.  1.
         11    1    1    2    0    0  0.45538639871E+02  0.53450435370E+02  0.22139425106E+03  0.23226306457E+03  0.00000000000E+00 0. -1.
</event>
<event>
 7    1  0.2564986E-009  0.5042390E+02  0.7561462E-02  0.1443068E+00
          1   -1    0    0  501    0  0.00000000000E+00  0.00000000000E+00  0.38991813878E+03  0.38991813878E+03  0.00000000000E+00 0. -1.
         -1   -1    0    0    0  501 -0.00000000000E+00 -0.00000000000E+00 -0.38885836918E+02  0.38885836918E+02  0.00000000000E+00 0.  1.
         25    2    1    2    0    0  0.34137250285E+01  0.36156652719E+02  0.27727955659E+03  0.30635021560E+03  0.12509014766E+03 0.  0.
          5    1    3    3  502    0 -0.26457592813E+01  0.20307685854E+02 -0.66111449468E+01  0.21922175632E+02  0.41800000000E+01 0.  1.
         -5    1    3    3    0  502  0.60594843097E+01  0.15848966865E+02  0.28389070154E+03  0.28442803997E+03  0.41800000000E+01 0.  1.
        -11    1    1    2    0    0 -0.13874407001E+02 -0.46036842678E+02  0.89205771067E+02  0.10133883582E+03  0.00000000000E+00 0. -1.
         11    1    1    2    0    0  0.10460681972E+02  0.98801899593E+01 -0.15453025797E+02  0.21114924278E+02  0.00000000000E+00 0.  1.
</event>
<event>
 7    1  0.2564986E-009  0.1002293E+03  0.7561462E-02  0.1279815E+00
         -1   -1    0    0    0  501 -0.00000000000E+00  0.00000000000E+00  0.68625931610E+02  0.68625931610E+02  0.00000000000E+00 0.  1.
          1   -1    0    0  501    0  0.00000000000E+00 -0.00000000000E+00 -0.28974185678E+03  0.28974185678E+03  0.00000000000E+00 0. -1.
         25    2    1    2    0    0  0.78077530029E+02  0.85887180673E+01 -0.64506838390E+02  0.16118773069E+03  0.12510190067E+03 0.  0.
          5    1    3    3  502    0  0.52193855859E+01  0.10967814300E+02 -0.84509940144E+02  0.85480625404E+02  0.41800000000E+01 0. -1.
         -5    1    3    3    0  502  0.72858144443E+02 -0.23790962329E+01  0.20003101754E+02  0.75707105283E+02  0.41800000000E+01 0. -1.
        -11    1    1    2    0    0 -0.48436844490E+02  0.36491467399E+02 -0.11120167631E+03  0.12666320662E+03  0.00000000000E+00 0.  1.
         11    1    1    2    0    0 -0.29640685539E+02 -0.45080185466E+02 -0.45407410468E+02  0.70516851081E+02  0.00000000000E+00 0. -1.
</event>
<event>
 7    1  0.2564986E-009  0.1375940E+03  0.7561462E-02  0.1216603E+00
          1   -1    0    0  501    0  0.00000000000E+00  0.00000000000E+00  0.90661906713E+02  0.90661906713E+02  0.00000000000E+00 0. -1.
         -1   -1    0    0    0  501 -0.00000000000E+00 -0.00000000000E+00 -0.32866675191E+03  0.32866675191E+03  0.00000000000E+00 0.  1.
         25    2    1    2    0    0 -0.25309780470E+02 -0.11840384788E+03 -0.56953356544E+02  0.18317187070E+03  0.12509273845E+03 0.  0.
          5    1    3    3  502    0 -0.38194368132E+02 -0.12810383623E+03 -0.10885728048E+02  0.13418410520E+03  0.41800000000E+01 0. -1.
         -5    1    3    3    0  502  0.12884587662E+02  0.96999883486E+01 -0.46067628496E+02  0.48987765498E+02  0.41800000000E+01 0. -1.
        -11    1    1    2    0    0  0.18733575778E+02  0.25459876677E+02 -0.12157249397E+03  0.12561458303E+03  0.00000000000E+00 0.  1.
         11    1    1    2    0    0  0.65762046915E+01  0.92943971207E+02 -0.59478994686E+02  0.11054220488E+03  0.00000000000E+00 0. -1.
</event>
<event>
 7    1  0.2564986E-009  0.9407399E+02  0.7561462E-02  0.1293275E+00
          1   -1    0    0  501    0  0.00000000000E+00  0.00000000000E+00  0.27200168768E+02  0.27200168768E+02  0.00000000000E+00 0. -1.
         -1   -1    0    0    0  501 -0.00000000000E+00 -0.00000000000E+00 -0.68574391061E+03  0.68574391061E+03  0.00000000000E+00 0.  1.
         25    2    1    2    0    0 -0.29462598272E+02  0.73152447617E+02 -0.29707021931E+03  0.33184041021E+03  0.12509203555E+03 0.  0.
          5    1    3    3  502    0  0.12730513475E+02  0.19822184585E+02 -0.24480470210E+03  0.24597113559E+03  0.41800000000E+01 0.  1.
         -5    1    3    3    0  502 -0.42193111747E+02  0.53330263032E+02 -0.52265517210E+02  0.85869274617E+02  0.41800000000E+01 0.  1.
        -11    1    1    2    0    0  0.16565474699E+02 -0.79855618435E+02 -0.35654833859E+03  0.36575682154E+03  0.00000000000E+00 0.  1.
         11    1    1    2    0    0  0.12897123573E+02  0.67031708178E+01 -0.49251839455E+01  0.15346847636E+02  0.00000000000E+00 0. -1.
</event>
<event>
 7    1  0.2564986E-009  0.1188232E+03  0.7561462E-02  0.1245051E+00
          2   -1    0    0  501    0  0.00000000000E+00  0.00000000000E+00  0.34042940484E+03  0.34042940484E+03  0.00000000000E+00 0. -1.
         -2   -1    0    0    0  501 -0.00000000000E+00 -0.00000000000E+00 -0.65648306429E+02  0.65648306429E+02  0.00000000000E+00 0.  1.
         25    2    1    2    0    0  0.99956523017E+02  0.10836604182E+02  0.14156206530E+03  0.21399729180E+03  0.12508510735E+03 0.  0.
          5    1    3    3  502    0  0.48563135290E+02 -0.30976586746E+02  0.12243709894E+00  0.57753046902E+02  0.41800000000E+01 0. -1.
         -5    1    3    3    0  502  0.51393387727E+02  0.41813190928E+02  0.14143962820E+03  0.15624424489E+03  0.41800000000E+01 0. -1.
        -11    1    1    2    0    0 -0.10118198279E+03  0.14179749690E+01  0.14380529785E+03  0.17584017739E+03  0.00000000000E+00 0. -1.
         11    1    1    2    0    0  0.12254597779E+01 -0.12254579151E+02 -0.10586264736E+02  0.16240242082E+02  0.00000000000E+00 0.  1.
</event>
<event>
 7    1  0.2564986E-009  0.8625790E+02  0.7561462E-02  0.1312175E+00
         -1   -1    0    0    0  501 -0.00000000000E+00  0.00000000000E+00  0.60263476398E+02  0.60263476398E+02  0.00000000000E+00 0.  1.
          1   -1    0    0  501    0  0.00000000000E+00 -0.00000000000E+00 -0.24222151998E+03  0.24222151998E+03  0.00000000000E+00 0. -1.
         25    2    1    2    0    0 -0.33865001625E+02  0.21947352041E+01 -0.15627340560E+03  0.20302855416E+03  0.12509021268E+03 0.  0.
          5    1    3    3  502    0  0.28284630621E+02 -0.32061348158E+01  0.57676361101E+01  0.29343443154E+02  0.41800000000E+01 0.  1.
         -5    1    3    3    0  502 -0.62149632246E+02  0.54008700199E+01 -0.16204104171E+03  0.17368511100E+03  0.41800000000E+01 0.  1.
        -11    1    1    2    0    0  0.53078468477E+02  0.15296189486E+02 -0.41453766389E+02  0.69063101411E+02  0.00000000000E+00 0. -1.
         11    1    1    2    0    0 -0.19213466851E+02 -0.17490924691E+02  0.15769128406E+02  0.30393340811E+02  0.00000000000E+00 0.  1.
</event>
<event>
 7    1  0.2564986E-009  0.9061866E+02  0.7561462E-02  0.1301360E+00
         -2   -1    0    0    0  501 -0.00000000000E+00  0.00000000000E+00  0.27029526733E+02  0.27029526733E+02  0.00000000000E+00 0.  1.
          2   -1    0    0  501    0  0.00000000000E+00 -0.00000000000E+00 -0.47052722928E+03  0.47052722928E+03  0.00000000000E+00 0. -1.
         25    2    1    2    0    0  0.23281881163E+01  0.34285608243E+02 -0.23349444915E+03  0.26711006414E+03  0.12508878922E+03 0.  0.
          5    1    3    3  502    0 -0.37545032183E+02 -0.17479726688E+02 -0.17309973109E+03  0.17803415288E+03  0.41800000000E+01 0.  1.
         -5    1    3    3    0  502  0.39873220299E+02  0.51765334931E+02 -0.60394718056E+02  0.89075911259E+02  0.41800000000E+01 0.  1.
        -11    1    1    2    0    0 -0.29787611999E+02  0.53443655277E+00 -0.16348909328E+03  0.16618144021E+03  0.00000000000E+00 0. -1.
         11    1    1    2    0    0  0.27459423882E+02 -0.34820044796E+02 -0.46514160127E+02  0.64265251667E+02  0.00000000000E+00 0.  1.
</event>
<event>
 7    1  0.2564986E-009  0.8003629E+02  0.7561462E-02  0.1328948E+00
         -1   -1    0    0    0  501 -0.00000000000E+00  0.00000000000E+00  0.79704241617E+03  0.79704241617E+03  0.00000000000E+00 0.  1.
          1   -1    0    0  501    0  0.00000000000E+00 -0.00000000000E+00 -0.19524534451E+02  0.19524534451E+02  0.00000000000E+00 0. -1.
         25    2    1    2    0    0 -0.36703859283E+02  0.42248506329E+02  0.48715408560E+03  0.50606197466E+03  0.12509000562E+03 0.  0.
          5    1    3    3  502    0 -0.21835333814E+02  0.32025764410E+02  0.48593919238E+03  0.48750056664E+03  0.41800000000E+01 0.  1.
         -5    1    3    3    0  502 -0.14868525469E+02  0.10222741919E+02  0.12148932221E+01  0.18561408015E+02  0.41800000000E+01 0.  1.
        -11    1    1    2    0    0 -0.22189304454E+02  0.95276734950E+01  0.12724628429E+03  0.12951740678E+03  0.00000000000E+00 0.  1.
         11    1    1    2    0    0  0.58893163736E+02 -0.51776179824E+02  0.16311751184E+03  0.18098756919E+03  0.00000000000E+00 0. -1.
</event>
<event>
 7    1  0.2564986E-009  0.2434750E+03  0.7561462E-02  0.1117499E+00
         -2   -1    0    0    0  501 -0.00000000000E+00  0.00000000000E+00  0.58577034751E+03  0.58577034751E+03  0.00000000000E+00 0.  1.
          2   -1    0    0  501    0  0.00000000000E+00 -0.00000000000E+00 -0.11678441422E+03  0.11678441422E+03  0.00000000000E+00 0. -1.
         25    2    1    2    0    0 -0.34515929968E+01  0.23600037308E+03  0.27512096446E+03  0.38346679373E+03  0.12508855751E+03 0.  0.
          5    1    3    3  502    0  0.37645184787E+02  0.13601011767E+03  0.22162575703E+03  0.26277625582E+03  0.41800000000E+01 0. -1.
         -5    1    3    3    0  502 -0.41096777784E+02  0.99990255413E+02  0.53495207428E+02  0.12069053790E+03  0.41800000000E+01 0. -1.
        -11    1    1    2    0    0 -0.90471488080E+01 -0.33771526838E+02  0.78495226780E+02  0.85929433571E+02  0.00000000000E+00 0.  1.
         11    1    1    2    0    0  0.12498741805E+02 -0.20222884624E+03  0.11536974205E+03  0.23315853443E+03  0.00000000000E+00 0. -1.
</event>
<event>
 7    1  0.2564986E-009  0.1567684E+03  0.7561462E-02  0.1192394E+00
         -3   -1    0    0    0  501 -0.00000000000E+00  0.00000000000E+00  0.34285411685E+02  0.34285411685E+02  0.00000000000E+00 0.  1.
          3   -1    0    0  501    0  0.00000000000E+00 -0.00000000000E+00 -0.94592845960E+03  0.94592845960E+03  0.00000000000E+00 0. -1.
         25    2    1    2    0    0  0.55999016414E+02  0.12616203660E+03 -0.58833877047E+03  0.61712510407E+03  0.12509250943E+03 0.  0.
          5    1    3    3  502    0 -0.27127807745E+02  0.37638459048E+02 -0.65644846316E+02  0.80494035806E+02  0.41800000000E+01 0.  1.
         -5    1    3    3    0  502  0.83126824158E+02  0.88523577550E+02 -0.52269392416E+03  0.53663106826E+03  0.41800000000E+01 0.  1.
        -11    1    1    2    0    0 -0.39515762483E+02 -0.34942137969E+02 -0.43636241846E+02  0.68458528270E+02  0.00000000000E+00 0.  1.
         11    1    1    2    0    0 -0.16483253931E+02 -0.91219898630E+02 -0.27966803560E+03  0.29463023894E+03  0.00000000000E+00 0. -1.
</event>
<event>
 7    1  0.2564986E-009  0.1174334E+03  0.7561462E-02  0.1247392E+00
          2   -1    0    0  501    0  0.00000000000E+00  0.00000000000E+00  0.67851732399E+03  0.67851732399E+03  0.00000000000E+00 0. -1.
         -2   -1    0    0    0  501 -0.00000000000E+00 -0.00000000000E+00 -0.24744374171E+02  0.24744374171E+02  0.00000000000E+00 0.  1.
         25    2    1    2    0    0  0.10698361955E+02 -0.63286864436E+02  0.29833610864E+03  0.32980619999E+03  0.12509202082E+03 0.  0.
          5    1    3    3  502    0 -0.40411862533E+01  0.28487307976E+02  0.17446842514E+02  0.33907559862E+02  0.41800000000E+01 0. -1.
         -5    1    3    3    0  502  0.14739548208E+02 -0.91774172412E+02  0.28088926613E+03  0.29589864013E+03  0.41800000000E+01 0. -1.
        -11    1    1    2    0    0 -0.51903658784E+02  0.38944289233E+02  0.23678356689E+03  0.24551396093E+03  0.00000000000E+00 0. -1.
         11    1    1    2    0    0  0.41205296829E+02  0.24342575203E+02  0.11865327428E+03  0.12794153724E+03  0.00000000000E+00 0.  1.
</event>
<event>
 7    1  0.2564986E-009  0.8482497E+02  0.7561462E-02  0.1315891E+00
         -2   -1    0    0    0  501 -0.00000000000E+00  0.00000000000E+00  0.29343789326E+02  0.29343789326E+02  0.00000000000E+00 0.  1.
          2   -1    0    0  501    0  0.00000000000E+00 -0.00000000000E+00 -0.54690444925E+03  0.54690444925E+03  0.00000000000E+00 0. -1.
         25    2    1    2    0    0  0.17106903046E+02  0.11360155833E+02 -0.43072571421E+03  0.44899186962E+03  0.12508940333E+03 0.  0.
          5    1    3    3  502    0  0.37260296620E+02 -0.20451502940E+02 -0.39371864946E+03  0.39602833360E+03  0.41800000000E+01 0.  1.
         -5    1    3    3    0  502 -0.20153393574E+02  0.31811658773E+02 -0.37007064753E+02  0.52963536023E+02  0.41800000000E+01 0.  1.
        -11    1    1    2    0    0 -0.48649069648E+02 -0.24987863015E+02 -0.70456751173E+02  0.89192371095E+02  0.00000000000E+00 0. -1.
         11    1    1    2    0    0  0.31542166601E+02  0.13627707181E+02 -0.16378194535E+02  0.38063997861E+02  0.00000000000E+00 0.  1.
</event>
<event>
 7    1  0.2564986E-009  0.1431447E+03  0.7561462E-02  0.1209159E+00
         -2   -1    0    0    0  501 -0.00000000000E+00  0.00000000000E+00  0.12409519689E+03  0.12409519689E+03  0.00000000000E+00 0.  1.
          2   -1    0    0  501    0  0.00000000000E+00 -0.00000000000E+00 -0.25943450937E+03  0.25943450937E+03  0.00000000000E+00 0. -1.
         25    2    1    2    0    0  0.61903511293E+02 -0.10526557361E+03  0.97090898510E+01  0.17508191915E+03  0.12508607552E+03 0.  0.
          5    1    3    3  502    0  0.79741603430E+02 -0.89631607965E+02  0.48461468690E+02  0.12945475971E+03  0.41800000000E+01 0.  1.
         -5    1    3    3    0  502 -0.17838092136E+02 -0.15633965647E+02 -0.38752378839E+02  0.45627159440E+02  0.41800000000E+01 0.  1.
        -11    1    1    2    0    0 -0.70837190461E+02  0.51298495614E+02 -0.55722981455E+02  0.10370387585E+03  0.00000000000E+00 0.  1.
         11    1    1    2    0    0  0.89336791678E+01  0.53967077998E+02 -0.89325420875E+02  0.10474391126E+03  0.00000000000E+00 0. -1.
</event>
<event>
 7    1  0.2564986E-009  0.2406082E+03  0.7561462E-02  0.1119388E+00
         -1   -1    0    0    0  501 -0.00000000000E+00  0.00000000000E+00  0.29406207250E+02  0.29406207250E+02  0.00000000000E+00 0.  1.
          1   -1    0    0  501    0  0.00000000000E+00 -0.00000000000E+00 -0.25487685425E+04  0.25487685425E+04  0.00000000000E+00 0. -1.
         25    2    1    2    0    0 -0.23005144314E+03  0.70078461858E+02 -0.15799988589E+04  0.16030849403E+04  0.12510105641E+03 0.  0.
          5    1    3    3  502    0 -0.12388684229E+03  0.35917192583E+02 -0.46699015212E+03  0.48449485961E+03  0.41800000000E+01 0.  1.
         -5    1    3    3    0  502 -0.10616460085E+03  0.34161269276E+02 -0.11130087068E+04  0.11185900807E+04  0.41800000000E+01 0.  1.
        -11    1    1    2    0    0  0.10906303279E+03 -0.30232483583E+02 -0.25520966298E+03  0.27917865295E+03  0.00000000000E+00 0.  1.
         11    1    1    2    0    0  0.12098841035E+03 -0.39845978275E+02 -0.68415381341E+03  0.69591115656E+03  0.00000000000E+00 0. -1.
</event>
<event>
 7    1  0.2564986E-009  0.9340288E+02  0.7561462E-02  0.1294814E+00
         -2   -1    0    0    0  501 -0.00000000000E+00  0.00000000000E+00  0.32846642757E+03  0.32846642757E+03  0.00000000000E+00 0.  1.
          2   -1    0    0  501    0  0.00000000000E+00 -0.00000000000E+00 -0.63766174363E+02  0.63766174363E+02  0.00000000000E+00 0. -1.
         25    2    1    2    0    0  0.88815367170E+02  0.10287642720E+01  0.95756675416E+02  0.18085096301E+03  0.12509397321E+03 0.  0.
          5    1    3    3  502    0  0.69332935782E+02  0.13631773424E+02  0.12477962385E+03  0.14345838476E+03  0.41800000000E+01 0.  1.
         -5    1    3    3    0  502  0.19482431388E+02 -0.12603009152E+02 -0.29022948429E+02  0.37392578247E+02  0.41800000000E+01 0.  1.
        -11    1    1    2    0    0 -0.59626275908E+02  0.11423512751E+02  0.27904605526E+02  0.66816587999E+02  0.00000000000E+00 0. -1.
         11    1    1    2    0    0 -0.29189091262E+02 -0.12452277023E+02  0.14103897226E+03  0.14456505092E+03  0.00000000000E+00 0.  1.
</event>
<event>
 7    1  0.2564986E-009  0.6702939E+02  0.7561462E-02  0.1370496E+00
          3   -1    0    0  501    0  0.00000000000E+00  0.00000000000E+00  0.15508801151E+03  0.15508801151E+03  0.00000000000E+00 0. -1.
         -3   -1    0    0    0  501 -0.00000000000E+00 -0.00000000000E+00 -0.84808874812E+02  0.84808874812E+02  0.00000000000E+00 0.  1.
         25    2    1    2    0    0  0.61728418728E+01 -0.34763692328E+02  0.24852014400E+02  0.13233160300E+03  0.12508961689E+03 0.  0.
          5    1    3    3  502    0  0.35261719209E+02 -0.20944743820E+02  0.67277571423E+02  0.78903834836E+02  0.41800000000E+01 0. -1.
         -5    1    3    3    0  502 -0.29088877337E+02 -0.13818948508E+02 -0.42425557023E+02  0.53427768167E+02  0.41800000000E+01 0. -1.
        -11    1    1    2    0    0  0.21427527977E+02  0.11846859443E+02  0.63020141595E+02  0.67609357937E+02  0.00000000000E+00 0. -1.
         11    1    1    2    0    0 -0.27600369850E+02  0.22916832885E+02 -0.17593019296E+02  0.39955925384E+02  0.00000000000E+00 0.  1.
</event>
<event>
 7    1  0.2564986E-009  0.1454809E+03  0.7561462E-02  0.1206139E+00
         -1   -1    0    0    0  501 -0.00000000000E+00  0.00000000000E+00  0.40594673529E+02  0.40594673529E+02  0.00000000000E+00 0. -1.
          1   -1    0    0  501    0  0.00000000000E+00 -0.00000000000E+00 -0.68614761192E+03  0.68614761192E+03  0.00000000000E+00 0.  1.
         25    2    1    2    0    0  0.16912019768E+02 -0.12502982822E+03 -0.33873595949E+03  0.38250172737E+03  0.12508815623E+03 0.  0.
          5    1    3    3  502    0 -0.17094234175E+02 -0.52980251905E+02 -0.29502903173E+02  0.63142803467E+02  0.41800000000E+01 0.  1.
         -5    1    3    3    0  502  0.34006253943E+02 -0.72049576316E+02 -0.30923305632E+03  0.31935892390E+03  0.41800000000E+01 0.  1.
        -11    1    1    2    0    0  0.37429049575E+02  0.43665117543E+02 -0.13011389305E+03  0.14225751792E+03  0.00000000000E+00 0.  1.
         11    1    1    2    0    0 -0.54341069343E+02  0.81364710678E+02 -0.17670308585E+03  0.20198304015E+03  0.00000000000E+00 0. -1.
</event>
<event>
 7    1  0.2564986E-009  0.1183691E+03  0.7561462E-02  0.1245812E+00
         -2   -1    0    0    0  501 -0.00000000000E+00  0.00000000000E+00  0.64449805881E+01  0.64449805881E+01  0.00000000000E+00 0.  1.
          2   -1    0    0  501    0  0.00000000000E+00 -0.00000000000E+00 -0.32668780965E+04  0.32668780965E+04  0.00000000000E+00 0. -1.
         25    2    1    2    0    0  0.46111260968E+02 -0.17637186958E+02 -0.27117767199E+04  0.27151091665E+04  0.12508992279E+03 0.  0.
          5    1    3    3  502    0 -0.37427825375E+02  0.19450817048E+02 -0.74412555171E+03  0.74533179558E+03  0.41800000000E+01 0.  1.
         -5    1    3    3    0  502  0.83539086343E+02 -0.37088004006E+02 -0.19676511682E+04  0.19697773709E+04  0.41800000000E+01 0.  1.
        -11    1    1    2    0    0 -0.72426533776E+02  0.24442893729E+01 -0.38667803797E+03  0.39341006901E+03  0.00000000000E+00 0.  1.
         11    1    1    2    0    0  0.26315272808E+02  0.15192897585E+02 -0.16197835803E+03  0.16480384155E+03  0.00000000000E+00 0. -1.
</event>
<event>
 7    1  0.2564986E-009  0.9805887E+02  0.7561462E-02  0.1284432E+00
          1   -1    0    0  501    0  0.00000000000E+00  0.00000000000E+00  0.44886500312E+03  0.44886500312E+03  0.00000000000E+00 0. -1.
         -1   -1    0    0    0  501 -0.00000000000E+00 -0.00000000000E+00 -0.26824710632E+02  0.26824710632E+02  0.00000000000E+00 0.  1.
         25    2    1    2    0    0  0.27715963042E+01  0.77694089458E+01  0.27999307331E+03  0.30677578129E+03  0.12508882216E+03 0.  0.
          5    1    3    3  502    0 -0.45807359941E+02  0.26172101325E+02  0.22447529677E+03  0.23062940917E+03  0.41800000000E+01 0.  1.
         -5    1    3    3    0  502  0.48578956245E+02 -0.18402692379E+02  0.55517776533E+02  0.76146372126E+02  0.41800000000E+01 0.  1.
        -11    1    1    2    0    0  0.41648357398E+02  0.10656063494E+02  0.59989842244E+02  0.73803242040E+02  0.00000000000E+00 0.  1.
         11    1    1    2    0    0 -0.44419953702E+02 -0.18425472440E+02  0.82057376936E+02  0.95110690415E+02  0.00000000000E+00 0. -1.
</event>
<event>
 7    1  0.2564986E-009  0.9914860E+02  0.7561462E-02  0.1282097E+00
          1   -1    0    0  501    0  0.00000000000E+00  0.00000000000E+00  0.50282274523E+03  0.50282274523E+03  0.00000000000E+00 0. -1.
         -1   -1    0    0    0  501 -0.00000000000E+00 -0.00000000000E+00 -0.30646192912E+02  0.30646192912E+02  0.00000000000E+00 0.  1.
         25    2    1    2    0    0 -0.37223003193E+02 -0.43384637041E+02  0.22123197186E+03  0.26049745086E+03  0.12509019879E+03 0.  0.
          5    1    3    3  502    0 -0.18089799707E+02 -0.82387631410E+02  0.18646353008E+03  0.20469754056E+03  0.41800000000E+01 0.  1.
         -5    1    3    3    0  502 -0.19133203486E+02  0.39002994369E+02  0.34768441784E+02  0.55799910300E+02  0.41800000000E+01 0.  1.
        -11    1    1    2    0    0  0.37531150770E+02  0.12859748530E+02  0.23539132110E+03  0.23871119466E+03  0.00000000000E+00 0. -1.
         11    1    1    2    0    0 -0.30814757631E+00  0.30524888511E+02  0.15553259362E+02  0.34260292619E+02  0.00000000000E+00 0.  1.
</event>
<event>
 7    1  0.2564986E-009  0.1299594E+03  0.7561462E-02  0.1227516E+00
         -2   -1    0    0    0  501 -0.00000000000E+00  0.00000000000E+00  0.31656657102E+02  0.31656657102E+02  0.00000000000E+00 0.  1.
          2   -1    0    0  501    0  0.00000000000E+00 -0.00000000000E+00 -0.74020307657E+03  0.74020307657E+03  0.00000000000E+00 0. -1.
         25    2    1    2    0    0 -0.10297203380E+01  0.79831471442E+02 -0.19238684156E+03  0.24296585783E+03  0.12508232133E+03 0.  0.
          5    1    3    3  502    0  0.22263292676E+02 -0.27707596457E+02 -0.29642721978E+02  0.46470727006E+02  0.41800000000E+01 0.  1.
         -5    1    3    3    0  502 -0.23293013014E+02  0.10753906790E+03 -0.16274411958E+03  0.19649513083E+03  0.41800000000E+01 0.  1.
        -11    1    1    2    0    0 -0.40179888799E+02 -0.40568960309E+02 -0.29870594127E+03  0.30411429325E+03  0.00000000000E+00 0. -1.
         11    1    1    2    0    0  0.41209609137E+02 -0.39262511133E+02 -0.21745363663E+03  0.22477958259E+03  0.00000000000E+00 0.  1.
</event>
<event>
 7    1  0.3444196E-009  0.8492207E+02  0.7561462E-02  0.1315636E+00
          1   -1    0    0  501    0  0.00000000000E+00  0.00000000000E+00  0.26422077304E+03  0.26422077304E+03  0.00000000000E+00 0. -1.
         -1   -1    0    0    0  501 -0.00000000000E+00 -0.00000000000E+00 -0.60905680868E+02  0.60905680868E+02  0.00000000000E+00 0.  1.
         25    2    1    2    0    0 -0.15496382052E+02 -0.21925199870E+02  0.37462984153E+02  0.13330781027E+03  0.12508654944E+03 0.  0.
          5    1    3    3  502    0  0.39168292201E+02 -0.40760402553E+02  0.48135079197E+02  0.74364129657E+02  0.41800000000E+01 0. -1.
         -5    1    3    3    0  502 -0.54664674253E+02  0.18835202683E+02 -0.10672095044E+02  0.58943680611E+02  0.41800000000E+01 0. -1.
        -11    1    1    2    0    0 -0.11097449053E+02 -0.90830694069E+01 -0.57282667886E+01  0.15442427456E+02  0.00000000000E+00 0.  1.
         11    1    1    2    0    0  0.26593831105E+02  0.31008269277E+02  0.17158037481E+03  0.17637621619E+03  0.00000000000E+00 0. -1.
</event>
<event>
 7    1  0.2564986E-009  0.2347872E+03  0.7561462E-02  0.1123315E+00
         -2   -1    0    0    0  501 -0.00000000000E+00  0.00000000000E+00  0.11640114243E+03  0.11640114243E+03  0.00000000000E+00 0.  1.
          2   -1    0    0  501    0  0.00000000000E+00 -0.00000000000E+00 -0.74450098756E+03  0.74450098756E+03  0.00000000000E+00 0. -1.
         25    2    1    2    0    0 -0.21743613673E+03 -0.26054031871E+02 -0.55953011252E+03  0.61374171276E+03  0.12509059531E+03 0.  0.
          5    1    3    3  502    0 -0.12637112585E+03  0.23327427316E+02 -0.42423402554E+03  0.44328975980E+03  0.41800000000E+01 0.  1.
         -5    1    3    3    0  502 -0.91065010873E+02 -0.49381459187E+02 -0.13529608697E+03  0.17045195296E+03  0.41800000000E+01 0.  1.
        -11    1    1    2    0    0  0.88170053325E+02  0.56240460844E+02 -0.34351555363E+02  0.11007714157E+03  0.00000000000E+00 0. -1.
         11    1    1    2    0    0  0.12926608340E+03 -0.30186428973E+02 -0.34218177249E+02  0.13708327566E+03  0.00000000000E+00 0.  1.
</event>
<event>
 7    1  0.2564986E-009  0.6444642E+02  0.7561462E-02  0.1380066E+00
          3   -1    0    0  501    0  0.00000000000E+00  0.00000000000E+00  0.29921953306E+03  0.29921953306E+03  0.00000000000E+00 0. -1.
         -3   -1    0    0    0  501 -0.00000000000E+00 -0.00000000000E+00 -0.44977749030E+02  0.44977749030E+02  0.00000000000E+00 0.  1.
         25    2    1    2    0    0 -0.27516564344E+02 -0.72507778168E+00  0.96634696404E+02  0.16043876678E+03  0.12507856046E+03 0.  0.
          5    1    3    3  502    0 -0.11464550498E+02 -0.16934628050E+02 -0.27292856628E+02  0.34359714322E+02  0.41800000000E+01 0. -1.
         -5    1    3    3    0  502 -0.16052013846E+02  0.16209550268E+02  0.12392755303E+03  0.12607905246E+03  0.41800000000E+01 0. -1.
        -11    1    1    2    0    0 -0.20262030003E+02  0.24225395995E+02  0.10196876800E+03  0.10674759632E+03  0.00000000000E+00 0.  1.
         11    1    1    2    0    0  0.47778594347E+02 -0.23500318213E+02  0.55638319623E+02  0.77010918994E+02  0.00000000000E+00 0. -1.
</event>
<event>
 7    1  0.2564986E-009  0.1409843E+03  0.7561462E-02  0.1212011E+00
          3   -1    0    0  501    0  0.00000000000E+00  0.00000000000E+00  0.36779701174E+03  0.36779701174E+03  0.00000000000E+00 0. -1.
         -3   -1    0    0    0  501 -0.00000000000E+00 -0.00000000000E+00 -0.62671896253E+02  0.62671896253E+02  0.00000000000E+00 0.  1.
         25    2    1    2    0    0  0.10010982906E+03  0.27772027370E+02  0.19706415498E+03  0.25549018213E+03  0.12509072152E+03 0.  0.
          5    1    3    3  502    0  0.64750981733E+02  0.69565049604E+02  0.73294751817E+02  0.12008987803E+03  0.41800000000E+01 0.  1.
         -5    1    3    3    0  502  0.35358847324E+02 -0.41793022234E+02  0.12376940316E+03  0.13540030410E+03  0.41800000000E+01 0.  1.
        -11    1    1    2    0    0 -0.10140814482E+03 -0.47629673145E+02  0.70217955259E+02  0.13222238404E+03  0.00000000000E+00 0.  1.
         11    1    1    2    0    0  0.12983157676E+01  0.19857645774E+02  0.37843005246E+02  0.42756341817E+02  0.00000000000E+00 0. -1.
</event>
<event>
 7    1  0.2564986E-009  0.1253762E+03  0.7561462E-02  0.1234483E+00
          2   -1    0    0  501    0  0.00000000000E+00  0.00000000000E+00  0.68298214644E+03  0.68298214644E+03  0.00000000000E+00 0. -1.
         -2   -1    0    0    0  501 -0.00000000000E+00 -0.00000000000E+00 -0.36384681297E+02  0.36384681297E+02  0.00000000000E+00 0.  1.
         25    2    1    2    0    0 -0.75086621246E+02  0.75825020933E+02  0.25282044527E+03  0.30158245548E+03  0.12508543249E+03 0.  0.
          5    1    3    3  502    0  0.50714973168E+01  0.14024182794E+01 -0.12708971562E+02  0.14376272821E+02  0.41800000000E+01 0.  1.
         -5    1    3    3    0  502 -0.80158118563E+02  0.74422602654E+02  0.26552941683E+03  0.28720618266E+03  0.41800000000E+01 0.  1.
        -11    1    1    2    0    0 -0.14752668713E+02 -0.30647199559E+02  0.15515076052E+03  0.15883529383E+03  0.00000000000E+00 0.  1.
         11    1    1    2    0    0  0.89839289959E+02 -0.45177821374E+02  0.23862625935E+03  0.25894907842E+03  0.00000000000E+00 0. -1.
</event>
<event>
 7    1  0.2564986E-009  0.1818308E+03  0.7561462E-02  0.1166043E+00
          1   -1    0    0  501    0  0.00000000000E+00  0.00000000000E+00  0.18358120854E+04  0.18358120854E+04  0.00000000000E+00 0. -1.
         -1   -1    0    0    0  501 -0.00000000000E+00 -0.00000000000E+00 -0.18250118749E+02  0.18250118749E+02  0.00000000000E+00 0.  1.
         25    2    1    2    0    0 -0.70867512738E+02 -0.12738442926E+03  0.10414757175E+04  0.10590428533E+04  0.12510434729E+03 0.  0.
          5    1    3    3  502    0 -0.10649663761E+03 -0.99001813763E+02  0.83320232558E+03  0.84580522623E+03  0.41800000000E+01 0.  1.
         -5    1    3    3    0  502  0.35629124876E+02 -0.28382615492E+02  0.20827339196E+03  0.21323762707E+03  0.41800000000E+01 0.  1.
        -11    1    1    2    0    0  0.79307528821E+02  0.48172267903E+02  0.42331457180E+03  0.43336529420E+03  0.00000000000E+00 0.  1.
         11    1    1    2    0    0 -0.84400160825E+01  0.79212161353E+02  0.35277167728E+03  0.36165405661E+03  0.00000000000E+00 0. -1.
</event>
<event>
 7    1  0.2564986E-009  0.9722533E+02  0.7561462E-02  0.1286241E+00
          2   -1    0    0  501    0  0.00000000000E+00  0.00000000000E+00  0.49585214272E+03  0.49585214272E+03  0.00000000000E+00 0. -1.
         -2   -1    0    0    0  501 -0.00000000000E+00 -0.00000000000E+00 -0.24170998001E+02  0.24170998001E+02  0.00000000000E+00 0.  1.
         25    2    1    2    0    0 -0.70796438836E+01  0.11394093606E+02  0.27689358843E+03  0.30413457081E+03  0.12509129116E+03 0.  0.
          5    1    3    3  502    0  0.40337952085E+02 -0.19855688269E+02  0.21638427214E+03  0.22104529935E+03  0.41800000000E+01 0. -1.
         -5    1    3    3    0  502 -0.47417595969E+02  0.31249781875E+02  0.60509316287E+02  0.83089271463E+02  0.41800000000E+01 0. -1.
        -11    1    1    2    0    0 -0.18786011080E+02  0.34722807906E+02  0.96888928381E+02  0.10462338192E+03  0.00000000000E+00 0.  1.
         11    1    1    2    0    0  0.25865654964E+02 -0.46116901512E+02  0.97898627913E+02  0.11126518799E+03  0.00000000000E+00 0. -1.
</event>
<event>
 7    1  0.2564986E-009  0.8926117E+02  0.7561462E-02  0.1304651E+00
         -2   -1    0    0    0  501 -0.00000000000E+00  0.00000000000E+00  0.44295398747E+02  0.44295398747E+02  0.00000000000E+00 0.  1.
          2   -1    0    0  501    0  0.00000000000E+00 -0.00000000000E+00 -0.29778512997E+03  0.29778512997E+03  0.00000000000E+00 0. -1.
         25    2    1    2    0    0 -0.71174179758E+01 -0.35673487374E+02 -0.12581660929E+03  0.18111259842E+03  0.12509475926E+03 0.  0.
          5    1    3    3  502    0  0.27886544943E+02  0.32036011698E+01  0.14091567095E+02  0.31685440071E+02  0.41800000000E+01 0.  1.
         -5    1    3    3    0  502 -0.35003962918E+02 -0.38877088544E+02 -0.13990817638E+03  0.14942715835E+03  0.41800000000E+01 0.  1.
        -11    1    1    2    0    0  0.17479886311E+02 -0.28077969399E+02 -0.36783878711E+02  0.49466883104E+02  0.00000000000E+00 0. -1.
         11    1    1    2    0    0 -0.10362468336E+02  0.63751456773E+02 -0.90889243219E+02  0.11150104719E+03  0.00000000000E+00 0.  1.
</event>
<event>
 7    1  0.2564986E-009  0.1669303E+03  0.7561462E-02  0.1181087E+00
          2   -1    0    0  501    0  0.00000000000E+00  0.00000000000E+00  0.10471149255E+04  0.10471149255E+04  0.00000000000E+00 0. -1.
         -2   -1    0    0    0  501 -0.00000000000E+00 -0.00000000000E+00 -0.33986471123E+02  0.33986471123E+02  0.00000000000E+00 0.  1.
         25    2    1    2    0    0  0.14597460978E+03  0.85585164727E+01  0.66460905950E+03  0.69190709449E+03  0.12509352710E+03 0.  0.
          5    1    3    3  502    0  0.11343948647E+03  0.51251183603E+02  0.32484269584E+03  0.34790149518E+03  0.41800000000E+01 0. -1.
         -5    1    3    3    0  502  0.32535123319E+02 -0.42692667130E+02  0.33976636366E+03  0.34400559930E+03  0.41800000000E+01 0. -1.
        -11    1    1    2    0    0 -0.93937908023E+02  0.20100891690E+02  0.29122683937E+03  0.30666178174E+03  0.00000000000E+00 0. -1.
         11    1    1    2    0    0 -0.52036701761E+02 -0.28659408163E+02  0.57292555503E+02  0.82532520394E+02  0.00000000000E+00 0.  1.
</event>
<event>
 7    1  0.2564986E-009  0.1150909E+03  0.7561462E-02  0.1251422E+00
          2   -1    0    0  501    0  0.00000000000E+00  0.00000000000E+00  0.10024032148E+03  0.10024032148E+03  0.00000000000E+00 0. -1.
         -2   -1    0    0    0  501 -0.00000000000E+00 -0.00000000000E+00 -0.15615210327E+03  0.15615210327E+03  0.00000000000E+00 0.  1.
         25    2    1    2    0    0  0.39379687109E+02  0.47994129481E+02 -0.31619354079E+02  0.14318266927E+03  0.12508915623E+03 0.  0.
          5    1    3    3  502    0  0.60140892886E+02 -0.20453243399E+02 -0.32609638180E+02  0.71527079242E+02  0.41800000000E+01 0. -1.
         -5    1    3    3    0  502 -0.20761205777E+02  0.68447372880E+02  0.99028410116E+00  0.71655590027E+02  0.41800000000E+01 0. -1.
        -11    1    1    2    0    0 -0.56136553569E+02 -0.15380547704E+02 -0.42693851267E+02  0.72184754833E+02  0.00000000000E+00 0.  1.
         11    1    1    2    0    0  0.16756866461E+02 -0.32613581777E+02  0.18401423555E+02  0.41025000655E+02  0.00000000000E+00 0. -1.
</event>
<event>
 7    1  0.2564986E-009  0.1336906E+03  0.7561462E-02  0.1222080E+00
         -2   -1    0    0    0  501 -0.00000000000E+00  0.00000000000E+00  0.10474387921E+03  0.10474387921E+03  0.00000000000E+00 0.  1.
          2   -1    0    0  501    0  0.00000000000E+00 -0.00000000000E+00 -0.26733770140E+03  0.26733770140E+03  0.00000000000E+00 0. -1.
         25    2    1    2    0    0 -0.12179362937E+03  0.14544577831E+02 -0.12297289081E+03  0.21404202123E+03  0.12508565896E+03 0.  0.
          5    1    3    3  502    0 -0.88421638405E+02 -0.29451115725E+01 -0.14521229064E+03  0.17009156820E+03  0.41800000000E+01 0. -1.
         -5    1    3    3    0  502 -0.33371990968E+02  0.17489689404E+02  0.22239399827E+02  0.43950453027E+02  0.41800000000E+01 0. -1.
        -11    1    1    2    0    0  0.20003947778E+01 -0.20848595343E+02 -0.31471964965E+02  0.37804101441E+02  0.00000000000E+00 0. -1.
         11    1    1    2    0    0  0.11979323459E+03  0.63040175115E+01 -0.81489664106E+01  0.12023545794E+03  0.00000000000E+00 0.  1.
</event>
<event>
 7    1  0.2564986E-009  0.9543376E+02  0.7561462E-02  0.1290202E+00
         -1   -1    0    0    0  501 -0.00000000000E+00  0.00000000000E+00  0.11360313769E+03  0.11360313769E+03  0.00000000000E+00 0.  1.
          1   -1    0    0  501    0  0.00000000000E+00 -0.00000000000E+00 -0.12378797893E+03  0.12378797893E+03  0.00000000000E+00 0. -1.
         25    2    1    2    0    0  0.11070570245E+02 -0.25510955858E+02 -0.44986684415E+02  0.13581102672E+03  0.12508983495E+03 0.  0.
          5    1    3    3  502    0 -0.89697748645E+01  0.40230423824E+02  0.15427851535E+02  0.44208990774E+02  0.41800000000E+01 0. -1.
         -5    1    3    3    0  502  0.20040345110E+02 -0.65741379683E+02 -0.60414535951E+02  0.91602035943E+02  0.41800000000E+01 0. -1.
        -11    1    1    2    0    0 -0.32611436426E+02  0.42200683836E+02  0.47589966722E+02  0.71478727147E+02  0.00000000000E+00 0.  1.
         11    1    1    2    0    0  0.21540866181E+02 -0.16689727977E+02 -0.12788123553E+02  0.30101362757E+02  0.00000000000E+00 0. -1.
</event>
<event>
 7    1  0.2564986E-009  0.1073999E+03  0.7561462E-02  0.1265462E+00
          2   -1    0    0  501    0  0.00000000000E+00  0.00000000000E+00  0.17247135357E+03  0.17247135357E+03  0.00000000000E+00 0.  1.
         -2   -1    0    0    0  501 -0.00000000000E+00 -0.00000000000E+00 -0.74588416131E+02  0.74588416131E+02  0.00000000000E+00 0. -1.
         25    2    1    2    0    0 -0.28103719995E+02  0.86629085750E+01  0.68198489911E+02  0.14547423953E+03  0.12508739056E+03 0.  0.
          5    1    3    3  502    0 -0.18094849247E+02  0.66801189636E+02  0.38140609041E+02  0.79132805865E+02  0.41800000000E+01 0. -1.
         -5    1    3    3    0  502 -0.10008870747E+02 -0.58138281061E+02  0.30057880870E+02  0.66341433666E+02  0.41800000000E+01 0. -1.
        -11    1    1    2    0    0 -0.13507367763E+02 -0.34701205633E+02  0.36362844561E+02  0.52046893479E+02  0.00000000000E+00 0.  1.
         11    1    1    2    0    0  0.41611087757E+02  0.26038297058E+02 -0.66783970355E+01  0.49538636689E+02  0.00000000000E+00 0. -1.
</event>
<event>
 7    1  0.2564986E-009  0.1567300E+03  0.7561462E-02  0.1192439E+00
          1   -1    0    0  501    0  0.00000000000E+00  0.00000000000E+00  0.12433641778E+03  0.12433641778E+03  0.00000000000E+00 0. -1.
         -1   -1    0    0    0  501 -0.00000000000E+00 -0.00000000000E+00 -0.24717944010E+03  0.24717944010E+03  0.00000000000E+00 0.  1.
         25    2    1    2    0    0  0.90165450508E+02  0.85089622212E+02 -0.23982831341E+01  0.17613270653E+03  0.12508767434E+03 0.  0.
          5    1    3    3  502    0  0.68887836719E+02  0.11711583031E+03 -0.11423053320E+02  0.13641704550E+03  0.41800000000E+01 0. -1.
         -5    1    3    3    0  502  0.21277613789E+02 -0.32026208096E+02  0.90247701858E+01  0.39715661023E+02  0.41800000000E+01 0. -1.
        -11    1    1    2    0    0 -0.53188685899E+02 -0.85900563043E+01 -0.80347131578E+01  0.54473681632E+02  0.00000000000E+00 0. -1.
         11    1    1    2    0    0 -0.36976764608E+02 -0.76499565908E+02 -0.11241002603E+03  0.14090946972E+03  0.00000000000E+00 0.  1.
</event>
<event>
 7    1  0.2564986E-009  0.1037261E+03  0.7561462E-02  0.1272650E+00
          2   -1    0    0  501    0  0.00000000000E+00  0.00000000000E+00  0.32785382510E+03  0.32785382510E+03  0.00000000000E+00 0. -1.
         -2   -1    0    0    0  501 -0.00000000000E+00 -0.00000000000E+00 -0.38098791196E+02  0.38098791196E+02  0.00000000000E+00 0.  1.
         25    2    1    2    0    0 -0.91992170842E+01 -0.13011768353E+01  0.21065355901E+03  0.24516998083E+03  0.12508828450E+03 0.  0.
          5    1    3    3  502    0  0.38671660246E+02  0.44386412528E+02  0.10431618051E+03  0.11985403138E+03  0.41800000000E+01 0. -1.
         -5    1    3    3    0  502 -0.47870877330E+02 -0.45687589363E+02  0.10633737850E+03  0.12531594944E+03  0.41800000000E+01 0. -1.
        -11    1    1    2    0    0 -0.31955732801E+02  0.19166655872E+02  0.10326361061E+02  0.38667341374E+02  0.00000000000E+00 0.  1.
         11    1    1    2    0    0  0.41154949886E+02 -0.17865479037E+02  0.68775113831E+02  0.82115294091E+02  0.00000000000E+00 0. -1.
</event>
<event>
 7    1  0.2564986E-009  0.2354195E+03  0.7561462E-02  0.1122882E+00
         -2   -1    0    0    0  501 -0.00000000000E+00  0.00000000000E+00  0.26381758612E+03  0.26381758612E+03  0.00000000000E+00 0.  1.
          2   -1    0    0  501    0  0.00000000000E+00 -0.00000000000E+00 -0.24360575488E+03  0.24360575488E+03  0.00000000000E+00 0. -1.
         25    2    1    2    0    0 -0.14231416771E+03 -0.16961026243E+03  0.69277636907E+02  0.26357117618E+03  0.12509760384E+03 0.  0.
          5    1    3    3  502    0 -0.44130132432E+02 -0.11626978359E+03 -0.12474613603E+02  0.12505686526E+03  0.41800000000E+01 0.  1.
         -5    1    3    3    0  502 -0.98184035279E+02 -0.53340478841E+02  0.81752250510E+02  0.13851431092E+03  0.41800000000E+01 0.  1.
        -11    1    1    2    0    0  0.10193405790E+03  0.61179196198E+02 -0.47815200946E+02  0.12813953195E+03  0.00000000000E+00 0.  1.
         11    1    1    2    0    0  0.40380109808E+02  0.10843106623E+03 -0.12506047143E+01  0.11571263286E+03  0.00000000000E+00 0. -1.
</event>
<event>
 7    1  0.2564986E-009  0.1025550E+03  0.7561462E-02  0.1275013E+00
         -2   -1    0    0    0  501 -0.00000000000E+00  0.00000000000E+00  0.97664649600E+02  0.97664649600E+02  0.00000000000E+00 0. -1.
          2   -1    0    0  501    0  0.00000000000E+00 -0.00000000000E+00 -0.14384720286E+03  0.14384720286E+03  0.00000000000E+00 0.  1.
         25    2    1    2    0    0  0.14047020193E+02 -0.44077683191E+02 -0.27598851453E+02  0.13620053029E+03  0.12509487167E+03 0.  0.
          5    1    3    3  502    0  0.52761808755E+02 -0.63380934939E+02 -0.38923217751E+02  0.91287680751E+02  0.41800000000E+01 0. -1.
         -5    1    3    3    0  502 -0.38714788563E+02  0.19303251748E+02  0.11324366297E+02  0.44912849537E+02  0.41800000000E+01 0. -1.
        -11    1    1    2    0    0 -0.37581494698E+02  0.12324732318E+02 -0.43340472825E+02  0.58674222237E+02  0.00000000000E+00 0.  1.
         11    1    1    2    0    0  0.23534474505E+02  0.31752950873E+02  0.24756771016E+02  0.46637099937E+02  0.00000000000E+00 0. -1.
</event>
<event>
 7    1  0.2564986E-009  0.1174649E+03  0.7561462E-02  0.1247339E+00
         -2   -1    0    0    0  501 -0.00000000000E+00  0.00000000000E+00  0.19248993412E+03  0.19248993412E+03  0.00000000000E+00 0.  1.
          2   -1    0    0  501    0  0.00000000000E+00 -0.00000000000E+00 -0.77753608663E+02  0.77753608663E+02  0.00000000000E+00 0. -1.
         25    2    1    2    0    0  0.34842275093E+02 -0.21995069390E+02  0.82004059372E+02  0.15514442966E+03  0.12508941238E+03 0.  0.
          5    1    3    3  502    0 -0.24745535514E+02  0.38194188926E+02  0.18962799867E+02  0.49479266106E+02  0.41800000000E+01 0.  1.
         -5    1    3    3    0  502  0.59587810606E+02 -0.60189258315E+02  0.63041259504E+02  0.10566516356E+03  0.41800000000E+01 0.  1.
        -11    1    1    2    0    0 -0.63200268986E+02  0.36071476045E+02  0.48819711141E+01  0.72933250483E+02  0.00000000000E+00 0.  1.
         11    1    1    2    0    0  0.28357993894E+02 -0.14076406656E+02  0.27850294968E+02  0.42165862636E+02  0.00000000000E+00 0. -1.
</event>
<event>
 7    1  0.2564986E-009  0.1160058E+03  0.7561462E-02  0.1249836E+00
         -2   -1    0    0    0  501 -0.00000000000E+00  0.00000000000E+00  0.17397638424E+02  0.17397638424E+02  0.00000000000E+00 0.  1.
          2   -1    0    0  501    0  0.00000000000E+00 -0.00000000000E+00 -0.93151406129E+03  0.93151406129E+03  0.00000000000E+00 0. -1.
         25    2    1    2    0    0  0.27729785080E+02 -0.55724323585E+02 -0.43814232343E+03  0.45988011309E+03  0.12508749586E+03 0.  0.
          5    1    3    3  502    0  0.14254310883E+02 -0.92388046962E+02 -0.23445153358E+03  0.25243559693E+03  0.41800000000E+01 0. -1.
         -5    1    3    3    0  502  0.13475474197E+02  0.36663723378E+02 -0.20369078985E+03  0.20744451616E+03  0.41800000000E+01 0. -1.
        -11    1    1    2    0    0  0.20030370301E+02 -0.61831186907E+01 -0.32203363996E+02  0.38425295624E+02  0.00000000000E+00 0.  1.
         11    1    1    2    0    0 -0.47760155381E+02  0.61907442275E+02 -0.44377073544E+03  0.45060629100E+03  0.00000000000E+00 0. -1.
</event>
<event>
 7    1  0.2564986E-009  0.1616976E+03  0.7561462E-02  0.1186793E+00
         -1   -1    0    0    0  501 -0.00000000000E+00  0.00000000000E+00  0.14728006293E+03  0.14728006293E+03  0.00000000000E+00 0.  1.
          1   -1    0    0  501    0  0.00000000000E+00 -0.00000000000E+00 -0.23644339261E+03  0.23644339261E+03  0.00000000000E+00 0. -1.
         25    2    1    2    0    0  0.97666065651E+02 -0.76918247047E+02 -0.13618079135E+03  0.22281836290E+03  0.12509091815E+03 0.  0.
          5    1    3    3  502    0  0.98855696796E+02  0.12850671638E+00 -0.82329637045E+02  0.12871715829E+03  0.41800000000E+01 0. -1.
         -5    1    3    3    0  502 -0.11896311450E+01 -0.77046753764E+02 -0.53851154304E+02  0.94101204602E+02  0.41800000000E+01 0. -1.
        -11    1    1    2    0    0 -0.65916795462E+01  0.52607281101E+02 -0.49790584044E+01  0.53251922845E+02  0.00000000000E+00 0. -1.
         11    1    1    2    0    0 -0.91074386105E+02  0.24310965946E+02  0.51996520072E+02  0.10765316981E+03  0.00000000000E+00 0.  1.
</event>
<event>
 7    1  0.2564986E-009  0.2427165E+03  0.7561462E-02  0.1117996E+00
          1   -1    0    0  501    0  0.00000000000E+00  0.00000000000E+00  0.72610924246E+02  0.72610924246E+02  0.00000000000E+00 0. -1.
         -1   -1    0    0    0  501 -0.00000000000E+00 -0.00000000000E+00 -0.96738830737E+03  0.96738830737E+03  0.00000000000E+00 0.  1.
         25    2    1    2    0    0  0.33148531148E+02 -0.23679912863E+03 -0.54785918713E+03  0.61071250758E+03  0.12508967005E+03 0.  0.
          5    1    3    3  502    0  0.42788791831E+02 -0.22099042342E+03 -0.54721737303E+03  0.59171950592E+03  0.41800000000E+01 0. -1.
         -5    1    3    3    0  502 -0.96402606832E+01 -0.15808705212E+02 -0.64181410439E+00  0.18993001655E+02  0.41800000000E+01 0. -1.
        -11    1    1    2    0    0 -0.15843465039E+02  0.20027755635E+03 -0.22900408199E+03  0.30463910538E+03  0.00000000000E+00 0. -1.
         11    1    1    2    0    0 -0.17305066109E+02  0.36521572278E+02 -0.11791411401E+03  0.12464761866E+03  0.00000000000E+00 0.  1.
</event>
<event>
 7    1  0.2564986E-009  0.1062628E+03  0.7561462E-02  0.1267651E+00
          3   -1    0    0  501    0  0.00000000000E+00  0.00000000000E+00  0.56683045729E+02  0.56683045729E+02  0.00000000000E+00 0. -1.
         -3   -1    0    0    0  501 -0.00000000000E+00 -0.00000000000E+00 -0.35429572039E+03  0.35429572039E+03  0.00000000000E+00 0.  1.
         25    2    1    2    0    0  0.27051854911E+02 -0.63564833669E+02 -0.25213218189E+03  0.28981134724E+03  0.12509072272E+03 0.  0.
          5    1    3    3  502    0 -0.45087488207E+02 -0.67255848502E+01 -0.50216630291E+02  0.67950698614E+02  0.41800000000E+01 0. -1.
         -5    1    3    3    0  502  0.72139343118E+02 -0.56839248819E+02 -0.20191555160E+03  0.22186064863E+03  0.41800000000E+01 0. -1.
        -11    1    1    2    0    0 -0.34961240852E+01  0.44144622625E+02 -0.69440663431E+02  0.82358826656E+02  0.00000000000E+00 0.  1.
         11    1    1    2    0    0 -0.23555730826E+02  0.19420211044E+02  0.23960170663E+02  0.38808592218E+02  0.00000000000E+00 0. -1.
</event>
<event>
 7    1  0.2564986E-009  0.1193738E+03  0.7561462E-02  0.1244134E+00
         -2   -1    0    0    0  501 -0.00000000000E+00  0.00000000000E+00  0.68326473694E+02  0.68326473694E+02  0.00000000000E+00 0.  1.
          2   -1    0    0  501    0  0.00000000000E+00 -0.00000000000E+00 -0.30962583974E+03  0.30962583974E+03  0.00000000000E+00 0. -1.
         25    2    1    2    0    0 -0.56126145421E+01  0.76899845128E+02 -0.20655800691E+03  0.25349214847E+03  0.12508785510E+03 0.  0.
          5    1    3    3  502    0  0.47422072688E+02  0.76316369977E+02 -0.15614060007E+03  0.18019545137E+03  0.41800000000E+01 0.  1.
         -5    1    3    3    0  502 -0.53034687230E+02  0.58347515155E+00 -0.50417406840E+02  0.73296697097E+02  0.41800000000E+01 0.  1.
        -11    1    1    2    0    0  0.21326584459E+02 -0.48721560955E+01  0.22306568881E+02  0.31243305282E+02  0.00000000000E+00 0.  1.
         11    1    1    2    0    0 -0.15713969917E+02 -0.72027689033E+02 -0.57047928008E+02  0.93216859677E+02  0.00000000000E+00 0. -1.
</event>
<event>
 7    1  0.2564986E-009  0.1033344E+03  0.7561462E-02  0.1273436E+00
         -2   -1    0    0    0  501 -0.00000000000E+00  0.00000000000E+00  0.49911760847E+03  0.49911760847E+03  0.00000000000E+00 0.  1.
          2   -1    0    0  501    0  0.00000000000E+00 -0.00000000000E+00 -0.29471186361E+02  0.29471186361E+02  0.00000000000E+00 0. -1.
         25    2    1    2    0    0 -0.10241430470E+01 -0.47272248731E+02  0.34919207797E+03  0.37392101617E+03  0.12508439010E+03 0.  0.
          5    1    3    3  502    0  0.13944210078E+02  0.41144215003E+02  0.10261368512E+03  0.11150931888E+03  0.41800000000E+01 0. -1.
         -5    1    3    3    0  502 -0.14968353125E+02 -0.88416463735E+02  0.24657839285E+03  0.26241169729E+03  0.41800000000E+01 0. -1.
        -11    1    1    2    0    0  0.24969387697E+02  0.62272704595E+01  0.99428501758E+02  0.10270480116E+03  0.00000000000E+00 0.  1.
         11    1    1    2    0    0 -0.23945244650E+02  0.41044978272E+02  0.21025842377E+02  0.51962977497E+02  0.00000000000E+00 0. -1.
</event>
<event>
 7    1  0.2564986E-009  0.1228811E+03  0.7561462E-02  0.1238418E+00
         -2   -1    0    0    0  501 -0.00000000000E+00  0.00000000000E+00  0.98064164294E+02  0.98064164294E+02  0.00000000000E+00 0.  1.
          2   -1    0    0  501    0  0.00000000000E+00 -0.00000000000E+00 -0.22301462081E+03  0.22301462081E+03  0.00000000000E+00 0. -1.
         25    2    1    2    0    0 -0.61566512176E+02  0.67201852711E+02 -0.11167166432E+03  0.19085366924E+03  0.12509211814E+03 0.  0.
          5    1    3    3  502    0 -0.74280865762E+02  0.12097388428E+02 -0.12203856668E+02  0.76357058238E+02  0.41800000000E+01 0. -1.
         -5    1    3    3    0  502  0.12714353586E+02  0.55104464283E+02 -0.99467807653E+02  0.11449661100E+03  0.41800000000E+01 0. -1.
        -11    1    1    2    0    0 -0.14230202497E+02 -0.19434697424E+02 -0.30631080816E+02  0.38967540839E+02  0.00000000000E+00 0. -1.
         11    1    1    2    0    0  0.75796714673E+02 -0.47767155287E+02  0.17352288621E+02  0.91257575027E+02  0.00000000000E+00 0.  1.
</event>
<event>
 7    1  0.2564986E-009  0.9579668E+02  0.7561462E-02  0.1289392E+00
          1   -1    0    0  501    0  0.00000000000E+00  0.00000000000E+00  0.12435732503E+03  0.12435732503E+03  0.00000000000E+00 0. -1.
         -1   -1    0    0    0  501 -0.00000000000E+00 -0.00000000000E+00 -0.10047057705E+03  0.10047057705E+03  0.00000000000E+00 0.  1.
         25    2    1    2    0    0 -0.11838075985E+02  0.72304832396E+01  0.39409458416E+02  0.13188346725E+03  0.12509086134E+03 0.  0.
          5    1    3    3  502    0 -0.51728477029E+02 -0.27070656955E+02  0.51246229757E+02  0.77796556916E+02  0.41800000000E+01 0. -1.
         -5    1    3    3    0  502  0.39890401043E+02  0.34301140194E+02 -0.11836771341E+02  0.54086910337E+02  0.41800000000E+01 0. -1.
        -11    1    1    2    0    0  0.42485135615E+02 -0.20155059285E+02  0.13369434742E+02  0.48887165476E+02  0.00000000000E+00 0. -1.
         11    1    1    2    0    0 -0.30647059629E+02  0.12924576045E+02 -0.28892145175E+02  0.44057269351E+02  0.00000000000E+00 0.  1.
</event>
<event>
 7    1  0.2564986E-009  0.1015788E+03  0.7561462E-02  0.1277011E+00
         -2   -1    0    0    0  501 -0.00000000000E+00  0.00000000000E+00  0.22877875169E+02  0.22877875169E+02  0.00000000000E+00 0.  1.
          2   -1    0    0  501    0  0.00000000000E+00 -0.00000000000E+00 -0.15609983979E+04  0.15609983979E+04  0.00000000000E+00 0. -1.
         25    2    1    2    0    0 -0.27417050672E+02 -0.32562535996E+01 -0.14468366412E+04  0.14524963882E+04  0.12508874259E+03 0.  0.
          5    1    3    3  502    0 -0.56479841763E+02 -0.42857090962E+02 -0.10842604435E+04  0.10865840439E+04  0.41800000000E+01 0.  1.
         -5    1    3    3    0  502  0.29062791091E+02  0.39600837363E+02 -0.36257619775E+03  0.36591234431E+03  0.41800000000E+01 0.  1.
        -11    1    1    2    0    0  0.18679763731E+02 -0.37104353753E+02 -0.77346103370E+02  0.87795708021E+02  0.00000000000E+00 0. -1.
         11    1    1    2    0    0  0.87372869410E+01  0.40360607353E+02 -0.13937778101E+02  0.43584176800E+02  0.00000000000E+00 0.  1.
</event>
<event>
 7    1  0.2564986E-009  0.2238271E+03  0.7561462E-02  0.1131062E+00
          2   -1    0    0  501    0  0.00000000000E+00  0.00000000000E+00  0.86854500050E+03  0.86854500050E+03  0.00000000000E+00 0. -1.
         -2   -1    0    0    0  501 -0.00000000000E+00 -0.00000000000E+00 -0.81463654884E+02  0.81463654884E+02  0.00000000000E+00 0.  1.
         25    2    1    2    0    0 -0.21212705316E+03 -0.29645815628E+02  0.60887011862E+03  0.65745477102E+03  0.12508874260E+03 0.  0.
          5    1    3    3  502    0 -0.18419262183E+03 -0.53954609804E+02  0.57805064826E+03  0.60909608947E+03  0.41800000000E+01 0.  1.
         -5    1    3    3    0  502 -0.27934431337E+02  0.24308794175E+02  0.30819470365E+02  0.48358681557E+02  0.41800000000E+01 0.  1.
        -11    1    1    2    0    0  0.12051890363E+03 -0.46105595906E+01  0.48245196575E+02  0.12989866198E+03  0.00000000000E+00 0.  1.
         11    1    1    2    0    0  0.91608149534E+02  0.34256375219E+02  0.12996603042E+03  0.16265522238E+03  0.00000000000E+00 0. -1.
</event>
<event>
 7    1  0.2564986E-009  0.1031346E+03  0.7561462E-02  0.1273839E+00
         -2   -1    0    0    0  501 -0.00000000000E+00  0.00000000000E+00  0.31256677215E+02  0.31256677215E+02  0.00000000000E+00 0.  1.
          2   -1    0    0  501    0  0.00000000000E+00 -0.00000000000E+00 -0.91724081024E+03  0.91724081024E+03  0.00000000000E+00 0. -1.
         25    2    1    2    0    0  0.21756655677E+02  0.50739818113E+02 -0.80029983570E+03  0.81189801203E+03  0.12510265267E+03 0.  0.
          5    1    3    3  502    0 -0.43513923011E+02 -0.12060273546E+02 -0.30753123917E+03  0.31085663442E+03  0.41800000000E+01 0. -1.
         -5    1    3    3    0  502  0.65270578687E+02  0.62800091659E+02 -0.49276859653E+03  0.50104137761E+03  0.41800000000E+01 0. -1.
        -11    1    1    2    0    0  0.21255006216E+00 -0.48124038795E+02 -0.20239667630E-01  0.48124512435E+02  0.00000000000E+00 0.  1.
         11    1    1    2    0    0 -0.21969205739E+02 -0.26157793182E+01 -0.85664057657E+02  0.88474962992E+02  0.00000000000E+00 0. -1.
</event>
<event>
 7    1  0.2564986E-009  0.1153872E+03  0.7561462E-02  0.1250907E+00
         -2   -1    0    0    0  501 -0.00000000000E+00  0.00000000000E+00  0.11670395520E+03  0.11670395520E+03  0.00000000000E+00 0.  1.
          2   -1    0    0  501    0  0.00000000000E+00 -0.00000000000E+00 -0.13534635698E+03  0.13534635698E+03  0.00000000000E+00 0. -1.
         25    2    1    2    0    0  0.25234498661E+02  0.57377168314E+02 -0.11626266116E+02  0.14040623168E+03  0.12509924247E+03 0.  0.
          5    1    3    3  502    0  0.65382164909E+02 -0.36195782832E+01 -0.14531789381E+02  0.67205462112E+02  0.41800000000E+01 0. -1.
         -5    1    3    3    0  502 -0.40147666248E+02  0.60996746597E+02  0.29055232652E+01  0.73200769572E+02  0.41800000000E+01 0. -1.
        -11    1    1    2    0    0  0.23187621408E+02 -0.14572334123E+02 -0.32209014275E+02  0.42278118560E+02  0.00000000000E+00 0. -1.
         11    1    1    2    0    0 -0.48422120069E+02 -0.42804834191E+02  0.25192878611E+02  0.69365961932E+02  0.00000000000E+00 0.  1.
</event>
<event>
 7    1  0.2564986E-009  0.1286263E+03  0.7561462E-02  0.1229508E+00
          1   -1    0    0  501    0  0.00000000000E+00  0.00000000000E+00  0.82326098150E+02  0.82326098150E+02  0.00000000000E+00 0. -1.
         -1   -1    0    0    0  501 -0.00000000000E+00 -0.00000000000E+00 -0.26801532291E+03  0.26801532291E+03  0.00000000000E+00 0.  1.
         25    2    1    2    0    0 -0.60141347987E+02  0.79997335447E+02 -0.11414461712E+03  0.19670535220E+03  0.12508975398E+03 0.  0.
          5    1    3    3  502    0  0.30217484305E+02  0.40648393154E+00  0.32852183091E+00  0.30509701957E+02  0.41800000000E+01 0. -1.
         -5    1    3    3    0  502 -0.90358832292E+02  0.79590851515E+02 -0.11447313895E+03  0.16619565024E+03  0.41800000000E+01 0. -1.
        -11    1    1    2    0    0  0.13513763093E+02 -0.47598981847E+02  0.13582986056E+02  0.51310645835E+02  0.00000000000E+00 0. -1.
         11    1    1    2    0    0  0.46627584895E+02 -0.32398353600E+02 -0.85127593704E+02  0.10232542303E+03  0.00000000000E+00 0.  1.
</event>
<event>
 7    1  0.2564986E-009  0.1385139E+03  0.7561462E-02  0.1215343E+00
         -2   -1    0    0    0  501 -0.00000000000E+00  0.00000000000E+00  0.43723578311E+03  0.43723578311E+03  0.00000000000E+00 0.  1.
          2   -1    0    0  501    0  0.00000000000E+00 -0.00000000000E+00 -0.64019878252E+02  0.64019878252E+02  0.00000000000E+00 0. -1.
         25    2    1    2    0    0 -0.15235888988E+01  0.11606498278E+03  0.27612147617E+03  0.32460166573E+03  0.12509904174E+03 0.  0.
          5    1    3    3  502    0 -0.52680565586E+02  0.58529046205E+02  0.73472071286E+02  0.10777990953E+03  0.41800000000E+01 0. -1.
         -5    1    3    3    0  502  0.51156976687E+02  0.57535936570E+02  0.20264940488E+03  0.21682175620E+03  0.41800000000E+01 0. -1.
        -11    1    1    2    0    0 -0.16254221676E+02 -0.46166816362E+02 -0.75898966755E+01  0.49529599098E+02  0.00000000000E+00 0. -1.
         11    1    1    2    0    0  0.17777810574E+02 -0.69898166414E+02  0.10468432536E+03  0.12712439653E+03  0.00000000000E+00 0.  1.
</event>
<event>
 7    1  0.2564986E-009  0.1230791E+03  0.7561462E-02  0.1238102E+00
          1   -1    0    0  501    0  0.00000000000E+00  0.00000000000E+00  0.48973481966E+02  0.48973481966E+02  0.00000000000E+00 0. -1.
         -1   -1    0    0    0  501 -0.00000000000E+00 -0.00000000000E+00 -0.38067711529E+03  0.38067711529E+03  0.00000000000E+00 0.  1.
         25    2    1    2    0    0 -0.66629926140E+02 -0.38274521467E+02 -0.22797050541E+03  0.27115093252E+03  0.12509113007E+03 0.  0.
          5    1    3    3  502    0 -0.10245582014E+03 -0.40018879679E+02 -0.16039634545E+03  0.19453319985E+03  0.41800000000E+01 0. -1.
         -5    1    3    3    0  502  0.35825893997E+02  0.17443582126E+01 -0.67574159958E+02  0.76617732676E+02  0.41800000000E+01 0. -1.
        -11    1    1    2    0    0  0.64837552823E+01  0.39287580323E+02 -0.14581206975E+01  0.39845691940E+02  0.00000000000E+00 0. -1.
         11    1    1    2    0    0  0.60146170858E+02 -0.10130588567E+01 -0.10227500722E+03  0.11865397279E+03  0.00000000000E+00 0.  1.
</event>
<event>
 7    1  0.2564986E-009  0.1368628E+03  0.7561462E-02  0.1217614E+00
         -2   -1    0    0    0  501 -0.00000000000E+00  0.00000000000E+00  0.23492829478E+02  0.23492829478E+02  0.00000000000E+00 0.  1.
          2   -1    0    0  501    0  0.00000000000E+00 -0.00000000000E+00 -0.13712135282E+04  0.13712135282E+04  0.00000000000E+00 0. -1.
         25    2    1    2    0    0  0.61263396745E+02 -0.97555171493E+02 -0.10126660801E+04  0.10268452107E+04  0.12509309236E+03 0.  0.
          5    1    3    3  502    0 -0.65646143389E+01  0.10504717437E+02 -0.11021916030E+02  0.17099657389E+02  0.41800000000E+01 0. -1.
         -5    1    3    3    0  502  0.67828011084E+02 -0.10805988893E+03 -0.10016441640E+04  0.10097455533E+04  0.41800000000E+01 0. -1.
        -11    1    1    2    0    0 -0.66454758368E+02  0.45157078206E+02 -0.10700270997E+03  0.13380947860E+03  0.00000000000E+00 0.  1.
         11    1    1    2    0    0  0.51913616229E+01  0.52398093287E+02 -0.22805190869E+03  0.23405166839E+03  0.00000000000E+00 0. -1.
</event>
<event>
 7    1  0.2564986E-009  0.5874095E+02  0.7561462E-02  0.1403193E+00
         -1   -1    0    0    0  501 -0.00000000000E+00  0.00000000000E+00  0.55158917399E+02  0.55158917399E+02  0.00000000000E+00 0.  1.
          1   -1    0    0  501    0  0.00000000000E+00 -0.00000000000E+00 -0.27964015080E+03  0.27964015080E+03  0.00000000000E+00 0. -1.
         25    2    1    2    0    0  0.13523881374E+02 -0.67884337799E+00 -0.49339057867E+02  0.13515249390E+03  0.12509395581E+03 0.  0.
          5    1    3    3  502    0  0.90930902316E+01 -0.12817332055E+02  0.40838976427E+02  0.43957510013E+02  0.41800000000E+01 0.  1.
         -5    1    3    3    0  502  0.44307911429E+01  0.12138488677E+02 -0.90178034294E+02  0.91194983890E+02  0.41800000000E+01 0.  1.
        -11    1    1    2    0    0 -0.50442259705E+02 -0.30408970655E+01 -0.13878181398E+03  0.14769583783E+03  0.00000000000E+00 0. -1.
         11    1    1    2    0    0  0.36918378330E+02  0.37197404435E+01 -0.36360361550E+02  0.51950736468E+02  0.00000000000E+00 0.  1.
</event>
<event>
 7    1  0.2564986E-009  0.1044015E+03  0.7561462E-02  0.1271303E+00
         -1   -1    0    0    0  501 -0.00000000000E+00  0.00000000000E+00  0.12604723128E+03  0.12604723128E+03  0.00000000000E+00 0.  1.
          1   -1    0    0  501    0  0.00000000000E+00 -0.00000000000E+00 -0.16501956061E+03  0.16501956061E+03  0.00000000000E+00 0. -1.
         25    2    1    2    0    0 -0.64743721930E+02 -0.18396648109E+02  0.37101375175E+02  0.14681476605E+03  0.12509147573E+03 0.  0.
          5    1    3    3  502    0 -0.89866282072E+02  0.22653577197E+02  0.16188326416E+02  0.94173603125E+02  0.41800000000E+01 0. -1.
         -5    1    3    3    0  502  0.25122560142E+02 -0.41050225307E+02  0.20913048759E+02  0.52641162926E+02  0.41800000000E+01 0. -1.
        -11    1    1    2    0    0  0.20949215946E+02  0.23496795340E+01  0.25139836065E+02  0.32808565955E+02  0.00000000000E+00 0.  1.
         11    1    1    2    0    0  0.43794505984E+02  0.16046968576E+02 -0.10121354057E+03  0.11144345988E+03  0.00000000000E+00 0. -1.
</event>
<event>
 7    1  0.2564986E-009  0.9802951E+02  0.7561462E-02  0.1284495E+00
         -2   -1    0    0    0  501 -0.00000000000E+00  0.00000000000E+00  0.50979374387E+02  0.50979374387E+02  0.00000000000E+00 0.  1.
          2   -1    0    0  501    0  0.00000000000E+00 -0.00000000000E+00 -0.41508092645E+03  0.41508092645E+03  0.00000000000E+00 0. -1.
         25    2    1    2    0    0  0.28195080246E+02  0.80965101955E+02 -0.27327168464E+03  0.31253037971E+03  0.12509002491E+03 0.  0.
          5    1    3    3  502    0  0.40449747535E+02  0.44297244654E+02 -0.26632359503E+03  0.27302775981E+03  0.41800000000E+01 0. -1.
         -5    1    3    3    0  502 -0.12254667289E+02  0.36667857301E+02 -0.69480896101E+01  0.39502619896E+02  0.41800000000E+01 0. -1.
        -11    1    1    2    0    0  0.67522596470E+01 -0.49674357269E+02 -0.93980931178E+02  0.10651549280E+03  0.00000000000E+00 0. -1.
         11    1    1    2    0    0 -0.34947339893E+02 -0.31290744686E+02  0.31510637542E+01  0.47014428332E+02  0.00000000000E+00 0.  1.
</event>
<event>
 7    1  0.3484882E-009  0.1007240E+03  0.7561462E-02  0.1278781E+00
          2   -1    0    0  501    0  0.00000000000E+00  0.00000000000E+00  0.46977224523E+03  0.46977224523E+03  0.00000000000E+00 0. -1.
         -2   -1    0    0    0  501 -0.00000000000E+00 -0.00000000000E+00 -0.41894605230E+02  0.41894605230E+02  0.00000000000E+00 0.  1.
         25    2    1    2    0    0 -0.21515272132E+02 -0.80764814134E+02  0.18271874109E+03  0.23668580619E+03  0.12509264714E+03 0.  0.
          5    1    3    3  502    0 -0.37109131591E+02 -0.54941410241E+02  0.19333811638E+03  0.20443274163E+03  0.41800000000E+01 0. -1.
         -5    1    3    3    0  502  0.15593859459E+02 -0.25823403893E+02 -0.10619375291E+02  0.32253064552E+02  0.41800000000E+01 0. -1.
        -11    1    1    2    0    0  0.43751058249E+02  0.47808702597E+02  0.70107549408E+02  0.95471962512E+02  0.00000000000E+00 0.  1.
         11    1    1    2    0    0 -0.22235786117E+02  0.32956111537E+02  0.17505134950E+03  0.17950908176E+03  0.00000000000E+00 0. -1.
</event>
<event>
 7    1  0.2564986E-009  0.2558365E+03  0.7561462E-02  0.1109671E+00
         -1   -1    0    0    0  501 -0.00000000000E+00  0.00000000000E+00  0.12573424651E+03  0.12573424651E+03  0.00000000000E+00 0.  1.
          1   -1    0    0  501    0  0.00000000000E+00 -0.00000000000E+00 -0.98630277306E+03  0.98630277306E+03  0.00000000000E+00 0. -1.
         25    2    1    2    0    0 -0.89014553018E+02 -0.22719700809E+03 -0.74830450058E+02  0.28423499629E+03  0.12509142946E+03 0.  0.
          5    1    3    3  502    0  0.70833427532E+01 -0.21142064922E+01 -0.35277759261E+02  0.36285483490E+02  0.41800000000E+01 0.  1.
         -5    1    3    3    0  502 -0.96097895771E+02 -0.22508280160E+03 -0.39552690797E+02  0.24794951280E+03  0.41800000000E+01 0.  1.
        -11    1    1    2    0    0  0.19380266935E+02  0.16154436119E+03 -0.44221017837E+03  0.47119212348E+03  0.00000000000E+00 0.  1.
         11    1    1    2    0    0  0.69634286083E+02  0.65652646900E+02 -0.34352789813E+03  0.35660989980E+03  0.00000000000E+00 0. -1.
</event>
<event>
 7    1  0.2564986E-009  0.7582535E+02  0.7561462E-02  0.1341334E+00
          1   -1    0    0  501    0  0.00000000000E+00  0.00000000000E+00  0.65510787246E+03  0.65510787246E+03  0.00000000000E+00 0. -1.
         -1   -1    0    0    0  501 -0.00000000000E+00 -0.00000000000E+00 -0.20983197788E+02  0.20983197788E+02  0.00000000000E+00 0.  1.
         25    2    1    2    0    0  0.15406115899E+02  0.28127939010E+01  0.47935048124E+03  0.49565028378E+03  0.12508820780E+03 0.  0.
          5    1    3    3  502    0  0.12216964572E+02 -0.38473805987E+02  0.42627420040E+03  0.42820165144E+03  0.41800000000E+01 0. -1.
         -5    1    3    3    0  502  0.31891513276E+01  0.41286599888E+02  0.53076280834E+02  0.67448632333E+02  0.41800000000E+01 0. -1.
        -11    1    1    2    0    0  0.23376794740E+02 -0.16175514802E+02  0.10267726480E+02  0.30224956881E+02  0.00000000000E+00 0.  1.
         11    1    1    2    0    0 -0.38782910639E+02  0.13362720901E+02  0.14450646695E+03  0.15021582959E+03  0.00000000000E+00 0. -1.
</event>
<event>
 7    1  0.2564986E-009  0.1169131E+03  0.7561462E-02  0.1248278E+00
          1   -1    0    0  501    0  0.00000000000E+00  0.00000000000E+00  0.49012714689E+03  0.49012714689E+03  0.00000000000E+00 0. -1.
         -1   -1    0    0    0  501 -0.00000000000E+00 -0.00000000000E+00 -0.43627407729E+02  0.43627407729E+02  0.00000000000E+00 0.  1.
         25    2    1    2    0    0 -0.84250386834E+02 -0.43653582329E+02  0.28524214340E+03  0.32559487481E+03  0.12508069077E+03 0.  0.
          5    1    3    3  502    0 -0.31782756729E+02  0.52298547756E+01  0.10843462594E+01  0.32498357083E+02  0.41800000000E+01 0.  1.
         -5    1    3    3    0  502 -0.52467630105E+02 -0.48883437104E+02  0.28415779714E+03  0.29309651773E+03  0.41800000000E+01 0.  1.
        -11    1    1    2    0    0  0.69635278985E+02 -0.13144480734E+02  0.69482138557E+02  0.99245236821E+02  0.00000000000E+00 0.  1.
         11    1    1    2    0    0  0.14615107848E+02  0.56798063063E+02  0.91775457204E+02  0.10891444298E+03  0.00000000000E+00 0. -1.
</event>
<event>
 7    1  0.3754921E-009  0.1613973E+03  0.7561462E-02  0.1187128E+00
         -1   -1    0    0    0  501 -0.00000000000E+00  0.00000000000E+00  0.27293460399E+02  0.27293460399E+02  0.00000000000E+00 0.  1.
          1   -1    0    0  501    0  0.00000000000E+00 -0.00000000000E+00 -0.13221514561E+04  0.13221514561E+04  0.00000000000E+00 0. -1.
         25    2    1    2    0    0 -0.64370052283E+02  0.13631410781E+03 -0.54383637573E+03  0.57804401106E+03  0.12510729610E+03 0.  0.
          5    1    3    3  502    0 -0.40217259739E+02  0.10582778527E+03 -0.52008261263E+03  0.53227844638E+03  0.41800000000E+01 0. -1.
         -5    1    3    3    0  502 -0.24152792544E+02  0.30486322532E+02 -0.23753763093E+02  0.45765564678E+02  0.41800000000E+01 0. -1.
        -11    1    1    2    0    0  0.11266677754E+01 -0.94642477305E+02 -0.51172663437E+03  0.52040620309E+03  0.00000000000E+00 0.  1.
         11    1    1    2    0    0  0.63243384508E+02 -0.41671630500E+02 -0.23929498560E+03  0.25099470235E+03  0.00000000000E+00 0. -1.
</event>
<event>
 7    1  0.2564986E-009  0.1050936E+03  0.7561462E-02  0.1269935E+00
         -2   -1    0    0    0  501 -0.00000000000E+00  0.00000000000E+00  0.50341817134E+02  0.50341817134E+02  0.00000000000E+00 0.  1.
          2   -1    0    0  501    0  0.00000000000E+00 -0.00000000000E+00 -0.33407583891E+03  0.33407583891E+03  0.00000000000E+00 0. -1.
         25    2    1    2    0    0  0.53424735045E+02  0.45203047780E+02 -0.15439372564E+03  0.21067148361E+03  0.12509010211E+03 0.  0.
          5    1    3    3  502    0  0.19524817985E+02  0.56718673715E+02 -0.16289328343E+03  0.17363732506E+03  0.41800000000E+01 0. -1.
         -5    1    3    3    0  502  0.33899917060E+02 -0.11515625934E+02  0.84995577910E+01  0.37034158556E+02  0.41800000000E+01 0. -1.
        -11    1    1    2    0    0 -0.25289753314E+02 -0.71290059898E+02 -0.69875960413E+02  0.10297812441E+03  0.00000000000E+00 0.  1.
         11    1    1    2    0    0 -0.28134981731E+02  0.26087012118E+02 -0.59464335722E+02  0.70768048024E+02  0.00000000000E+00 0. -1.
</event>
<event>
 7    1  0.2564986E-009  0.1039322E+03  0.7561462E-02  0.1272238E+00
          2   -1    0    0  501    0  0.00000000000E+00  0.00000000000E+00  0.60792643555E+03  0.60792643555E+03  0.00000000000E+00 0. -1.
         -2   -1    0    0    0  501 -0.00000000000E+00 -0.00000000000E+00 -0.29795581063E+02  0.29795581063E+02  0.00000000000E+00 0.  1.
         25    2    1    2    0    0 -0.74226764410E+02 -0.76232203026E+01  0.38084992248E+03  0.40775205553E+03  0.12508936523E+03 0.  0.
          5    1    3    3  502    0 -0.69910246771E+02 -0.29409456782E+02  0.97954190782E+02  0.12395505090E+03  0.41800000000E+01 0. -1.
         -5    1    3    3    0  502 -0.43165176384E+01  0.21786236480E+02  0.28289573169E+03  0.28379700463E+03  0.41800000000E+01 0. -1.
        -11    1    1    2    0    0  0.28575484307E+02 -0.36135418058E+02  0.12863966280E+03  0.13663999995E+03  0.00000000000E+00 0. -1.
         11    1    1    2    0    0  0.45651280103E+02  0.43758638361E+02  0.68641269211E+02  0.93329961134E+02  0.00000000000E+00 0.  1.
</event>
<event>
 7    1  0.2564986E-009  0.1240252E+03  0.7561462E-02  0.1236601E+00
          1   -1    0    0  501    0  0.00000000000E+00  0.00000000000E+00  0.26414580504E+02  0.26414580504E+02  0.00000000000E+00 0. -1.
         -1   -1    0    0    0  501 -0.00000000000E+00 -0.00000000000E+00 -0.63193512215E+03  0.63193512215E+03  0.00000000000E+00 0.  1.
         25    2    1    2    0    0 -0.37043353101E+02 -0.45870028890E+02 -0.42285783471E+03  0.44489489903E+03  0.12508578354E+03 0.  0.
          5    1    3    3  502    0  0.46194835502E+02 -0.23339740804E+02 -0.15469207376E+03  0.16317419040E+03  0.41800000000E+01 0.  1.
         -5    1    3    3    0  502 -0.83238188603E+02 -0.22530288086E+02 -0.26816576095E+03  0.28172070863E+03  0.41800000000E+01 0.  1.
        -11    1    1    2    0    0 -0.17318872774E+02  0.52259563087E+02 -0.80027766294E+02  0.97136237657E+02  0.00000000000E+00 0.  1.
         11    1    1    2    0    0  0.54362225875E+02 -0.63895341978E+01 -0.10263494064E+03  0.11631856597E+03  0.00000000000E+00 0. -1.
</event>
<event>
 7    1  0.2564986E-009  0.1234192E+03  0.7561462E-02  0.1237561E+00
         -3   -1    0    0    0  501 -0.00000000000E+00  0.00000000000E+00  0.20054731388E+03  0.20054731388E+03  0.00000000000E+00 0.  1.
          3   -1    0    0  501    0  0.00000000000E+00 -0.00000000000E+00 -0.85669234690E+02  0.85669234690E+02  0.00000000000E+00 0. -1.
         25    2    1    2    0    0 -0.45869820170E+02  0.50409367170E+02  0.89787338705E+02  0.16838761528E+03  0.12508988004E+03 0.  0.
          5    1    3    3  502    0  0.88253564664E+01 -0.37256925255E+02  0.30932315487E+02  0.49398845509E+02  0.41800000000E+01 0.  1.
         -5    1    3    3    0  502 -0.54695176636E+02  0.87666292425E+02  0.58855023218E+02  0.11898876978E+03  0.41800000000E+01 0.  1.
        -11    1    1    2    0    0 -0.22898545909E+02 -0.87929633611E+01 -0.14218056113E+02  0.28351591296E+02  0.00000000000E+00 0. -1.
         11    1    1    2    0    0  0.68768366078E+02 -0.41616403809E+02  0.39308796594E+02  0.89477341985E+02  0.00000000000E+00 0.  1.
</event>
<event>
 7    1  0.2564986E-009  0.9163229E+02  0.7561462E-02  0.1298946E+00
          1   -1    0    0  501    0  0.00000000000E+00  0.00000000000E+00  0.52788404610E+02  0.52788404610E+02  0.00000000000E+00 0. -1.
         -1   -1    0    0    0  501 -0.00000000000E+00 -0.00000000000E+00 -0.23803704570E+03  0.23803704570E+03  0.00000000000E+00 0.  1.
         25    2    1    2    0    0  0.18966259965E+02  0.12163484916E+02 -0.78027461379E+02  0.14914818151E+03  0.12509686621E+03 0.  0.
          5    1    3    3  502    0 -0.39965028536E+02 -0.14187118691E+02 -0.72662689358E+02  0.84236670562E+02  0.41800000000E+01 0.  1.
         -5    1    3    3    0  502  0.58931288502E+02  0.26350603607E+02 -0.53647720210E+01  0.64911510950E+02  0.41800000000E+01 0.  1.
        -11    1    1    2    0    0  0.16833330269E+02  0.21169177972E+02 -0.82600048347E+02  0.86915263854E+02  0.00000000000E+00 0.  1.
         11    1    1    2    0    0 -0.35799590234E+02 -0.33332662888E+02 -0.24621131368E+02  0.54762004949E+02  0.00000000000E+00 0. -1.
</event>
<event>
 7    1  0.2564986E-009  0.1378153E+03  0.7561462E-02  0.1216299E+00
          1   -1    0    0  501    0  0.00000000000E+00  0.00000000000E+00  0.83501228970E+03  0.83501228970E+03  0.00000000000E+00 0. -1.
         -1   -1    0    0    0  501 -0.00000000000E+00 -0.00000000000E+00 -0.26889457417E+02  0.26889457417E+02  0.00000000000E+00 0.  1.
         25    2    1    2    0    0 -0.46562013007E+02 -0.88036442599E+02  0.36782910437E+03  0.40107840961E+03  0.12508878587E+03 0.  0.
          5    1    3    3  502    0 -0.78462369809E+01 -0.11316697815E+03  0.26475642616E+03  0.28806555846E+03  0.41800000000E+01 0.  1.
         -5    1    3    3    0  502 -0.38715776026E+02  0.25130535553E+02  0.10307267821E+03  0.11301285115E+03  0.41800000000E+01 0.  1.
        -11    1    1    2    0    0  0.48144258754E+02  0.27964640944E+02  0.33494299896E+03  0.33953895703E+03  0.00000000000E+00 0. -1.
         11    1    1    2    0    0 -0.15822457469E+01  0.60071801656E+02  0.10535072895E+03  0.12128438047E+03  0.00000000000E+00 0.  1.
</event>
<event>
 7    1  0.2564986E-009  0.2421128E+03  0.7561462E-02  0.1118393E+00
          1   -1    0    0  501    0  0.00000000000E+00  0.00000000000E+00  0.20404927193E+03  0.20404927193E+03  0.00000000000E+00 0. -1.
         -1   -1    0    0    0  501 -0.00000000000E+00 -0.00000000000E+00 -0.32824957365E+03  0.32824957365E+03  0.00000000000E+00 0.  1.
         25    2    1    2    0    0  0.13420615308E+03  0.19056734466E+03 -0.94436891382E+02  0.28087967704E+03  0.12509141516E+03 0.  0.
          5    1    3    3  502    0  0.87603006351E+01  0.48686331470E+02  0.26361723625E+02  0.56209559789E+02  0.41800000000E+01 0.  1.
         -5    1    3    3    0  502  0.12544585245E+03  0.14188101319E+03 -0.12079861501E+03  0.22467011725E+03  0.41800000000E+01 0.  1.
        -11    1    1    2    0    0 -0.38066413186E+02 -0.11999436348E+03 -0.39026218919E+02  0.13179812155E+03  0.00000000000E+00 0.  1.
         11    1    1    2    0    0 -0.96139739894E+02 -0.70572981172E+02  0.92628085806E+01  0.11962104698E+03  0.00000000000E+00 0. -1.
</event>
<event>
 7    1  0.2564986E-009  0.5957339E+02  0.7561462E-02  0.1399631E+00
          2   -1    0    0  501    0  0.00000000000E+00  0.00000000000E+00  0.30187945319E+03  0.30187945319E+03  0.00000000000E+00 0. -1.
         -2   -1    0    0    0  501 -0.00000000000E+00 -0.00000000000E+00 -0.45524961903E+02  0.45524961903E+02  0.00000000000E+00 0.  1.
         25    2    1    2    0    0  0.14643856852E+02 -0.18798197019E+02  0.20179829718E+03  0.23861682552E+03  0.12509045497E+03 0.  0.
          5    1    3    3  502    0  0.33199616404E+02 -0.58445592160E+01  0.21108520396E+03  0.21380086327E+03  0.41800000000E+01 0.  1.
         -5    1    3    3    0  502 -0.18555759553E+02 -0.12953637803E+02 -0.92869067882E+01  0.24815962254E+02  0.41800000000E+01 0.  1.
        -11    1    1    2    0    0 -0.30586608771E+02  0.29872578117E+02 -0.78176504747E+01  0.43462940747E+02  0.00000000000E+00 0.  1.
         11    1    1    2    0    0  0.15942751920E+02 -0.11074381098E+02  0.62373844588E+02  0.65324648825E+02  0.00000000000E+00 0. -1.
</event>
<event>
 7    1  0.2564986E-009  0.9170654E+02  0.7561462E-02  0.1298771E+00
         -1   -1    0    0    0  501 -0.00000000000E+00  0.00000000000E+00  0.68060827365E+02  0.68060827365E+02  0.00000000000E+00 0.  1.
          1   -1    0    0  501    0  0.00000000000E+00 -0.00000000000E+00 -0.20604660935E+03  0.20604660935E+03  0.00000000000E+00 0. -1.
         25    2    1    2    0    0  0.40619179916E+02  0.18335537906E+02 -0.94457758490E+02  0.16296073589E+03  0.12509126099E+03 0.  0.
          5    1    3    3  502    0  0.75706776272E+02  0.13526361232E+02 -0.18741358984E+02  0.79266571506E+02  0.41800000000E+01 0.  1.
         -5    1    3    3    0  502 -0.35087596356E+02  0.48091766742E+01 -0.75716399506E+02  0.83694164388E+02  0.41800000000E+01 0.  1.
        -11    1    1    2    0    0 -0.36010257477E+02 -0.36926837774E+02  0.11530568770E+02  0.52851527960E+02  0.00000000000E+00 0.  1.
         11    1    1    2    0    0 -0.46089224388E+01  0.18591299868E+02 -0.55058592268E+02  0.58295172865E+02  0.00000000000E+00 0. -1.
</event>
<event>
 7    1  0.2564986E-009  0.1434552E+03  0.7561462E-02  0.1208754E+00
         -1   -1    0    0    0  501 -0.00000000000E+00  0.00000000000E+00  0.17372742953E+02  0.17372742953E+02  0.00000000000E+00 0.  1.
          1   -1    0    0  501    0  0.00000000000E+00 -0.00000000000E+00 -0.13332883215E+04  0.13332883215E+04  0.00000000000E+00 0. -1.
         25    2    1    2    0    0 -0.31607935007E+02  0.91260204442E+02 -0.79103215852E+03  0.80666381545E+03  0.12508856416E+03 0.  0.
          5    1    3    3  502    0 -0.15485430823E+02  0.11445634945E+03 -0.73222284700E+03  0.74128794984E+03  0.41800000000E+01 0.  1.
         -5    1    3    3    0  502 -0.16122504183E+02 -0.23196145011E+02 -0.58809311515E+02  0.65375865619E+02  0.41800000000E+01 0.  1.
        -11    1    1    2    0    0 -0.38617145818E+02 -0.23569588472E+02 -0.17833805366E+03  0.18398714856E+03  0.00000000000E+00 0. -1.
         11    1    1    2    0    0  0.70225080825E+02 -0.67690615969E+02 -0.34654536639E+03  0.36001010046E+03  0.00000000000E+00 0.  1.
</event>
<event>
 7    1  0.2564986E-009  0.1014507E+03  0.7561462E-02  0.1277275E+00
          2   -1    0    0  501    0  0.00000000000E+00  0.00000000000E+00  0.89995536351E+03  0.89995536351E+03  0.00000000000E+00 0. -1.
         -2   -1    0    0    0  501 -0.00000000000E+00 -0.00000000000E+00 -0.15164741982E+02  0.15164741982E+02  0.00000000000E+00 0.  1.
         25    2    1    2    0    0  0.20950572081E+02 -0.32928549078E+02  0.54903175919E+03  0.56445257070E+03  0.12509043188E+03 0.  0.
          5    1    3    3  502    0  0.54438792913E+02 -0.41872105970E+02  0.49732723078E+03  0.50206444039E+03  0.41800000000E+01 0.  1.
         -5    1    3    3    0  502 -0.33488220832E+02  0.89435568917E+01  0.51704528413E+02  0.62388130303E+02  0.41800000000E+01 0.  1.
        -11    1    1    2    0    0 -0.39983867728E+02  0.56291912863E+02  0.19932791204E+03  0.21094811127E+03  0.00000000000E+00 0. -1.
         11    1    1    2    0    0  0.19033295647E+02 -0.23363363785E+02  0.13643095030E+03  0.13971942352E+03  0.00000000000E+00 0.  1.
</event>
<event>
 7    1  0.2564986E-009  0.1554225E+03  0.7561462E-02  0.1193964E+00
          1   -1    0    0  501    0  0.00000000000E+00  0.00000000000E+00  0.20470293232E+04  0.20470293232E+04  0.00000000000E+00 0. -1.
         -1   -1    0    0    0  501 -0.00000000000E+00 -0.00000000000E+00 -0.20366953541E+02  0.20366953541E+02  0.00000000000E+00 0.  1.
         25    2    1    2    0    0  0.11009120534E+03  0.20368198711E+02  0.17187052387E+04  0.17268844746E+04  0.12508938439E+03 0.  0.
          5    1    3    3  502    0  0.11898793168E+02  0.60396506814E+02  0.61044553088E+03  0.61355565182E+03  0.41800000000E+01 0. -1.
         -5    1    3    3    0  502  0.98192412170E+02 -0.40028308103E+02  0.11082597079E+04  0.11133288228E+04  0.41800000000E+01 0. -1.
        -11    1    1    2    0    0 -0.15144701793E+02 -0.42855280186E+02  0.71626102722E+02  0.84830629040E+02  0.00000000000E+00 0. -1.
         11    1    1    2    0    0 -0.94946503545E+02  0.22487081474E+02  0.23633102824E+03  0.25568117310E+03  0.00000000000E+00 0.  1.
</event>
<event>
 7    1  0.2564986E-009  0.8942617E+02  0.7561462E-02  0.1304247E+00
          2   -1    0    0  501    0  0.00000000000E+00  0.00000000000E+00  0.14529440170E+03  0.14529440170E+03  0.00000000000E+00 0. -1.
         -2   -1    0    0    0  501 -0.00000000000E+00 -0.00000000000E+00 -0.86640021983E+02  0.86640021983E+02  0.00000000000E+00 0.  1.
         25    2    1    2    0    0  0.28393519564E+01 -0.10906682486E+02  0.10448708377E+02  0.12603003957E+03  0.12508947888E+03 0.  0.
          5    1    3    3  502    0 -0.43638684804E+02 -0.92400225713E+01  0.48330131698E+02  0.65901341857E+02  0.41800000000E+01 0.  1.
         -5    1    3    3    0  502  0.46478036761E+02 -0.16666599146E+01 -0.37881423321E+02  0.60128697718E+02  0.41800000000E+01 0.  1.
        -11    1    1    2    0    0 -0.37008433563E+02  0.30509021136E+02  0.62738982562E+01  0.48371337844E+02  0.00000000000E+00 0.  1.
         11    1    1    2    0    0  0.34169081606E+02 -0.19602338651E+02  0.41931773081E+02  0.57533046261E+02  0.00000000000E+00 0. -1.
</event>
<event>
 7    1  0.2564986E-009  0.1305355E+03  0.7561462E-02  0.1226663E+00
          2   -1    0    0  501    0  0.00000000000E+00  0.00000000000E+00  0.10058168690E+03  0.10058168690E+03  0.00000000000E+00 0. -1.
         -2   -1    0    0    0  501 -0.00000000000E+00 -0.00000000000E+00 -0.24682244429E+03  0.24682244429E+03  0.00000000000E+00 0.  1.
         25    2    1    2    0    0 -0.10618446012E+03  0.37766511444E+02 -0.10309537564E+03  0.19743561811E+03  0.12510282915E+03 0.  0.
          5    1    3    3  502    0 -0.12851463428E+02 -0.29557716257E+02 -0.70694520733E+02  0.77807495553E+02  0.41800000000E+01 0.  1.
         -5    1    3    3    0  502 -0.93332996694E+02  0.67324227701E+02 -0.32400854909E+02  0.11962812256E+03  0.41800000000E+01 0.  1.
        -11    1    1    2    0    0  0.50454345530E+02 -0.24682891814E+02  0.24562402446E+02  0.61304141337E+02  0.00000000000E+00 0. -1.
         11    1    1    2    0    0  0.55730114592E+02 -0.13083619630E+02 -0.67707784197E+02  0.88664371739E+02  0.00000000000E+00 0.  1.
</event>
<event>
 7    1  0.2564986E-009  0.1020729E+03  0.7561462E-02  0.1275996E+00
          2   -1    0    0  501    0  0.00000000000E+00  0.00000000000E+00  0.69534269739E+03  0.69534269739E+03  0.00000000000E+00 0. -1.
         -2   -1    0    0    0  501 -0.00000000000E+00 -0.00000000000E+00 -0.30747580197E+02  0.30747580197E+02  0.00000000000E+00 0.  1.
         25    2    1    2    0    0  0.73886595548E+02  0.53419685184E+02  0.27594235873E+03  0.31638551959E+03  0.12507085951E+03 0.  0.
          5    1    3    3  502    0  0.85838876065E+02  0.40986362442E+02  0.28199530669E+03  0.29763571685E+03  0.41800000000E+01 0. -1.
         -5    1    3    3    0  502 -0.11952280518E+02  0.12433322741E+02 -0.60529479558E+01  0.18749802744E+02  0.41800000000E+01 0. -1.
        -11    1    1    2    0    0 -0.20711384750E+02 -0.14195439579E+02  0.12981111220E+02  0.28266255706E+02  0.00000000000E+00 0.  1.
         11    1    1    2    0    0 -0.53175210797E+02 -0.39224245604E+02  0.37567164724E+03  0.38143850228E+03  0.00000000000E+00 0. -1.
</event>
<event>
 7    1  0.2564986E-009  0.1005572E+03  0.7561462E-02  0.1279129E+00
          2   -1    0    0  501    0  0.00000000000E+00  0.00000000000E+00  0.14621318430E+03  0.14621318430E+03  0.00000000000E+00 0. -1.
         -2   -1    0    0    0  501 -0.00000000000E+00 -0.00000000000E+00 -0.89253665483E+02  0.89253665483E+02  0.00000000000E+00 0.  1.
         25    2    1    2    0    0  0.43768899360E+01  0.39258357153E+01 -0.47838127092E+01  0.12531470594E+03  0.12508525616E+03 0.  0.
          5    1    3    3  502    0 -0.41413246947E+02  0.36594284985E+02 -0.30571252532E+02  0.63295123016E+02  0.41800000000E+01 0. -1.
         -5    1    3    3    0  502  0.45790136883E+02 -0.32668449270E+02  0.25787439823E+02  0.62019582924E+02  0.41800000000E+01 0. -1.
        -11    1    1    2    0    0 -0.46753233442E+02 -0.38454522856E+01  0.43639015820E+02  0.64070399112E+02  0.00000000000E+00 0. -1.
         11    1    1    2    0    0  0.42376343506E+02 -0.80383429767E-01  0.18104315707E+02  0.46081744733E+02  0.00000000000E+00 0.  1.
</event>
<event>
 7    1  0.2564986E-009  0.4345250E+03  0.7561462E-02  0.1032440E+00
         -1   -1    0    0    0  501 -0.00000000000E+00  0.00000000000E+00  0.26923010985E+03  0.26923010985E+03  0.00000000000E+00 0.  1.
          1   -1    0    0  501    0  0.00000000000E+00 -0.00000000000E+00 -0.79724896397E+03  0.79724896397E+03  0.00000000000E+00 0. -1.
         25    2    1    2    0    0 -0.27152611796E+03 -0.32604732968E+03 -0.93677634742E+02  0.45216913879E+03  0.12509251336E+03 0.  0.
          5    1    3    3  502    0  0.61224561851E+00 -0.39882791360E+02 -0.34361845055E+02  0.52813073069E+02  0.41800000000E+01 0. -1.
         -5    1    3    3    0  502 -0.27213836358E+03 -0.28616453832E+03 -0.59315789688E+02  0.39935606572E+03  0.41800000000E+01 0. -1.
        -11    1    1    2    0    0  0.22801933869E+03  0.20963583592E+03 -0.32181331219E+03  0.44665849418E+03  0.00000000000E+00 0.  1.
         11    1    1    2    0    0  0.43506779271E+02  0.11641149377E+03 -0.11252790719E+03  0.16765144085E+03  0.00000000000E+00 0. -1.
</event>
<event>
 7    1  0.2564986E-009  0.2078601E+03  0.7561462E-02  0.1143272E+00
          2   -1    0    0  501    0  0.00000000000E+00  0.00000000000E+00  0.10770510004E+04  0.10770510004E+04  0.00000000000E+00 0. -1.
         -2   -1    0    0    0  501 -0.00000000000E+00 -0.00000000000E+00 -0.44147791446E+02  0.44147791446E+02  0.00000000000E+00 0.  1.
         25    2    1    2    0    0 -0.14261527707E+03  0.12202856225E+03  0.47900251376E+03  0.52945700807E+03  0.12510486779E+03 0.  0.
          5    1    3    3  502    0  0.11329220333E+02  0.14239766567E+01  0.12007921048E+03  0.12069328122E+03  0.41800000000E+01 0.  1.
         -5    1    3    3    0  502 -0.15394449740E+03  0.12060458559E+03  0.35892330328E+03  0.40876372684E+03  0.41800000000E+01 0.  1.
        -11    1    1    2    0    0  0.50859731238E+02  0.51627403072E+01  0.14919407647E+03  0.15770934850E+03  0.00000000000E+00 0.  1.
         11    1    1    2    0    0  0.91755545832E+02 -0.12719130256E+03  0.40470661870E+03  0.43403243526E+03  0.00000000000E+00 0. -1.
</event>
<event>
 7    1  0.2564986E-009  0.3296217E+03  0.7561462E-02  0.1071304E+00
          2   -1    0    0  501    0  0.00000000000E+00  0.00000000000E+00  0.12460101307E+04  0.12460101307E+04  0.00000000000E+00 0. -1.
         -2   -1    0    0    0  501 -0.00000000000E+00 -0.00000000000E+00 -0.10481374346E+03  0.10481374346E+03  0.00000000000E+00 0.  1.
         25    2    1    2    0    0 -0.70106493312E+02  0.31064350417E+03  0.82208699856E+03  0.89044302778E+03  0.12508974956E+03 0.  0.
          5    1    3    3  502    0 -0.47384644607E+01 -0.96156690557E+01  0.10820192229E+02  0.15794400802E+02  0.41800000000E+01 0.  1.
         -5    1    3    3    0  502 -0.65368028851E+02  0.32025917322E+03  0.81126680633E+03  0.87464862698E+03  0.41800000000E+01 0.  1.
        -11    1    1    2    0    0  0.35057245480E+02 -0.77181540013E+02  0.36916219127E+02  0.92459763216E+02  0.00000000000E+00 0.  1.
         11    1    1    2    0    0  0.35049247832E+02 -0.23346196415E+03  0.28219316954E+03  0.36792108313E+03  0.00000000000E+00 0. -1.
</event>
<event>
 7    1  0.2564986E-009  0.1552735E+03  0.7561462E-02  0.1194139E+00
         -1   -1    0    0    0  501 -0.00000000000E+00  0.00000000000E+00  0.26497685798E+03  0.26497685798E+03  0.00000000000E+00 0.  1.
          1   -1    0    0  501    0  0.00000000000E+00 -0.00000000000E+00 -0.12646036758E+03  0.12646036758E+03  0.00000000000E+00 0. -1.
         25    2    1    2    0    0  0.13440272684E+02 -0.13859988954E+03  0.20681882239E+02  0.18832359740E+03  0.12508983482E+03 0.  0.
          5    1    3    3  502    0 -0.23095987610E+02 -0.22539237324E+01 -0.30114536522E+02  0.38247385869E+02  0.41800000000E+01 0.  1.
         -5    1    3    3    0  502  0.36536260294E+02 -0.13634596581E+03  0.50796418761E+02  0.15007621153E+03  0.41800000000E+01 0.  1.
        -11    1    1    2    0    0  0.13843013867E+02  0.21943084336E+02  0.69038733221E+02  0.73752794306E+02  0.00000000000E+00 0.  1.
         11    1    1    2    0    0 -0.27283286551E+02  0.11665680521E+03  0.48795874941E+02  0.12936083386E+03  0.00000000000E+00 0. -1.
</event>
<event>
 7    1  0.2564986E-009  0.1023344E+03  0.7561462E-02  0.1275462E+00
          1   -1    0    0  501    0  0.00000000000E+00  0.00000000000E+00  0.27973882003E+03  0.27973882003E+03  0.00000000000E+00 0. -1.
         -1   -1    0    0    0  501 -0.00000000000E+00 -0.00000000000E+00 -0.71328438355E+02  0.71328438355E+02  0.00000000000E+00 0.  1.
         25    2    1    2    0    0 -0.49893706954E+01  0.53990567050E+02  0.23710912484E+02  0.13838885979E+03  0.12509753791E+03 0.  0.
          5    1    3    3  502    0 -0.19978133816E+02  0.76963472617E+02 -0.24029430872E+02  0.83170835610E+02  0.41800000000E+01 0. -1.
         -5    1    3    3    0  502  0.14988763120E+02 -0.22972905568E+02  0.47740343356E+02  0.55218024176E+02  0.41800000000E+01 0. -1.
        -11    1    1    2    0    0 -0.37321814402E+02 -0.16654967784E+02  0.12030840778E+03  0.12706068929E+03  0.00000000000E+00 0.  1.
         11    1    1    2    0    0  0.42311185097E+02 -0.37335599266E+02  0.64391061420E+02  0.85617709311E+02  0.00000000000E+00 0. -1.
</event>
<event>
 7    1  0.2564986E-009  0.7889955E+02  0.7561462E-02  0.1332204E+00
         -1   -1    0    0    0  501 -0.00000000000E+00  0.00000000000E+00  0.81464349116E+02  0.81464349116E+02  0.00000000000E+00 0.  1.
          1   -1    0    0  501    0  0.00000000000E+00 -0.00000000000E+00 -0.20140942145E+03  0.20140942145E+03  0.00000000000E+00 0. -1.
         25    2    1    2    0    0  0.54023609056E+01 -0.66211894817E+02 -0.52485398586E+02  0.15104678724E+03  0.12508882585E+03 0.  0.
          5    1    3    3  502    0 -0.44885446210E+00 -0.81322750101E+01  0.40311041253E+02  0.41337486790E+02  0.41800000000E+01 0. -1.
         -5    1    3    3    0  502  0.58512153677E+01 -0.58079619807E+02 -0.92796439839E+02  0.10970930045E+03  0.41800000000E+01 0. -1.
        -11    1    1    2    0    0 -0.14914362540E+02  0.75421177821E+02 -0.15787891661E+02  0.78485984717E+02  0.00000000000E+00 0.  1.
         11    1    1    2    0    0  0.95120016345E+01 -0.92092830041E+01 -0.51671782091E+02  0.53340998613E+02  0.00000000000E+00 0. -1.
</event>
<event>
 7    1  0.2564986E-009  0.1349788E+03  0.7561462E-02  0.1220250E+00
          2   -1    0    0  501    0  0.00000000000E+00  0.00000000000E+00  0.75314743197E+02  0.75314743197E+02  0.00000000000E+00 0. -1.
         -2   -1    0    0    0  501 -0.00000000000E+00 -0.00000000000E+00 -0.54378384980E+03  0.54378384980E+03  0.00000000000E+00 0.  1.
         25    2    1    2    0    0  0.18846964610E+02 -0.78995121096E+02 -0.46904009744E+03  0.49218088742E+03  0.12509186906E+03 0.  0.
          5    1    3    3  502    0 -0.46176279252E+02 -0.58894180239E+02 -0.31375995074E+03  0.32258882858E+03  0.41800000000E+01 0. -1.
         -5    1    3    3    0  502  0.65023243862E+02 -0.20100940857E+02 -0.15528014670E+03  0.16959205885E+03  0.41800000000E+01 0. -1.
        -11    1    1    2    0    0 -0.33229740843E+02 -0.11515712659E+02  0.24297388789E+01  0.35252389218E+02  0.00000000000E+00 0. -1.
         11    1    1    2    0    0  0.14382776234E+02  0.90510833755E+02 -0.18587480464E+01  0.91665316360E+02  0.00000000000E+00 0.  1.
</event>
<event>
 7    1  0.2564986E-009  0.1415607E+03  0.7561462E-02  0.1211244E+00
          2   -1    0    0  501    0  0.00000000000E+00  0.00000000000E+00  0.47709625636E+03  0.47709625636E+03  0.00000000000E+00 0. -1.
         -2   -1    0    0    0  501 -0.00000000000E+00 -0.00000000000E+00 -0.44327059154E+02  0.44327059154E+02  0.00000000000E+00 0.  1.
         25    2    1    2    0    0  0.96659704940E+02 -0.64180435361E+01  0.25316360983E+03  0.29853620464E+03  0.12509101606E+03 0.  0.
          5    1    3    3  502    0  0.28306475070E+02  0.56004839299E+02  0.76383457279E+02  0.98942930529E+02  0.41800000000E+01 0.  1.
         -5    1    3    3    0  502  0.68353229870E+02 -0.62422882835E+02  0.17678015255E+03  0.19959327411E+03  0.41800000000E+01 0.  1.
        -11    1    1    2    0    0 -0.82090911649E+02  0.39737608268E+02  0.99856265033E+02  0.13523782368E+03  0.00000000000E+00 0.  1.
         11    1    1    2    0    0 -0.14568793291E+02 -0.33319564732E+02  0.79749322340E+02  0.87649287193E+02  0.00000000000E+00 0. -1.
</event>
<event>
 7    1  0.2564986E-009  0.1414739E+03  0.7561462E-02  0.1211359E+00
         -1   -1    0    0    0  501 -0.00000000000E+00  0.00000000000E+00  0.26866626677E+03  0.26866626677E+03  0.00000000000E+00 0.  1.
          1   -1    0    0  501    0  0.00000000000E+00 -0.00000000000E+00 -0.14140216696E+03  0.14140216696E+03  0.00000000000E+00 0. -1.
         25    2    1    2    0    0  0.47672825692E+02 -0.99883312459E+02  0.18762106677E+03  0.25119423097E+03  0.12508997786E+03 0.  0.
          5    1    3    3  502    0 -0.76627543116E+01  0.16428932406E+02 -0.51590715379E+01  0.19305855143E+02  0.41800000000E+01 0.  1.
         -5    1    3    3    0  502  0.55335580004E+02 -0.11631224487E+03  0.19278013831E+03  0.23188837583E+03  0.41800000000E+01 0.  1.
        -11    1    1    2    0    0 -0.61264280021E+02  0.37953003881E+02 -0.10788991236E+01  0.72075700020E+02  0.00000000000E+00 0.  1.
         11    1    1    2    0    0  0.13591454328E+02  0.61930308578E+02 -0.59278067835E+02  0.86798502738E+02  0.00000000000E+00 0. -1.
</event>
<event>
 7    1  0.2564986E-009  0.8812669E+02  0.7561462E-02  0.1307453E+00
         -2   -1    0    0    0  501 -0.00000000000E+00  0.00000000000E+00  0.43112580474E+02  0.43112580474E+02  0.00000000000E+00 0.  1.
          2   -1    0    0  501    0  0.00000000000E+00 -0.00000000000E+00 -0.33059153958E+03  0.33059153958E+03  0.00000000000E+00 0. -1.
         25    2    1    2    0    0 -0.32123163946E+02  0.37878468177E+02 -0.15457811464E+03  0.20496326227E+03  0.12509544093E+03 0.  0.
          5    1    3    3  502    0 -0.37124364605E+02  0.52487953286E+02 -0.17057715323E+03  0.18233826063E+03  0.41800000000E+01 0. -1.
         -5    1    3    3    0  502  0.50012006589E+01 -0.14609485110E+02  0.15999038589E+02  0.22625001635E+02  0.41800000000E+01 0. -1.
        -11    1    1    2    0    0  0.56724765477E+02 -0.82536929955E+01 -0.45337920299E+02  0.73084536556E+02  0.00000000000E+00 0. -1.
         11    1    1    2    0    0 -0.24601601532E+02 -0.29624775181E+02 -0.87562924166E+02  0.95656321228E+02  0.00000000000E+00 0.  1.
</event>
<event>
 7    1  0.2573336E-009  0.1097182E+03  0.7561462E-02  0.1261093E+00
         -2   -1    0    0    0  501 -0.00000000000E+00  0.00000000000E+00  0.17876308348E+02  0.17876308348E+02  0.00000000000E+00 0.  1.
          2   -1    0    0  501    0  0.00000000000E+00 -0.00000000000E+00 -0.74713809748E+03  0.74713809748E+03  0.00000000000E+00 0. -1.
         25    2    1    2    0    0 -0.21131634416E+02  0.26965504847E+02 -0.48238265055E+03  0.49951503648E+03  0.12509422724E+03 0.  0.
          5    1    3    3  502    0 -0.67913006919E+02  0.30799506269E+02 -0.37314761034E+03  0.38054881106E+03  0.41800000000E+01 0.  1.
         -5    1    3    3    0  502  0.46781372503E+02 -0.38340014219E+01 -0.10923504021E+03  0.11896622542E+03  0.41800000000E+01 0.  1.
        -11    1    1    2    0    0  0.24323101093E+02  0.31094154143E+02 -0.10408362044E+03  0.11131873029E+03  0.00000000000E+00 0.  1.
         11    1    1    2    0    0 -0.31914666772E+01 -0.58059658990E+02 -0.14279551813E+03  0.15418063906E+03  0.00000000000E+00 0. -1.
</event>
<event>
 7    1  0.2564986E-009  0.1601961E+03  0.7561462E-02  0.1188476E+00
         -4   -1    0    0    0  501 -0.00000000000E+00  0.00000000000E+00  0.64177232775E+02  0.64177232775E+02  0.00000000000E+00 0.  1.
          4   -1    0    0  501    0  0.00000000000E+00 -0.00000000000E+00 -0.55742823323E+03  0.55742823323E+03  0.00000000000E+00 0. -1.
         25    2    1    2    0    0  0.11671687016E+03  0.61890670330E+02 -0.13032656791E+03  0.22380039235E+03  0.12509323907E+03 0.  0.
          5    1    3    3  502    0  0.32051922467E+02  0.83037304174E+02 -0.38546783157E+02  0.97086798845E+02  0.41800000000E+01 0. -1.
         -5    1    3    3    0  502  0.84664947691E+02 -0.21146633844E+02 -0.91779784752E+02  0.12671359351E+03  0.41800000000E+01 0. -1.
        -11    1    1    2    0    0 -0.40364646254E+02 -0.53628472743E+02 -0.78935653442E+02  0.10361541941E+03  0.00000000000E+00 0.  1.
         11    1    1    2    0    0 -0.76352223903E+02 -0.82621975864E+01 -0.28398877911E+03  0.29418965424E+03  0.00000000000E+00 0. -1.
</event>
<event>
 7    1  0.2564986E-009  0.6899554E+02  0.7561462E-02  0.1363542E+00
         -3   -1    0    0    0  501 -0.00000000000E+00  0.00000000000E+00  0.20174360437E+03  0.20174360437E+03  0.00000000000E+00 0.  1.
          3   -1    0    0  501    0  0.00000000000E+00 -0.00000000000E+00 -0.66116187806E+02  0.66116187806E+02  0.00000000000E+00 0. -1.
         25    2    1    2    0    0 -0.14828617673E+01 -0.38360596600E+02  0.58459413658E+02  0.14331286769E+03  0.12508933108E+03 0.  0.
          5    1    3    3  502    0  0.16785858968E+02 -0.49820735756E+01 -0.36626243558E+02  0.40811030807E+02  0.41800000000E+01 0.  1.
         -5    1    3    3    0  502 -0.18268720735E+02 -0.33378523024E+02  0.95085657215E+02  0.10250183688E+03  0.41800000000E+01 0.  1.
        -11    1    1    2    0    0  0.32300294542E+02  0.39309305776E+02  0.78658761665E+02  0.93678873471E+02  0.00000000000E+00 0.  1.
         11    1    1    2    0    0 -0.30817432775E+02 -0.94870917659E+00 -0.14907587555E+01  0.30868051017E+02  0.00000000000E+00 0. -1.
</event>
<event>
 7    1  0.2564986E-009  0.1862733E+03  0.7561462E-02  0.1161866E+00
          2   -1    0    0  501    0  0.00000000000E+00  0.00000000000E+00  0.13689737289E+04  0.13689737289E+04  0.00000000000E+00 0. -1.
         -2   -1    0    0    0  501 -0.00000000000E+00 -0.00000000000E+00 -0.29255395804E+02  0.29255395804E+02  0.00000000000E+00 0.  1.
         25    2    1    2    0    0 -0.14402712427E+03  0.83490275940E+02  0.76125935459E+03  0.78922592394E+03  0.12508922960E+03 0.  0.
          5    1    3    3  502    0 -0.63568842369E+02  0.10466943419E+03  0.51016026746E+03  0.52466909483E+03  0.41800000000E+01 0.  1.
         -5    1    3    3    0  502 -0.80458281898E+02 -0.21179158251E+02  0.25109908712E+03  0.26455682910E+03  0.41800000000E+01 0.  1.
        -11    1    1    2    0    0  0.49896838592E+02 -0.24120102336E+02  0.74218259559E+02  0.92627338784E+02  0.00000000000E+00 0.  1.
         11    1    1    2    0    0  0.94130285675E+02 -0.59370173603E+02  0.50424071895E+03  0.51637586198E+03  0.00000000000E+00 0. -1.
</event>
<event>
 7    1  0.2564986E-009  0.1830130E+03  0.7561462E-02  0.1164918E+00
         -2   -1    0    0    0  501 -0.00000000000E+00  0.00000000000E+00  0.14549944982E+03  0.14549944982E+03  0.00000000000E+00 0.  1.
          2   -1    0    0  501    0  0.00000000000E+00 -0.00000000000E+00 -0.27311421268E+03  0.27311421268E+03  0.00000000000E+00 0. -1.
         25    2    1    2    0    0  0.12810930387E+02 -0.16129989428E+03 -0.21599238464E+02  0.20565941053E+03  0.12508992848E+03 0.  0.
          5    1    3    3  502    0  0.39681760327E+02 -0.37115966596E+02  0.36804107745E+02  0.65759043681E+02  0.41800000000E+01 0. -1.
         -5    1    3    3    0  502 -0.26870829940E+02 -0.12418392768E+03 -0.58403346209E+02  0.13990036685E+03  0.41800000000E+01 0. -1.
        -11    1    1    2    0    0  0.19923986398E+02  0.11014439382E+00 -0.79018246331E+01  0.21433996321E+02  0.00000000000E+00 0.  1.
         11    1    1    2    0    0 -0.32734916784E+02  0.16118974988E+03 -0.98113699768E+02  0.19152025565E+03  0.00000000000E+00 0. -1.
</event>
<event>
 7    1  0.2564986E-009  0.1045246E+03  0.7561462E-02  0.1271059E+00
          2   -1    0    0  501    0  0.00000000000E+00  0.00000000000E+00  0.25956791720E+02  0.25956791720E+02  0.00000000000E+00 0. -1.
         -2   -1    0    0    0  501 -0.00000000000E+00 -0.00000000000E+00 -0.55805419747E+03  0.55805419747E+03  0.00000000000E+00 0.  1.
         25    2    1    2    0    0 -0.15774857818E+02 -0.23621803266E+02 -0.19479254381E+03  0.23323515894E+03  0.12509064120E+03 0.  0.
          5    1    3    3  502    0  0.46889306314E+02  0.54411173549E+01 -0.34422501696E+02  0.58571271351E+02  0.41800000000E+01 0.  1.
         -5    1    3    3    0  502 -0.62664164133E+02 -0.29062920621E+02 -0.16037004211E+03  0.17466388759E+03  0.41800000000E+01 0.  1.
        -11    1    1    2    0    0 -0.34430000307E+02 -0.48059624339E+01 -0.82582778851E+02  0.89601548863E+02  0.00000000000E+00 0. -1.
         11    1    1    2    0    0  0.50204858125E+02  0.28427765700E+02 -0.25472208309E+03  0.26117428138E+03  0.00000000000E+00 0.  1.
</event>
<event>
 7    1  0.2564986E-009  0.1024166E+03  0.7561462E-02  0.1275295E+00
         -2   -1    0    0    0  501 -0.00000000000E+00  0.00000000000E+00  0.25495001124E+02  0.25495001124E+02  0.00000000000E+00 0.  1.
          2   -1    0    0  501    0  0.00000000000E+00 -0.00000000000E+00 -0.57272612502E+03  0.57272612502E+03  0.00000000000E+00 0. -1.
         25    2    1    2    0    0  0.44360754042E+02  0.13137178230E+02 -0.34588817457E+03  0.37071047117E+03  0.12508861731E+03 0.  0.
          5    1    3    3  502    0  0.67474370676E+02 -0.21856264644E+02 -0.10906112264E+03  0.13016254405E+03  0.41800000000E+01 0. -1.
         -5    1    3    3    0  502 -0.23113616635E+02  0.34993442873E+02 -0.23682705192E+03  0.24054792712E+03  0.41800000000E+01 0. -1.
        -11    1    1    2    0    0 -0.52465517516E+02 -0.38458732158E+02 -0.79117491451E+02  0.10242695964E+03  0.00000000000E+00 0.  1.
         11    1    1    2    0    0  0.81047634744E+01  0.25321553929E+02 -0.12222545788E+03  0.12508369533E+03  0.00000000000E+00 0. -1.
</event>
<event>
 7    1  0.2564986E-009  0.1191009E+03  0.7561462E-02  0.1244588E+00
          2   -1    0    0  501    0  0.00000000000E+00  0.00000000000E+00  0.20077966975E+03  0.20077966975E+03  0.00000000000E+00 0. -1.
         -2   -1    0    0    0  501 -0.00000000000E+00 -0.00000000000E+00 -0.10831822498E+03  0.10831822498E+03  0.00000000000E+00 0.  1.
         25    2    1    2    0    0 -0.14105206572E+02  0.96256229740E+02  0.27505810897E+02  0.16083995411E+03  0.12509477443E+03 0.  0.
          5    1    3    3  502    0 -0.54510715746E+01  0.95790173007E+02 -0.31488077993E+02  0.10106652701E+03  0.41800000000E+01 0.  1.
         -5    1    3    3    0  502 -0.86541349974E+01  0.46605673324E+00  0.58993888889E+02  0.59773427103E+02  0.41800000000E+01 0.  1.
        -11    1    1    2    0    0 -0.25662301130E+02 -0.88345149909E+02  0.52082847309E+02  0.10571680186E+03  0.00000000000E+00 0.  1.
         11    1    1    2    0    0  0.39767507702E+02 -0.79110798312E+01  0.12872786569E+02  0.42541138760E+02  0.00000000000E+00 0. -1.
</event>
<event>
 7    1  0.2564986E-009  0.9030886E+02  0.7561462E-02  0.1302105E+00
          2   -1    0    0  501    0  0.00000000000E+00  0.00000000000E+00  0.53159919425E+02  0.53159919425E+02  0.00000000000E+00 0. -1.
         -2   -1    0    0    0  501 -0.00000000000E+00 -0.00000000000E+00 -0.23561236081E+03  0.23561236081E+03  0.00000000000E+00 0.  1.
         25    2    1    2    0    0  0.26908023499E+02  0.76081401184E+01 -0.10973741063E+03  0.16873521619E+03  0.12508936152E+03 0.  0.
          5    1    3    3  502    0  0.54264996407E+02 -0.32269345841E+02 -0.10134565112E+03  0.11947557874E+03  0.41800000000E+01 0.  1.
         -5    1    3    3    0  502 -0.27356972908E+02  0.39877485959E+02 -0.83917595163E+01  0.49259637442E+02  0.41800000000E+01 0.  1.
        -11    1    1    2    0    0 -0.17252301741E+02 -0.35401892032E+02  0.23090996078E+01  0.39449560401E+02  0.00000000000E+00 0. -1.
         11    1    1    2    0    0 -0.96557217582E+01  0.27793751913E+02 -0.75024130364E+02  0.80587503653E+02  0.00000000000E+00 0.  1.
</event>
<event>
 7    1  0.2564986E-009  0.2847065E+03  0.7561462E-02  0.1093146E+00
         -2   -1    0    0    0  501 -0.00000000000E+00  0.00000000000E+00  0.44726676707E+02  0.44726676707E+02  0.00000000000E+00 0.  1.
          2   -1    0    0  501    0  0.00000000000E+00 -0.00000000000E+00 -0.21993554844E+04  0.21993554844E+04  0.00000000000E+00 0. -1.
         25    2    1    2    0    0 -0.27845962891E+03  0.57978322281E+02 -0.81928124727E+03  0.87622587534E+03  0.12509505064E+03 0.  0.
          5    1    3    3  502    0 -0.97213559440E+02  0.13879564545E+02 -0.13516845147E+03  0.16712600373E+03  0.41800000000E+01 0.  1.
         -5    1    3    3    0  502 -0.18124606947E+03  0.44098757735E+02 -0.68411279580E+03  0.70909987161E+03  0.41800000000E+01 0.  1.
        -11    1    1    2    0    0  0.67258102501E+02 -0.17516849830E+02 -0.18592315568E+03  0.19848907325E+03  0.00000000000E+00 0.  1.
         11    1    1    2    0    0  0.21120152641E+03 -0.40461472451E+02 -0.11494244047E+04  0.11693672125E+04  0.00000000000E+00 0. -1.
</event>
<event>
 7    1  0.2564986E-009  0.9837844E+02  0.7561462E-02  0.1283743E+00
          2   -1    0    0  501    0  0.00000000000E+00  0.00000000000E+00  0.82572863796E+02  0.82572863796E+02  0.00000000000E+00 0. -1.
         -2   -1    0    0    0  501 -0.00000000000E+00 -0.00000000000E+00 -0.24508722991E+03  0.24508722991E+03  0.00000000000E+00 0.  1.
         25    2    1    2    0    0 -0.39084894444E+02  0.26799748159E+02  0.83875651246E+00  0.13376912741E+03  0.12509044912E+03 0.  0.
          5    1    3    3  502    0 -0.16094737958E+01  0.73196266164E+02 -0.60702297608E+01  0.73583991979E+02  0.41800000000E+01 0. -1.
         -5    1    3    3    0  502 -0.37475420648E+02 -0.46396518004E+02  0.69089862733E+01  0.60185135432E+02  0.41800000000E+01 0. -1.
        -11    1    1    2    0    0 -0.43237101518E+01 -0.19058719487E+02  0.47410227000E+01  0.20109862113E+02  0.00000000000E+00 0. -1.
         11    1    1    2    0    0  0.43408604596E+02 -0.77410286724E+01 -0.16809414533E+03  0.17378110419E+03  0.00000000000E+00 0.  1.
</event>
<event>
 7    1  0.2564986E-009  0.2174435E+03  0.7561462E-02  0.1135803E+00
          1   -1    0    0  501    0  0.00000000000E+00  0.00000000000E+00  0.77294216845E+03  0.77294216845E+03  0.00000000000E+00 0. -1.
         -1   -1    0    0    0  501 -0.00000000000E+00 -0.00000000000E+00 -0.69633075388E+02  0.69633075388E+02  0.00000000000E+00 0.  1.
         25    2    1    2    0    0 -0.19879571639E+03  0.44985071865E+00  0.45340163187E+03  0.51062838961E+03  0.12509345816E+03 0.  0.
          5    1    3    3  502    0 -0.44260758756E+02 -0.51491511256E+02  0.17807174950E+03  0.19062374162E+03  0.41800000000E+01 0. -1.
         -5    1    3    3    0  502 -0.15453495763E+03  0.51941361975E+02  0.27532988237E+03  0.32000464800E+03  0.41800000000E+01 0. -1.
        -11    1    1    2    0    0  0.45176165597E+02 -0.19058964883E+02  0.16172100377E+02  0.51630096950E+02  0.00000000000E+00 0. -1.
         11    1    1    2    0    0  0.15361955079E+03  0.18609114164E+02  0.23373536082E+03  0.28031675728E+03  0.00000000000E+00 0.  1.
</event>
<event>
 7    1  0.3484429E-009  0.8397777E+02  0.7561462E-02  0.1318128E+00
          1   -1    0    0  501    0  0.00000000000E+00  0.00000000000E+00  0.42832121608E+02  0.42832121608E+02  0.00000000000E+00 0. -1.
         -1   -1    0    0    0  501 -0.00000000000E+00 -0.00000000000E+00 -0.29745977283E+03  0.29745977283E+03  0.00000000000E+00 0.  1.
         25    2    1    2    0    0  0.97293632998E+01  0.26523323652E+01 -0.18920088177E+03  0.22704012320E+03  0.12509415854E+03 0.  0.
          5    1    3    3  502    0 -0.54754317888E+02 -0.17198295341E+00 -0.53276412202E+02  0.76510871140E+02  0.41800000000E+01 0.  1.
         -5    1    3    3    0  502  0.64483681188E+02  0.28243153186E+01 -0.13592446957E+03  0.15052925206E+03  0.41800000000E+01 0.  1.
        -11    1    1    2    0    0 -0.50075856003E+01 -0.25011885929E+02 -0.81443797571E+02  0.85344961855E+02  0.00000000000E+00 0.  1.
         11    1    1    2    0    0 -0.47217776995E+01  0.22359553564E+02  0.16017028122E+02  0.27906809385E+02  0.00000000000E+00 0. -1.
</event>
<event>
 7    1  0.2564986E-009  0.9832518E+02  0.7561462E-02  0.1283858E+00
          2   -1    0    0  501    0  0.00000000000E+00  0.00000000000E+00  0.11231862852E+04  0.11231862852E+04  0.00000000000E+00 0. -1.
         -2   -1    0    0    0  501 -0.00000000000E+00 -0.00000000000E+00 -0.12208916515E+02  0.12208916515E+02  0.00000000000E+00 0.  1.
         25    2    1    2    0    0  0.19084856453E+02 -0.32102006499E+02  0.74220392776E+03  0.75359852439E+03  0.12509714235E+03 0.  0.
          5    1    3    3  502    0 -0.22145147027E+02  0.21196824340E+02  0.55149526763E+02  0.63234923904E+02  0.41800000000E+01 0. -1.
         -5    1    3    3    0  502  0.41230003480E+02 -0.53298830839E+02  0.68705440099E+03  0.69036360049E+03  0.41800000000E+01 0. -1.
        -11    1    1    2    0    0  0.10668636075E+02 -0.28638687446E+02  0.95143349239E+02  0.99931231948E+02  0.00000000000E+00 0.  1.
         11    1    1    2    0    0 -0.29753492527E+02  0.60740693945E+02  0.27363009173E+03  0.28186544541E+03  0.00000000000E+00 0. -1.
</event>
<event>
 7    1  0.2564986E-009  0.9855320E+02  0.7561462E-02  0.1283368E+00
          2   -1    0    0  501    0  0.00000000000E+00  0.00000000000E+00  0.93895066951E+03  0.93895066951E+03  0.00000000000E+00 0. -1.
         -2   -1    0    0    0  501 -0.00000000000E+00 -0.00000000000E+00 -0.24674886700E+02  0.24674886700E+02  0.00000000000E+00 0.  1.
         25    2    1    2    0    0 -0.61646627201E+02  0.11658268309E+02  0.75756680672E+03  0.77038390572E+03  0.12509066183E+03 0.  0.
          5    1    3    3  502    0 -0.53799316642E+01  0.59001255358E+02  0.46089379287E+03  0.46470490906E+03  0.41800000000E+01 0.  1.
         -5    1    3    3    0  502 -0.56266695537E+02 -0.47342987048E+02  0.29667301386E+03  0.30567899666E+03  0.41800000000E+01 0.  1.
        -11    1    1    2    0    0  0.18744909968E+02 -0.97185805335E+01 -0.83362860878E+01  0.22700575390E+02  0.00000000000E+00 0.  1.
         11    1    1    2    0    0  0.42901717232E+02 -0.19396877759E+01  0.16504526218E+03  0.17054107511E+03  0.00000000000E+00 0. -1.
</event>
<event>
 7    1  0.2564986E-009  0.2050987E+03  0.7561462E-02  0.1145507E+00
          2   -1    0    0  501    0  0.00000000000E+00  0.00000000000E+00  0.37424786755E+04  0.37424786755E+04  0.00000000000E+00 0.  1.
         -2   -1    0    0    0  501 -0.00000000000E+00 -0.00000000000E+00 -0.16267598404E+02  0.16267598404E+02  0.00000000000E+00 0. -1.
         25    2    1    2    0    0  0.12118245947E+03 -0.13973444869E+03  0.28328975232E+04  0.28416838111E+04  0.12509037046E+03 0.  0.
          5    1    3    3  502    0  0.62147251017E+02  0.68373832069E+01  0.10120903124E+04  0.10140282557E+04  0.41800000000E+01 0. -1.
         -5    1    3    3    0  502  0.59035208451E+02 -0.14657183190E+03  0.18208072108E+04  0.18276555554E+04  0.41800000000E+01 0. -1.
        -11    1    1    2    0    0 -0.22422153857E+02  0.59876459678E+01  0.30228705857E+02  0.38110097685E+02  0.00000000000E+00 0. -1.
         11    1    1    2    0    0 -0.98760305612E+02  0.13374680272E+03  0.86308484806E+03  0.87895236513E+03  0.00000000000E+00 0.  1.
</event>
<event>
 7    1  0.2564986E-009  0.1101228E+03  0.7561462E-02  0.1260343E+00
          1   -1    0    0  501    0  0.00000000000E+00  0.00000000000E+00  0.63485474201E+03  0.63485474201E+03  0.00000000000E+00 0. -1.
         -1   -1    0    0    0  501 -0.00000000000E+00 -0.00000000000E+00 -0.35675024751E+02  0.35675024751E+02  0.00000000000E+00 0.  1.
         25    2    1    2    0    0  0.94754840110E+02  0.19830209580E+02  0.41117997337E+03  0.44055437354E+03  0.12508984214E+03 0.  0.
          5    1    3    3  502    0  0.71848348934E+02 -0.19783188721E+02  0.93835637154E+02  0.11990062135E+03  0.41800000000E+01 0.  1.
         -5    1    3    3    0  502  0.22906491176E+02  0.39613398300E+02  0.31734433622E+03  0.32065375219E+03  0.41800000000E+01 0.  1.
        -11    1    1    2    0    0 -0.16652453890E+02  0.55188986521E+01 -0.66134751423E+01  0.18748347030E+02  0.00000000000E+00 0.  1.
         11    1    1    2    0    0 -0.78102386220E+02 -0.25349108232E+02  0.19461321903E+03  0.21122704619E+03  0.00000000000E+00 0. -1.
</event>
<event>
 7    1  0.2564986E-009  0.3443261E+03  0.7561462E-02  0.1064968E+00
         -2   -1    0    0    0  501 -0.00000000000E+00  0.00000000000E+00  0.12758618675E+03  0.12758618675E+03  0.00000000000E+00 0.  1.
          2   -1    0    0  501    0  0.00000000000E+00 -0.00000000000E+00 -0.10359178085E+04  0.10359178085E+04  0.00000000000E+00 0. -1.
         25    2    1    2    0    0 -0.99926094227E+02 -0.31310256923E+03 -0.28336210449E+03  0.45161960829E+03  0.12509094758E+03 0.  0.
          5    1    3    3  502    0  0.23137369418E+02 -0.22344264000E+02 -0.99169357283E+01  0.33917871566E+02  0.41800000000E+01 0. -1.
         -5    1    3    3    0  502 -0.12306346364E+03 -0.29075830523E+03 -0.27344516876E+03  0.41770173672E+03  0.41800000000E+01 0. -1.
        -11    1    1    2    0    0  0.63802192900E+02  0.29143153143E+03 -0.55859640193E+03  0.63327166176E+03  0.00000000000E+00 0.  1.
         11    1    1    2    0    0  0.36123901327E+02  0.21671037792E+02 -0.66373115371E+02  0.78612725243E+02  0.00000000000E+00 0. -1.
</event>
<event>
 7    1  0.2564986E-009  0.7759348E+02  0.7561462E-02  0.1336023E+00
         -1   -1    0    0    0  501 -0.00000000000E+00  0.00000000000E+00  0.45959531821E+02  0.45959531821E+02  0.00000000000E+00 0. -1.
          1   -1    0    0  501    0  0.00000000000E+00 -0.00000000000E+00 -0.34985378468E+03  0.34985378468E+03  0.00000000000E+00 0.  1.
         25    2    1    2    0    0 -0.50720258144E+01 -0.16728666776E+02 -0.26360287221E+03  0.29230039832E+03  0.12508986722E+03 0.  0.
          5    1    3    3  502    0  0.52114777223E+02  0.15854393977E+02 -0.77211221017E+02  0.94585183112E+02  0.41800000000E+01 0. -1.
         -5    1    3    3    0  502 -0.57186803037E+02 -0.32583060754E+02 -0.18639165119E+03  0.19771521520E+03  0.41800000000E+01 0. -1.
        -11    1    1    2    0    0 -0.12583675155E+02  0.59707793254E+01 -0.67735405289E+02  0.69152615394E+02  0.00000000000E+00 0.  1.
         11    1    1    2    0    0  0.17655700969E+02  0.10757887451E+02  0.27444024642E+02  0.34360302788E+02  0.00000000000E+00 0. -1.
</event>
<event>
 7    1  0.2564986E-009  0.1348822E+03  0.7561462E-02  0.1220386E+00
          4   -1    0    0  501    0  0.00000000000E+00  0.00000000000E+00  0.22926154424E+03  0.22926154424E+03  0.00000000000E+00 0. -1.
         -4   -1    0    0    0  501 -0.00000000000E+00 -0.00000000000E+00 -0.10060400010E+03  0.10060400010E+03  0.00000000000E+00 0.  1.
         25    2    1    2    0    0 -0.86746757094E+02 -0.49268099886E+02  0.10502759019E+03  0.19139131277E+03  0.12508994512E+03 0.  0.
          5    1    3    3  502    0 -0.11059212383E+03 -0.50565792240E+02  0.11281422987E+03  0.16592781581E+03  0.41800000000E+01 0. -1.
         -5    1    3    3    0  502  0.23845366736E+02  0.12976923540E+01 -0.77866396763E+01  0.25463496965E+02  0.41800000000E+01 0. -1.
        -11    1    1    2    0    0  0.57666473133E+02 -0.93408792404E+01 -0.17755724573E+02  0.61056857958E+02  0.00000000000E+00 0.  1.
         11    1    1    2    0    0  0.29080283961E+02  0.58608979126E+02  0.41385678526E+02  0.77417373609E+02  0.00000000000E+00 0. -1.
</event>
<event>
 7    1  0.2564986E-009  0.2302782E+03  0.7561462E-02  0.1126444E+00
         -2   -1    0    0    0  501 -0.00000000000E+00  0.00000000000E+00  0.28934856805E+03  0.28934856805E+03  0.00000000000E+00 0.  1.
          2   -1    0    0  501    0  0.00000000000E+00 -0.00000000000E+00 -0.23021546940E+03  0.23021546940E+03  0.00000000000E+00 0. -1.
         25    2    1    2    0    0  0.15397327693E+03  0.13442887081E+03 -0.85446900583E+02  0.25441564026E+03  0.12508898382E+03 0.  0.
          5    1    3    3  502    0  0.77739692327E+02 -0.77692493783E+01 -0.28198617726E+02  0.83165229758E+02  0.41800000000E+01 0.  1.
         -5    1    3    3    0  502  0.76233584601E+02  0.14219812019E+03 -0.57248282857E+02  0.17125041050E+03  0.41800000000E+01 0.  1.
        -11    1    1    2    0    0 -0.99562716783E+02 -0.31384423510E+02  0.82892299588E+02  0.13329984975E+03  0.00000000000E+00 0.  1.
         11    1    1    2    0    0 -0.54410560146E+02 -0.10304444730E+03  0.61687699641E+02  0.13184854744E+03  0.00000000000E+00 0. -1.
</event>
<event>
 7    1  0.2564986E-009  0.1149329E+03  0.7561462E-02  0.1251698E+00
         -2   -1    0    0    0  501 -0.00000000000E+00  0.00000000000E+00  0.17424678800E+02  0.17424678800E+02  0.00000000000E+00 0.  1.
          2   -1    0    0  501    0  0.00000000000E+00 -0.00000000000E+00 -0.83900503568E+03  0.83900503568E+03  0.00000000000E+00 0. -1.
         25    2    1    2    0    0  0.16393304158E+01 -0.44401906233E+02 -0.34862624111E+03  0.37304540371E+03  0.12509356720E+03 0.  0.
          5    1    3    3  502    0  0.28749835194E+02 -0.81546206795E+02 -0.22932196298E+03  0.24511705769E+03  0.41800000000E+01 0.  1.
         -5    1    3    3    0  502 -0.27110504778E+02  0.37144300563E+02 -0.11930427813E+03  0.12792834602E+03  0.41800000000E+01 0.  1.
        -11    1    1    2    0    0  0.33981200585E+02  0.50616538328E+02 -0.34815749120E+03  0.35345494002E+03  0.00000000000E+00 0. -1.
         11    1    1    2    0    0 -0.35620531000E+02 -0.62146320950E+01 -0.12479662456E+03  0.12992937075E+03  0.00000000000E+00 0.  1.
</event>
<event>
 7    1  0.2564986E-009  0.1168053E+03  0.7561462E-02  0.1248462E+00
          1   -1    0    0  501    0  0.00000000000E+00  0.00000000000E+00  0.22402787547E+03  0.22402787547E+03  0.00000000000E+00 0. -1.
         -1   -1    0    0    0  501 -0.00000000000E+00 -0.00000000000E+00 -0.88442835161E+02  0.88442835161E+02  0.00000000000E+00 0.  1.
         25    2    1    2    0    0 -0.75448922505E+02 -0.78337179774E+02  0.77777866564E+02  0.18308763947E+03  0.12506971479E+03 0.  0.
          5    1    3    3  502    0 -0.49814896418E+01 -0.45678150978E+02 -0.26337783571E+02  0.53126828997E+02  0.41800000000E+01 0.  1.
         -5    1    3    3    0  502 -0.70467432863E+02 -0.32659028796E+02  0.10411565014E+03  0.12996081047E+03  0.41800000000E+01 0.  1.
        -11    1    1    2    0    0  0.37357404725E+02  0.28623444599E+02  0.47512519128E+01  0.47301708883E+02  0.00000000000E+00 0.  1.
         11    1    1    2    0    0  0.38091517780E+02  0.49713735175E+02  0.53055921837E+02  0.82081362280E+02  0.00000000000E+00 0. -1.
</event>
<event>
 7    1  0.2564986E-009  0.1164271E+03  0.7561462E-02  0.1249110E+00
         -1   -1    0    0    0  501 -0.00000000000E+00  0.00000000000E+00  0.15609078515E+03  0.15609078515E+03  0.00000000000E+00 0.  1.
          1   -1    0    0  501    0  0.00000000000E+00 -0.00000000000E+00 -0.15553800362E+03  0.15553800362E+03  0.00000000000E+00 0. -1.
         25    2    1    2    0    0 -0.37675202295E+02  0.26438353442E+02  0.95769082774E+02  0.16413072555E+03  0.12509504568E+03 0.  0.
          5    1    3    3  502    0 -0.76137564429E+02  0.46659434842E+02  0.59626099907E+02  0.10745592476E+03  0.41800000000E+01 0.  1.
         -5    1    3    3    0  502  0.38462362134E+02 -0.20221081400E+02  0.36142982867E+02  0.56674800788E+02  0.41800000000E+01 0.  1.
        -11    1    1    2    0    0  0.28828215686E+02  0.30625291993E+02 -0.75599493999E+02  0.86511606286E+02  0.00000000000E+00 0.  1.
         11    1    1    2    0    0  0.88469866087E+01 -0.57063645435E+02 -0.19616807242E+02  0.60986456929E+02  0.00000000000E+00 0. -1.
</event>
<event>
 7    1  0.2871199E-009  0.1085631E+03  0.7561462E-02  0.1263254E+00
          2   -1    0    0  501    0  0.00000000000E+00  0.00000000000E+00  0.68319412325E+03  0.68319412325E+03  0.00000000000E+00 0. -1.
         -2   -1    0    0    0  501 -0.00000000000E+00 -0.00000000000E+00 -0.29522715715E+02  0.29522715715E+02  0.00000000000E+00 0.  1.
         25    2    1    2    0    0 -0.68580246667E+02 -0.21847920565E+02  0.49685499063E+03  0.51739015748E+03  0.12508841464E+03 0.  0.
          5    1    3    3  502    0  0.27914707971E+02  0.22599418106E+02  0.93225051651E+02  0.99991736034E+02  0.41800000000E+01 0. -1.
         -5    1    3    3    0  502 -0.96494954638E+02 -0.44447338672E+02  0.40362993898E+03  0.41739842145E+03  0.41800000000E+01 0. -1.
        -11    1    1    2    0    0  0.16810094126E+02  0.14802525186E+02 -0.69306152394E+01  0.23446267166E+02  0.00000000000E+00 0.  1.
         11    1    1    2    0    0  0.51770152540E+02  0.70453953792E+01  0.16374703214E+03  0.17188041432E+03  0.00000000000E+00 0. -1.
</event>
<event>
 7    1  0.2564986E-009  0.5921135E+02  0.7561462E-02  0.1401171E+00
         -2   -1    0    0    0  501 -0.00000000000E+00  0.00000000000E+00  0.18656176498E+02  0.18656176498E+02  0.00000000000E+00 0.  1.
          2   -1    0    0  501    0  0.00000000000E+00 -0.00000000000E+00 -0.72424738543E+03  0.72424738543E+03  0.00000000000E+00 0. -1.
         25    2    1    2    0    0  0.26468916680E+01  0.12628369319E+02 -0.52826647988E+03  0.54302792023E+03  0.12508943455E+03 0.  0.
          5    1    3    3  502    0 -0.17938202150E+02 -0.10799868092E+02 -0.50081655443E+03  0.50127149314E+03  0.41800000000E+01 0.  1.
         -5    1    3    3    0  502  0.20585093818E+02  0.23428237411E+02 -0.27449925451E+02  0.41756427086E+02  0.41800000000E+01 0.  1.
        -11    1    1    2    0    0 -0.26890280266E+02 -0.26433366028E+02 -0.16521345636E+03  0.16946178382E+03  0.00000000000E+00 0. -1.
         11    1    1    2    0    0  0.24243388598E+02  0.13804996709E+02 -0.12111272687E+02  0.30413857877E+02  0.00000000000E+00 0.  1.
</event>
<event>
 7    1  0.2564986E-009  0.1635555E+03  0.7561462E-02  0.1184740E+00
          2   -1    0    0  501    0  0.00000000000E+00  0.00000000000E+00  0.87592033523E+03  0.87592033523E+03  0.00000000000E+00 0. -1.
         -2   -1    0    0    0  501 -0.00000000000E+00 -0.00000000000E+00 -0.36492723613E+02  0.36492723613E+02  0.00000000000E+00 0.  1.
         25    2    1    2    0    0  0.92549740746E+02  0.93969037221E+02  0.58121889954E+03  0.60898191760E+03  0.12509169559E+03 0.  0.
          5    1    3    3  502    0  0.30964650482E+02  0.11273682244E+03  0.39040705283E+03  0.40755802043E+03  0.41800000000E+01 0.  1.
         -5    1    3    3    0  502  0.61585090264E+02 -0.18767785224E+02  0.19081184671E+03  0.20142389717E+03  0.41800000000E+01 0.  1.
        -11    1    1    2    0    0 -0.97162110119E+02 -0.66467058095E+02  0.14465317664E+03  0.18650170767E+03  0.00000000000E+00 0.  1.
         11    1    1    2    0    0  0.46123693730E+01 -0.27501979126E+02  0.11355553543E+03  0.11692943357E+03  0.00000000000E+00 0. -1.
</event>
<event>
 7    1  0.2564986E-009  0.8383522E+02  0.7561462E-02  0.1318507E+00
         -2   -1    0    0    0  501 -0.00000000000E+00  0.00000000000E+00  0.31544296867E+02  0.31544296867E+02  0.00000000000E+00 0.  1.
          2   -1    0    0  501    0  0.00000000000E+00 -0.00000000000E+00 -0.58123514573E+03  0.58123514573E+03  0.00000000000E+00 0. -1.
         25    2    1    2    0    0 -0.85712936177E+01  0.39527312850E+02 -0.45911281404E+03  0.47756532324E+03  0.12509271124E+03 0.  0.
          5    1    3    3  502    0  0.19755172815E+02  0.40715619313E+02 -0.44170020301E+03  0.44403217254E+03  0.41800000000E+01 0.  1.
         -5    1    3    3    0  502 -0.28326466433E+02 -0.11883064628E+01 -0.17412611029E+02  0.33533150697E+02  0.41800000000E+01 0.  1.
        -11    1    1    2    0    0 -0.27742552020E+02  0.12246537493E+02 -0.54601036613E+02  0.62457185914E+02  0.00000000000E+00 0. -1.
         11    1    1    2    0    0  0.36313845638E+02 -0.51773850343E+02 -0.35976998209E+02  0.72756933446E+02  0.00000000000E+00 0.  1.
</event>
<event>
 7    1  0.2564986E-009  0.1152312E+03  0.7561462E-02  0.1251178E+00
          2   -1    0    0  501    0  0.00000000000E+00  0.00000000000E+00  0.11664234734E+03  0.11664234734E+03  0.00000000000E+00 0. -1.
         -2   -1    0    0    0  501 -0.00000000000E+00 -0.00000000000E+00 -0.17348727717E+03  0.17348727717E+03  0.00000000000E+00 0.  1.
         25    2    1    2    0    0  0.20607257147E+02 -0.82247173811E+02 -0.66258337640E+02  0.16501101914E+03  0.12509681245E+03 0.  0.
          5    1    3    3  502    0 -0.47840832537E+02 -0.38167243847E+02 -0.55610222008E+02  0.82797662724E+02  0.41800000000E+01 0. -1.
         -5    1    3    3    0  502  0.68448089684E+02 -0.44079929964E+02 -0.10648115632E+02  0.82213356419E+02  0.41800000000E+01 0. -1.
        -11    1    1    2    0    0  0.42535290983E+01  0.22279738977E+02 -0.38328232970E+02  0.44536869235E+02  0.00000000000E+00 0.  1.
         11    1    1    2    0    0 -0.24860786245E+02  0.59967434834E+02  0.47741640780E+02  0.80581736130E+02  0.00000000000E+00 0. -1.
</event>
<event>
 7    1  0.2564986E-009  0.1100746E+03  0.7561462E-02  0.1260432E+00
          2   -1    0    0  501    0  0.00000000000E+00  0.00000000000E+00  0.16494394321E+04  0.16494394321E+04  0.00000000000E+00 0. -1.
         -2   -1    0    0    0  501 -0.00000000000E+00 -0.00000000000E+00 -0.93503420516E+01  0.93503420516E+01  0.00000000000E+00 0.  1.
         25    2    1    2    0    0 -0.30744517144E+02 -0.38812023923E+01  0.12692155100E+04  0.12757422014E+04  0.12509941881E+03 0.  0.
          5    1    3    3  502    0  0.30235599962E+01 -0.59985195580E+02  0.47059699557E+03  0.47443268252E+03  0.41800000000E+01 0. -1.
         -5    1    3    3    0  502 -0.33768077141E+02  0.56103993188E+02  0.79861851441E+03  0.80130951887E+03  0.41800000000E+01 0. -1.
        -11    1    1    2    0    0 -0.26718046387E+02 -0.18672905706E+02  0.16182058865E+03  0.16507099782E+03  0.00000000000E+00 0. -1.
         11    1    1    2    0    0  0.57462563532E+02  0.22554108098E+02  0.20905299147E+03  0.21797657498E+03  0.00000000000E+00 0.  1.
</event>
<event>
 7    1  0.2564986E-009  0.1112788E+03  0.7561462E-02  0.1258220E+00
         -1   -1    0    0    0  501 -0.00000000000E+00  0.00000000000E+00  0.40239945129E+02  0.40239945129E+02  0.00000000000E+00 0.  1.
          1   -1    0    0  501    0  0.00000000000E+00 -0.00000000000E+00 -0.35988124282E+03  0.35988124282E+03  0.00000000000E+00 0. -1.
         25    2    1    2    0    0  0.59611096318E+01 -0.36899671241E+02 -0.12436952637E+03  0.18031969125E+03  0.12510112469E+03 0.  0.
          5    1    3    3  502    0  0.10039568084E+01 -0.78998365158E+02 -0.47063202508E+02  0.92055239163E+02  0.41800000000E+01 0.  1.
         -5    1    3    3    0  502  0.49571528234E+01  0.42098693917E+02 -0.77306323862E+02  0.88264452090E+02  0.41800000000E+01 0.  1.
        -11    1    1    2    0    0 -0.35147918516E+02 -0.17385900553E+02 -0.72354701644E+02  0.82297318085E+02  0.00000000000E+00 0. -1.
         11    1    1    2    0    0  0.29186808884E+02  0.54285571794E+02 -0.12291706968E+03  0.13750417862E+03  0.00000000000E+00 0.  1.
</event>
<event>
 7    1  0.2564986E-009  0.2522242E+03  0.7561462E-02  0.1111907E+00
         -2   -1    0    0    0  501 -0.00000000000E+00  0.00000000000E+00  0.81447330846E+02  0.81447330846E+02  0.00000000000E+00 0.  1.
          2   -1    0    0  501    0  0.00000000000E+00 -0.00000000000E+00 -0.91606226947E+03  0.91606226947E+03  0.00000000000E+00 0. -1.
         25    2    1    2    0    0 -0.13808566346E+03  0.19096419907E+03 -0.57911501295E+03  0.63761767520E+03  0.12508847158E+03 0.  0.
          5    1    3    3  502    0 -0.14742678852E+03  0.15082564959E+03 -0.54345021906E+03  0.58295681448E+03  0.41800000000E+01 0.  1.
         -5    1    3    3    0  502  0.93411250609E+01  0.40138549479E+02 -0.35664793889E+02  0.54660860721E+02  0.41800000000E+01 0.  1.
        -11    1    1    2    0    0  0.13671582412E+03 -0.12241668784E+03 -0.16862459826E+03  0.24922142197E+03  0.00000000000E+00 0. -1.
         11    1    1    2    0    0  0.13698393403E+01 -0.68547511226E+02 -0.86875327415E+02  0.11067050315E+03  0.00000000000E+00 0.  1.
</event>
<event>
 7    1  0.2564986E-009  0.6603166E+02  0.7561462E-02  0.1374132E+00
         -1   -1    0    0    0  501 -0.00000000000E+00  0.00000000000E+00  0.10851042998E+03  0.10851042998E+03  0.00000000000E+00 0.  1.
          1   -1    0    0  501    0  0.00000000000E+00 -0.00000000000E+00 -0.12874499240E+03  0.12874499240E+03  0.00000000000E+00 0. -1.
         25    2    1    2    0    0  0.30753783593E+02  0.16377963421E+02  0.15503711283E+02  0.13077295848E+03  0.12508864343E+03 0.  0.
          5    1    3    3  502    0  0.47990771210E+02 -0.18630638055E+02  0.54752243337E+02  0.75269484827E+02  0.41800000000E+01 0. -1.
         -5    1    3    3    0  502 -0.17236987618E+02  0.35008601476E+02 -0.39248532054E+02  0.55503473656E+02  0.41800000000E+01 0. -1.
        -11    1    1    2    0    0 -0.20867017786E+01 -0.11986694698E+02  0.31223383528E+02  0.33510220128E+02  0.00000000000E+00 0.  1.
         11    1    1    2    0    0 -0.28667081814E+02 -0.43912687235E+01 -0.66961657231E+02  0.72972243763E+02  0.00000000000E+00 0. -1.
</event>
<event>
 7    1  0.2564986E-009  0.8865559E+02  0.7561462E-02  0.1306140E+00
         -2   -1    0    0    0  501 -0.00000000000E+00  0.00000000000E+00  0.36991341116E+02  0.36991341116E+02  0.00000000000E+00 0.  1.
          2   -1    0    0  501    0  0.00000000000E+00 -0.00000000000E+00 -0.38776338358E+03  0.38776338358E+03  0.00000000000E+00 0. -1.
         25    2    1    2    0    0 -0.43419559307E+02  0.23685642150E+02 -0.17184427814E+03  0.21822961823E+03  0.12508973806E+03 0.  0.
          5    1    3    3  502    0 -0.61003033566E+02  0.15197319014E+02 -0.18424795031E+03  0.19472315785E+03  0.41800000000E+01 0. -1.
         -5    1    3    3    0  502  0.17583474258E+02  0.84883231357E+01  0.12403672163E+02  0.23506460384E+02  0.41800000000E+01 0. -1.
        -11    1    1    2    0    0  0.88687910259E+01 -0.50079443968E+02 -0.13695129454E+03  0.14608991491E+03  0.00000000000E+00 0. -1.
         11    1    1    2    0    0  0.34550768281E+02  0.26393801819E+02 -0.41976469787E+02  0.60435191561E+02  0.00000000000E+00 0.  1.
</event>
<event>
 7    1  0.2564986E-009  0.1190967E+03  0.7561462E-02  0.1244595E+00
         -2   -1    0    0    0  501 -0.00000000000E+00  0.00000000000E+00  0.11549040596E+03  0.11549040596E+03  0.00000000000E+00 0.  1.
          2   -1    0    0  501    0  0.00000000000E+00 -0.00000000000E+00 -0.19906013678E+03  0.19906013678E+03  0.00000000000E+00 0. -1.
         25    2    1    2    0    0  0.66511419080E+02 -0.32853398847E+02  0.35083490335E+02  0.14960464528E+03  0.12509030303E+03 0.  0.
          5    1    3    3  502    0 -0.33917308001E+01  0.30309730241E+02  0.45275978003E+02  0.54750070038E+02  0.41800000000E+01 0.  1.
         -5    1    3    3    0  502  0.69903149880E+02 -0.63163129088E+02 -0.10192487668E+02  0.94854575241E+02  0.41800000000E+01 0.  1.
        -11    1    1    2    0    0  0.66402960091E+01 -0.21156501899E+02 -0.13629960147E+02  0.26028194661E+02  0.00000000000E+00 0.  1.
         11    1    1    2    0    0 -0.73151715089E+02  0.54009900746E+02 -0.10502326101E+03  0.13891770280E+03  0.00000000000E+00 0. -1.
</event>
<event>
 7    1  0.2564986E-009  0.1213456E+03  0.7561462E-02  0.1240894E+00
          1   -1    0    0  501    0  0.00000000000E+00  0.00000000000E+00  0.51742029508E+02  0.51742029508E+02  0.00000000000E+00 0. -1.
         -1   -1    0    0    0  501 -0.00000000000E+00 -0.00000000000E+00 -0.33822986279E+03  0.33822986279E+03  0.00000000000E+00 0.  1.
         25    2    1    2    0    0  0.19331733298E+02 -0.51390770247E+02 -0.83595850531E+02  0.16015702016E+03  0.12508907907E+03 0.  0.
          5    1    3    3  502    0  0.70820780489E+02 -0.42827805014E+02 -0.62090837636E+02  0.10354973853E+03  0.41800000000E+01 0.  1.
         -5    1    3    3    0  502 -0.51489047191E+02 -0.85629652328E+01 -0.21505012895E+02  0.56607281633E+02  0.41800000000E+01 0.  1.
        -11    1    1    2    0    0  0.15355083648E+01 -0.26640903180E+02 -0.60152044904E+02  0.65805501399E+02  0.00000000000E+00 0. -1.
         11    1    1    2    0    0 -0.20867241662E+02  0.78031673427E+02 -0.14273993785E+03  0.16400937074E+03  0.00000000000E+00 0.  1.
</event>
<event>
 7    1  0.2564986E-009  0.1686556E+03  0.7561462E-02  0.1179257E+00
          2   -1    0    0  501    0  0.00000000000E+00  0.00000000000E+00  0.43571382708E+03  0.43571382708E+03  0.00000000000E+00 0. -1.
         -2   -1    0    0    0  501 -0.00000000000E+00 -0.00000000000E+00 -0.14257953916E+03  0.14257953916E+03  0.00000000000E+00 0.  1.
         25    2    1    2    0    0 -0.11353792508E+03  0.90518264839E+02  0.34833514531E+03  0.39758000597E+03  0.12509224994E+03 0.  0.
          5    1    3    3  502    0 -0.69171030491E+02 -0.25267095398E+00  0.23814939781E+03  0.24802681988E+03  0.41800000000E+01 0. -1.
         -5    1    3    3    0  502 -0.44366894589E+02  0.90770935793E+02  0.11018574750E+03  0.14955318610E+03  0.41800000000E+01 0. -1.
        -11    1    1    2    0    0 -0.13116258212E+02 -0.12616875142E+02 -0.21646143414E+02  0.28280334024E+02  0.00000000000E+00 0.  1.
         11    1    1    2    0    0  0.12665418329E+03 -0.77901389696E+02 -0.33554713972E+02  0.15243302625E+03  0.00000000000E+00 0. -1.
</event>
<event>
 7    1  0.2564986E-009  0.1312587E+03  0.7561462E-02  0.1225600E+00
         -2   -1    0    0    0  501 -0.00000000000E+00  0.00000000000E+00  0.19271415254E+02  0.19271415254E+02  0.00000000000E+00 0.  1.
          2   -1    0    0  501    0  0.00000000000E+00 -0.00000000000E+00 -0.96672631943E+03  0.96672631943E+03  0.00000000000E+00 0. -1.
         25    2    1    2    0    0  0.49676352306E+02  0.64196566577E+02 -0.52121261197E+03  0.54212299478E+03  0.12508323407E+03 0.  0.
          5    1    3    3  502    0  0.64379880519E+02 -0.14793040551E+02 -0.28497878087E+03  0.29256449034E+03  0.41800000000E+01 0.  1.
         -5    1    3    3    0  502 -0.14703528214E+02  0.78989607129E+02 -0.23623383111E+03  0.24955850443E+03  0.41800000000E+01 0.  1.
        -11    1    1    2    0    0 -0.72993106504E+01 -0.72350828821E+02 -0.18454631251E+03  0.19835640607E+03  0.00000000000E+00 0.  1.
         11    1    1    2    0    0 -0.42377041655E+02  0.81542622442E+01 -0.24169597969E+03  0.24551833384E+03  0.00000000000E+00 0. -1.
</event>
<event>
 7    1  0.2564986E-009  0.1815044E+03  0.7561462E-02  0.1166355E+00
          2   -1    0    0  501    0  0.00000000000E+00  0.00000000000E+00  0.69767848679E+03  0.69767848679E+03  0.00000000000E+00 0. -1.
         -2   -1    0    0    0  501 -0.00000000000E+00 -0.00000000000E+00 -0.50670854713E+02  0.50670854713E+02  0.00000000000E+00 0.  1.
         25    2    1    2    0    0 -0.20908188840E+02  0.15101114531E+03  0.35698913442E+03  0.40783513650E+03  0.12508692221E+03 0.  0.
          5    1    3    3  502    0  0.37444748403E+02  0.10257020336E+03  0.27579222745E+03  0.29665060411E+03  0.41800000000E+01 0.  1.
         -5    1    3    3    0  502 -0.58352937243E+02  0.48440941945E+02  0.81196906971E+02  0.11118453239E+03  0.41800000000E+01 0.  1.
        -11    1    1    2    0    0 -0.33666566583E+02 -0.89119765164E+02  0.16984009156E+03  0.19473424699E+03  0.00000000000E+00 0.  1.
         11    1    1    2    0    0  0.54574755423E+02 -0.61891380144E+02  0.12017840610E+03  0.14577995802E+03  0.00000000000E+00 0. -1.
</event>
<event>
 7    1  0.2564986E-009  0.9265223E+02  0.7561462E-02  0.1296553E+00
         -2   -1    0    0    0  501 -0.00000000000E+00  0.00000000000E+00  0.35279109280E+03  0.35279109280E+03  0.00000000000E+00 0. -1.
          2   -1    0    0  501    0  0.00000000000E+00 -0.00000000000E+00 -0.54480961518E+02  0.54480961518E+02  0.00000000000E+00 0.  1.
         25    2    1    2    0    0  0.61568395481E+02  0.32657312577E+02  0.89103551926E+02  0.16865466815E+03  0.12509111374E+03 0.  0.
          5    1    3    3  502    0 -0.12667679245E+02 -0.77119518229E+01 -0.23320913057E+02  0.27951416497E+02  0.41800000000E+01 0. -1.
         -5    1    3    3    0  502  0.74236074726E+02  0.40369264399E+02  0.11242446498E+03  0.14070325165E+03  0.41800000000E+01 0. -1.
        -11    1    1    2    0    0 -0.19351640995E+02 -0.38091476276E+02  0.24883101396E+02  0.49443051172E+02  0.00000000000E+00 0.  1.
         11    1    1    2    0    0 -0.42216754486E+02  0.54341636992E+01  0.18432347796E+03  0.18917433500E+03  0.00000000000E+00 0. -1.
</event>
<event>
 7    1  0.2564986E-009  0.2268174E+03  0.7561462E-02  0.1128900E+00
          2   -1    0    0  501    0  0.00000000000E+00  0.00000000000E+00  0.11972373912E+04  0.11972373912E+04  0.00000000000E+00 0.  1.
         -2   -1    0    0    0  501 -0.00000000000E+00 -0.00000000000E+00 -0.53405478009E+02  0.53405478009E+02  0.00000000000E+00 0. -1.
         25    2    1    2    0    0 -0.38292273265E+02  0.19541193766E+03  0.86119727675E+03  0.89272638888E+03  0.12509009691E+03 0.  0.
          5    1    3    3  502    0 -0.71169489060E+02  0.55112271480E+02  0.36969986905E+03  0.38052322428E+03  0.41800000000E+01 0. -1.
         -5    1    3    3    0  502  0.32877215795E+02  0.14029966618E+03  0.49149740771E+03  0.51220316460E+03  0.41800000000E+01 0. -1.
        -11    1    1    2    0    0  0.64151530585E+02 -0.88113866207E+02  0.13221503677E+03  0.17134844102E+03  0.00000000000E+00 0.  1.
         11    1    1    2    0    0 -0.25859257320E+02 -0.10729807145E+03  0.15041959969E+03  0.18656803932E+03  0.00000000000E+00 0. -1.
</event>
<event>
 7    1  0.2564986E-009  0.2867980E+03  0.7561462E-02  0.1092033E+00
         -4   -1    0    0    0  501 -0.00000000000E+00  0.00000000000E+00  0.20273940968E+03  0.20273940968E+03  0.00000000000E+00 0.  1.
          4   -1    0    0  501    0  0.00000000000E+00 -0.00000000000E+00 -0.42567088531E+03  0.42567088531E+03  0.00000000000E+00 0. -1.
         25    2    1    2    0    0  0.20627949076E+03  0.17560771185E+03 -0.14899797875E+03  0.33352265377E+03  0.12509063171E+03 0.  0.
          5    1    3    3  502    0  0.72285078626E+02  0.68503103190E+01 -0.77899444490E+02  0.10657323864E+03  0.41800000000E+01 0.  1.
         -5    1    3    3    0  502  0.13399441213E+03  0.16875740153E+03 -0.71098534260E+02  0.22694941513E+03  0.41800000000E+01 0.  1.
        -11    1    1    2    0    0 -0.19994721968E+01 -0.40220795518E+02 -0.13524491192E+02  0.42480844426E+02  0.00000000000E+00 0. -1.
         11    1    1    2    0    0 -0.20428001856E+03 -0.13538691633E+03 -0.60409005690E+02  0.25240679679E+03  0.00000000000E+00 0.  1.
</event>
<event>
 7    1  0.2564986E-009  0.1053595E+03  0.7561462E-02  0.1269413E+00
          3   -1    0    0  501    0  0.00000000000E+00  0.00000000000E+00  0.97332975639E+02  0.97332975639E+02  0.00000000000E+00 0. -1.
         -3   -1    0    0    0  501 -0.00000000000E+00 -0.00000000000E+00 -0.12983198546E+03  0.12983198546E+03  0.00000000000E+00 0.  1.
         25    2    1    2    0    0 -0.26604887954E+00 -0.60392538871E+01  0.84613191752E+01  0.12552508208E+03  0.12509360071E+03 0.  0.
          5    1    3    3  502    0  0.56615625093E+02  0.13772616264E+02  0.24039922923E+02  0.63169646648E+02  0.41800000000E+01 0. -1.
         -5    1    3    3    0  502 -0.56881673973E+02 -0.19811870152E+02 -0.15578603748E+02  0.62355435429E+02  0.41800000000E+01 0. -1.
        -11    1    1    2    0    0 -0.36489251292E+01 -0.42786620914E+02 -0.11402172120E+02  0.44429934873E+02  0.00000000000E+00 0. -1.
         11    1    1    2    0    0  0.39149740087E+01  0.48825874801E+02 -0.29558156873E+02  0.57209944147E+02  0.00000000000E+00 0.  1.
</event>
<event>
 7    1  0.2564986E-009  0.1757801E+03  0.7561462E-02  0.1171951E+00
         -1   -1    0    0    0  501 -0.00000000000E+00  0.00000000000E+00  0.66654098126E+02  0.66654098126E+02  0.00000000000E+00 0.  1.
          1   -1    0    0  501    0  0.00000000000E+00 -0.00000000000E+00 -0.52688456000E+03  0.52688456000E+03  0.00000000000E+00 0. -1.
         25    2    1    2    0    0  0.55252327564E+02  0.13555136184E+03 -0.31231999371E+03  0.36690373617E+03  0.12509029440E+03 0.  0.
          5    1    3    3  502    0  0.88193848928E+02  0.12628583204E+03 -0.22207360305E+03  0.27029691810E+03  0.41800000000E+01 0. -1.
         -5    1    3    3    0  502 -0.32941521363E+02  0.92655298033E+01 -0.90246390655E+02  0.96606818075E+02  0.41800000000E+01 0. -1.
        -11    1    1    2    0    0 -0.10212225162E+02 -0.11144224092E+03 -0.65482855597E+02  0.12965981251E+03  0.00000000000E+00 0.  1.
         11    1    1    2    0    0 -0.45040102403E+02 -0.24109120923E+02 -0.82427612567E+02  0.96975109433E+02  0.00000000000E+00 0. -1.
</event>
<event>
 7    1  0.2564986E-009  0.4539795E+03  0.7561462E-02  0.1026542E+00
         -2   -1    0    0    0  501 -0.00000000000E+00  0.00000000000E+00  0.15743740238E+03  0.15743740238E+03  0.00000000000E+00 0. -1.
          2   -1    0    0  501    0  0.00000000000E+00 -0.00000000000E+00 -0.15192229017E+04  0.15192229017E+04  0.00000000000E+00 0.  1.
         25    2    1    2    0    0 -0.37342307611E+03 -0.24178900089E+03 -0.97108943585E+03  0.10754386674E+04  0.12508765027E+03 0.  0.
          5    1    3    3  502    0 -0.60934639828E+02 -0.75220221114E+02 -0.12447867045E+03  0.15774512288E+03  0.41800000000E+01 0.  1.
         -5    1    3    3    0  502 -0.31248843629E+03 -0.16656877977E+03 -0.84661076541E+03  0.91769354455E+03  0.41800000000E+01 0.  1.
        -11    1    1    2    0    0  0.33864110754E+03  0.17397753198E+03 -0.32241228663E+03  0.49889444166E+03  0.00000000000E+00 0.  1.
         11    1    1    2    0    0  0.34781968573E+02  0.67811468910E+02 -0.68283776792E+02  0.10232719495E+03  0.00000000000E+00 0. -1.
</event>
<event>
 7    1  0.2564986E-009  0.9056118E+02  0.7561462E-02  0.1301498E+00
         -1   -1    0    0    0  501 -0.00000000000E+00  0.00000000000E+00  0.27853069623E+02  0.27853069623E+02  0.00000000000E+00 0.  1.
          1   -1    0    0  501    0  0.00000000000E+00 -0.00000000000E+00 -0.54005768234E+03  0.54005768234E+03  0.00000000000E+00 0. -1.
         25    2    1    2    0    0 -0.17551163201E+02 -0.51602267921E+02 -0.27197291963E+03  0.30429012105E+03  0.12510943758E+03 0.  0.
          5    1    3    3  502    0 -0.32280705933E+02 -0.21983918955E+02 -0.26782652924E+03  0.27069144581E+03  0.41800000000E+01 0.  1.
         -5    1    3    3    0  502  0.14729542733E+02 -0.29618348966E+02 -0.41463903853E+01  0.33598675239E+02  0.41800000000E+01 0.  1.
        -11    1    1    2    0    0 -0.38932658804E+02  0.22376166342E+02 -0.10357082369E+03  0.11288649283E+03  0.00000000000E+00 0.  1.
         11    1    1    2    0    0  0.56483822005E+02  0.29226101579E+02 -0.13666086940E+03  0.15073413809E+03  0.00000000000E+00 0. -1.
</event>
<event>
 7    1  0.2564986E-009  0.1745042E+03  0.7561462E-02  0.1173230E+00
          1   -1    0    0  501    0  0.00000000000E+00  0.00000000000E+00  0.20309584434E+03  0.20309584434E+03  0.00000000000E+00 0. -1.
         -1   -1    0    0    0  501 -0.00000000000E+00 -0.00000000000E+00 -0.19740702033E+03  0.19740702033E+03  0.00000000000E+00 0.  1.
         25    2    1    2    0    0  0.15127268074E+03 -0.27341379930E+02 -0.64139757922E+02  0.20830880000E+03  0.12509065758E+03 0.  0.
          5    1    3    3  502    0  0.33323601198E+02  0.24106489847E+02 -0.67910959399E+02  0.79504440480E+02  0.41800000000E+01 0.  1.
         -5    1    3    3    0  502  0.11794907954E+03 -0.51447869777E+02  0.37712014770E+01  0.12880435952E+03  0.41800000000E+01 0.  1.
        -11    1    1    2    0    0 -0.12444381782E+03 -0.18491984263E+02  0.45586660801E+02  0.13381465136E+03  0.00000000000E+00 0. -1.
         11    1    1    2    0    0 -0.26828862921E+02  0.45833364193E+02  0.24241921138E+02  0.58379413318E+02  0.00000000000E+00 0.  1.
</event>
<event>
 7    1  0.2564986E-009  0.1321153E+03  0.7561462E-02  0.1224350E+00
          2   -1    0    0  501    0  0.00000000000E+00  0.00000000000E+00  0.10380509182E+04  0.10380509182E+04  0.00000000000E+00 0. -1.
         -2   -1    0    0    0  501 -0.00000000000E+00 -0.00000000000E+00 -0.24864199479E+02  0.24864199479E+02  0.00000000000E+00 0.  1.
         25    2    1    2    0    0 -0.81345584538E+02 -0.23768257274E+02  0.81456845575E+03  0.82846338432E+03  0.12509107035E+03 0.  0.
          5    1    3    3  502    0 -0.56906875506E+01 -0.61025432980E+02  0.24066330820E+03  0.24838032874E+03  0.41800000000E+01 0. -1.
         -5    1    3    3    0  502 -0.75654896987E+02  0.37257175707E+02  0.57390514755E+03  0.58008305558E+03  0.41800000000E+01 0. -1.
        -11    1    1    2    0    0  0.98233284960E+02  0.25202431410E+02  0.19015331976E+03  0.21550690439E+03  0.00000000000E+00 0. -1.
         11    1    1    2    0    0 -0.16887700422E+02 -0.14341741365E+01  0.84649432060E+01  0.18944828964E+02  0.00000000000E+00 0.  1.
</event>
<event>
 7    1  0.2564986E-009  0.2408199E+03  0.7561462E-02  0.1119248E+00
         -2   -1    0    0    0  501 -0.00000000000E+00  0.00000000000E+00  0.93756305897E+02  0.93756305897E+02  0.00000000000E+00 0.  1.
          2   -1    0    0  501    0  0.00000000000E+00 -0.00000000000E+00 -0.67712815618E+03  0.67712815618E+03  0.00000000000E+00 0. -1.
         25    2    1    2    0    0 -0.64652950405E+02 -0.21080028494E+03 -0.38343095663E+03  0.45965622874E+03  0.12509111076E+03 0.  0.
          5    1    3    3  502    0 -0.91086011638E+02 -0.13414777846E+03 -0.18964461263E+03  0.24954927266E+03  0.41800000000E+01 0.  1.
         -5    1    3    3    0  502  0.26433061233E+02 -0.76652506476E+02 -0.19378634400E+03  0.21010695609E+03  0.41800000000E+01 0.  1.
        -11    1    1    2    0    0  0.87780432345E+02  0.16241622278E+03 -0.14871989252E+03  0.23706969473E+03  0.00000000000E+00 0. -1.
         11    1    1    2    0    0 -0.23127481940E+02  0.48384062155E+02 -0.51221001125E+02  0.74158538603E+02  0.00000000000E+00 0.  1.
</event>
<event>
 7    1  0.2564986E-009  0.9769771E+02  0.7561462E-02  0.1285213E+00
          1   -1    0    0  501    0  0.00000000000E+00  0.00000000000E+00  0.54689008017E+02  0.54689008017E+02  0.00000000000E+00 0. -1.
         -1   -1    0    0    0  501 -0.00000000000E+00 -0.00000000000E+00 -0.24344244599E+03  0.24344244599E+03  0.00000000000E+00 0.  1.
         25    2    1    2    0    0  0.12873307279E+02 -0.16530035085E+02 -0.68598571389E+02  0.14418592526E+03  0.12507938658E+03 0.  0.
          5    1    3    3  502    0  0.23525773080E+02  0.37803575606E+02 -0.75987270304E+02  0.88170913435E+02  0.41800000000E+01 0. -1.
         -5    1    3    3    0  502 -0.10652465802E+02 -0.54333610691E+02  0.73886989152E+01  0.56015011827E+02  0.41800000000E+01 0. -1.
        -11    1    1    2    0    0 -0.40597546555E+02 -0.23155958128E+02 -0.47486499342E+02  0.66628273300E+02  0.00000000000E+00 0. -1.
         11    1    1    2    0    0  0.27724239277E+02  0.39685993213E+02 -0.72668367241E+02  0.87317255444E+02  0.00000000000E+00 0.  1.
</event>
<event>
 7    1  0.2564986E-009  0.1548295E+03  0.7561462E-02  0.1194661E+00
          1   -1    0    0  501    0  0.00000000000E+00  0.00000000000E+00  0.41547944027E+03  0.41547944027E+03  0.00000000000E+00 0.  1.
         -1   -1    0    0    0  501 -0.00000000000E+00 -0.00000000000E+00 -0.63845483187E+02  0.63845483187E+02  0.00000000000E+00 0. -1.
         25    2    1    2    0    0  0.10392579719E+03  0.61256942864E+02  0.19392591877E+03  0.26039598409E+03  0.12508326102E+03 0.  0.
          5    1    3    3  502    0  0.66793364693E+02 -0.23653083515E+02  0.12875335714E+03  0.14702285979E+03  0.41800000000E+01 0.  1.
         -5    1    3    3    0  502  0.37132432500E+02  0.84910026379E+02  0.65172561627E+02  0.11337312429E+03  0.41800000000E+01 0.  1.
        -11    1    1    2    0    0 -0.80803695798E+02 -0.81799655439E+02  0.14604127539E+03  0.18587220073E+03  0.00000000000E+00 0.  1.
         11    1    1    2    0    0 -0.23122101395E+02  0.20542712575E+02  0.11666762926E+02  0.33056738648E+02  0.00000000000E+00 0. -1.
</event>
<event>
 7    1  0.2564986E-009  0.2030129E+03  0.7561462E-02  0.1147222E+00
         -2   -1    0    0    0  501 -0.00000000000E+00  0.00000000000E+00  0.97095271198E+02  0.97095271198E+02  0.00000000000E+00 0. -1.
          2   -1    0    0  501    0  0.00000000000E+00 -0.00000000000E+00 -0.48285007856E+03  0.48285007856E+03  0.00000000000E+00 0.  1.
         25    2    1    2    0    0 -0.13431504584E+03 -0.12959497933E+03 -0.19489532268E+03  0.29743268264E+03  0.12508646487E+03 0.  0.
          5    1    3    3  502    0 -0.37744036580E+02 -0.11535232851E+03 -0.14011070941E+03  0.18541643746E+03  0.41800000000E+01 0. -1.
         -5    1    3    3    0  502 -0.96571009259E+02 -0.14242650813E+02 -0.54784613277E+02  0.11201624518E+03  0.41800000000E+01 0. -1.
        -11    1    1    2    0    0  0.93830662092E+02  0.84426242520E+02 -0.63166193752E+02  0.14114514376E+03  0.00000000000E+00 0.  1.
         11    1    1    2    0    0  0.40484383746E+02  0.45168736808E+02 -0.12769329092E+03  0.14136752335E+03  0.00000000000E+00 0. -1.
</event>
<event>
 7    1  0.2564986E-009  0.1356974E+03  0.7561462E-02  0.1219239E+00
         -1   -1    0    0    0  501 -0.00000000000E+00  0.00000000000E+00  0.55008029275E+02  0.55008029275E+02  0.00000000000E+00 0.  1.
          1   -1    0    0  501    0  0.00000000000E+00 -0.00000000000E+00 -0.45981614100E+03  0.45981614100E+03  0.00000000000E+00 0. -1.
         25    2    1    2    0    0 -0.11166800934E+03 -0.86384528252E+01 -0.17520158665E+03  0.24266531424E+03  0.12508593683E+03 0.  0.
          5    1    3    3  502    0 -0.74569421385E+01  0.42369919309E+02 -0.17030346805E+02  0.46457735208E+02  0.41800000000E+01 0.  1.
         -5    1    3    3    0  502 -0.10421106720E+03 -0.51008372134E+02 -0.15817123984E+03  0.19620757903E+03  0.41800000000E+01 0.  1.
        -11    1    1    2    0    0  0.43255310599E+02  0.52704085098E+01 -0.18582652869E+03  0.19086722575E+03  0.00000000000E+00 0. -1.
         11    1    1    2    0    0  0.68412698739E+02  0.33680443154E+01 -0.43779996387E+02  0.81291630288E+02  0.00000000000E+00 0.  1.
</event>
<event>
 7    1  0.2564986E-009  0.1026927E+03  0.7561462E-02  0.1274733E+00
          3   -1    0    0  501    0  0.00000000000E+00  0.00000000000E+00  0.15303611713E+03  0.15303611713E+03  0.00000000000E+00 0. -1.
         -3   -1    0    0    0  501 -0.00000000000E+00 -0.00000000000E+00 -0.98894398310E+02  0.98894398310E+02  0.00000000000E+00 0.  1.
         25    2    1    2    0    0 -0.10782663660E+02  0.41295844267E+02  0.70391312479E+02  0.14974675848E+03  0.12509013636E+03 0.  0.
          5    1    3    3  502    0  0.19239674213E+02 -0.40189351359E+02  0.17975823846E+02  0.48228121147E+02  0.41800000000E+01 0.  1.
         -5    1    3    3    0  502 -0.30022337873E+02  0.81485195626E+02  0.52415488634E+02  0.10151863733E+03  0.41800000000E+01 0.  1.
        -11    1    1    2    0    0 -0.15958019363E+02 -0.44010090269E+02 -0.43502615305E+02  0.63906368742E+02  0.00000000000E+00 0.  1.
         11    1    1    2    0    0  0.26740683023E+02  0.27142460022E+01  0.27253021651E+02  0.38277388220E+02  0.00000000000E+00 0. -1.
</event>
<event>
 7    1  0.2564986E-009  0.2348319E+03  0.7561462E-02  0.1123284E+00
          2   -1    0    0  501    0  0.00000000000E+00  0.00000000000E+00  0.10044154612E+04  0.10044154612E+04  0.00000000000E+00 0. -1.
         -2   -1    0    0    0  501 -0.00000000000E+00 -0.00000000000E+00 -0.57735024996E+02  0.57735024996E+02  0.00000000000E+00 0.  1.
         25    2    1    2    0    0  0.19987500620E+03 -0.78708226732E+02  0.48508764157E+03  0.54506988117E+03  0.12508458055E+03 0.  0.
          5    1    3    3  502    0  0.14992764431E+03 -0.13711827180E+01  0.35739851443E+03  0.38759689006E+03  0.41800000000E+01 0. -1.
         -5    1    3    3    0  502  0.49947361893E+02 -0.77337044014E+02  0.12768912714E+03  0.15747299110E+03  0.41800000000E+01 0. -1.
        -11    1    1    2    0    0 -0.82188181595E+02 -0.61575504451E+01  0.11631352794E+03  0.14255402275E+03  0.00000000000E+00 0.  1.
         11    1    1    2    0    0 -0.11768682461E+03  0.84865777177E+02  0.34527926670E+03  0.37452658228E+03  0.00000000000E+00 0. -1.
</event>
<event>
 7    1  0.2564986E-009  0.1245963E+03  0.7561462E-02  0.1235702E+00
         -2   -1    0    0    0  501 -0.00000000000E+00  0.00000000000E+00  0.35279602540E+02  0.35279602540E+02  0.00000000000E+00 0.  1.
          2   -1    0    0  501    0  0.00000000000E+00 -0.00000000000E+00 -0.53501367676E+03  0.53501367676E+03  0.00000000000E+00 0. -1.
         25    2    1    2    0    0  0.38980008122E+02 -0.75314659264E+02 -0.28048734563E+03  0.31860912362E+03  0.12508750400E+03 0.  0.
          5    1    3    3  502    0 -0.31869360534E+02 -0.58234141639E+02 -0.73513153975E+02  0.99138930802E+02  0.41800000000E+01 0.  1.
         -5    1    3    3    0  502  0.70849368656E+02 -0.17080517625E+02 -0.20697419166E+03  0.21947019281E+03  0.41800000000E+01 0.  1.
        -11    1    1    2    0    0 -0.45545839466E+02  0.13484387239E+02 -0.40467050238E+02  0.62400595725E+02  0.00000000000E+00 0.  1.
         11    1    1    2    0    0  0.65658313437E+01  0.61830272025E+02 -0.17877967834E+03  0.18928355995E+03  0.00000000000E+00 0. -1.
</event>
<event>
 7    1  0.2564986E-009  0.7963584E+02  0.7561462E-02  0.1330088E+00
          2   -1    0    0  501    0  0.00000000000E+00  0.00000000000E+00  0.28808043238E+03  0.28808043238E+03  0.00000000000E+00 0. -1.
         -2   -1    0    0    0  501 -0.00000000000E+00 -0.00000000000E+00 -0.42545277897E+02  0.42545277897E+02  0.00000000000E+00 0.  1.
         25    2    1    2    0    0  0.31530037315E+02  0.21301768908E+02  0.12288620835E+03  0.17943443365E+03  0.12509111544E+03 0.  0.
          5    1    3    3  502    0  0.51769230757E+02  0.39743244180E+02  0.13737851731E+02  0.66826489368E+02  0.41800000000E+01 0.  1.
         -5    1    3    3    0  502 -0.20239193442E+02 -0.18441475272E+02  0.10914835662E+03  0.11260794428E+03  0.41800000000E+01 0.  1.
        -11    1    1    2    0    0 -0.16887563907E+02 -0.39416486183E+02  0.22611933880E+02  0.48478332805E+02  0.00000000000E+00 0.  1.
         11    1    1    2    0    0 -0.14642473407E+02  0.18114717276E+02  0.10003701225E+03  0.10271294383E+03  0.00000000000E+00 0. -1.
</event>
<event>
 7    1  0.2564986E-009  0.7801106E+02  0.7561462E-02  0.1334792E+00
         -1   -1    0    0    0  501 -0.00000000000E+00  0.00000000000E+00  0.18131711801E+03  0.18131711801E+03  0.00000000000E+00 0.  1.
          1   -1    0    0  501    0  0.00000000000E+00 -0.00000000000E+00 -0.10672288575E+03  0.10672288575E+03  0.00000000000E+00 0. -1.
         25    2    1    2    0    0 -0.53667705561E+02 -0.22752600646E+02 -0.26001615457E+02  0.14043531385E+03  0.12509232556E+03 0.  0.
          5    1    3    3  502    0  0.20608231728E+00  0.10456620637E+02 -0.65007600334E+02  0.65976085715E+02  0.41800000000E+01 0.  1.
         -5    1    3    3    0  502 -0.53873787878E+02 -0.33209221283E+02  0.39005984877E+02  0.74459228137E+02  0.41800000000E+01 0.  1.
        -11    1    1    2    0    0  0.22694555031E+02  0.39921171096E+02  0.10231717593E+03  0.11214966437E+03  0.00000000000E+00 0.  1.
         11    1    1    2    0    0  0.30973150529E+02 -0.17168570451E+02 -0.17213282052E+01  0.35455025537E+02  0.00000000000E+00 0. -1.
</event>
<event>
 7    1  0.2564986E-009  0.1310298E+03  0.7561462E-02  0.1225936E+00
          1   -1    0    0  501    0  0.00000000000E+00  0.00000000000E+00  0.10876630098E+03  0.10876630098E+03  0.00000000000E+00 0. -1.
         -1   -1    0    0    0  501 -0.00000000000E+00 -0.00000000000E+00 -0.16889275087E+03  0.16889275087E+03  0.00000000000E+00 0.  1.
         25    2    1    2    0    0  0.16471845948E+02 -0.78352540654E+02 -0.24754296715E+02  0.15057906631E+03  0.12510330799E+03 0.  0.
          5    1    3    3  502    0 -0.50609349156E+02 -0.96516686924E+01 -0.15805376194E+02  0.54053152056E+02  0.41800000000E+01 0. -1.
         -5    1    3    3    0  502  0.67081195104E+02 -0.68700871961E+02 -0.89489205211E+01  0.96525914258E+02  0.41800000000E+01 0. -1.
        -11    1    1    2    0    0 -0.58974118489E+01 -0.17168991312E+02 -0.24310199204E+02  0.30340394106E+02  0.00000000000E+00 0. -1.
         11    1    1    2    0    0 -0.10574434099E+02  0.95521531966E+02 -0.11061953969E+02  0.96739591436E+02  0.00000000000E+00 0.  1.
</event>
<event>
 7    1  0.2618167E-009  0.1818839E+03  0.7561462E-02  0.1165992E+00
          1   -1    0    0  501    0  0.00000000000E+00  0.00000000000E+00  0.50794637077E+03  0.50794637077E+03  0.00000000000E+00 0. -1.
         -1   -1    0    0    0  501 -0.00000000000E+00 -0.00000000000E+00 -0.78645963699E+02  0.78645963699E+02  0.00000000000E+00 0.  1.
         25    2    1    2    0    0 -0.10982107930E+03 -0.11153783148E+03  0.31306790367E+03  0.37170019229E+03  0.12509261901E+03 0.  0.
          5    1    3    3  502    0 -0.11972544564E+03 -0.37908513980E+02  0.18650783173E+03  0.22488637456E+03  0.41800000000E+01 0.  1.
         -5    1    3    3    0  502  0.99043663341E+01 -0.73629317504E+02  0.12656007194E+03  0.14681381774E+03  0.41800000000E+01 0.  1.
        -11    1    1    2    0    0  0.53039356217E+02  0.21444132279E+02 -0.53785474195E-01  0.57210375021E+02  0.00000000000E+00 0.  1.
         11    1    1    2    0    0  0.56781723084E+02  0.90093699205E+02  0.11628628887E+03  0.15768176715E+03  0.00000000000E+00 0. -1.
</event>
<event>
 7    1  0.2564986E-009  0.6393270E+02  0.7561462E-02  0.1382032E+00
          2   -1    0    0  501    0  0.00000000000E+00  0.00000000000E+00  0.24214687041E+03  0.24214687041E+03  0.00000000000E+00 0. -1.
         -2   -1    0    0    0  501 -0.00000000000E+00 -0.00000000000E+00 -0.51707275071E+02  0.51707275071E+02  0.00000000000E+00 0.  1.
         25    2    1    2    0    0  0.14330688747E+02  0.13162496018E+02  0.85241640566E+02  0.15261722268E+03  0.12508900604E+03 0.  0.
          5    1    3    3  502    0 -0.33014180451E+02  0.14963115000E+02 -0.16698832493E+02  0.40126728349E+02  0.41800000000E+01 0. -1.
         -5    1    3    3    0  502  0.47344869198E+02 -0.18006189820E+01  0.10194047306E+03  0.11249049433E+03  0.41800000000E+01 0. -1.
        -11    1    1    2    0    0 -0.22764669041E+02 -0.21958447562E+02  0.11882110408E+03  0.12295876687E+03  0.00000000000E+00 0. -1.
         11    1    1    2    0    0  0.84339802940E+01  0.87959515437E+01 -0.13623149304E+02  0.18278155928E+02  0.00000000000E+00 0.  1.
</event>
<event>
 7    1  0.2564986E-009  0.9495833E+02  0.7561462E-02  0.1291270E+00
          2   -1    0    0  501    0  0.00000000000E+00  0.00000000000E+00  0.45532386539E+03  0.45532386539E+03  0.00000000000E+00 0.  1.
         -2   -1    0    0    0  501 -0.00000000000E+00 -0.00000000000E+00 -0.44354820610E+02  0.44354820610E+02  0.00000000000E+00 0. -1.
         25    2    1    2    0    0 -0.49579429692E+02  0.34207358190E+02  0.10339605198E+03  0.17311742779E+03  0.12510250612E+03 0.  0.
          5    1    3    3  502    0 -0.31827221963E+02 -0.14432273596E+02 -0.19112771683E+02  0.40050381027E+02  0.41800000000E+01 0. -1.
         -5    1    3    3    0  502 -0.17752207729E+02  0.48639631785E+02  0.12250882366E+03  0.13306704676E+03  0.41800000000E+01 0. -1.
        -11    1    1    2    0    0  0.63164694302E+02  0.29277770574E+01  0.24074865993E+03  0.24891417747E+03  0.00000000000E+00 0. -1.
         11    1    1    2    0    0 -0.13585264610E+02 -0.37135135247E+02  0.66824332871E+02  0.77647080744E+02  0.00000000000E+00 0.  1.
</event>
<event>
 7    1  0.2564986E-009  0.1226175E+03  0.7561462E-02  0.1238840E+00
         -2   -1    0    0    0  501 -0.00000000000E+00  0.00000000000E+00  0.12744608770E+03  0.12744608770E+03  0.00000000000E+00 0.  1.
          2   -1    0    0  501    0  0.00000000000E+00 -0.00000000000E+00 -0.21928061125E+03  0.21928061125E+03  0.00000000000E+00 0. -1.
         25    2    1    2    0    0 -0.45418613663E+02 -0.87762413737E+02 -0.13084509303E+03  0.20623696506E+03  0.12509258834E+03 0.  0.
          5    1    3    3  502    0 -0.57937916768E+02 -0.70339147525E+02 -0.20174507136E+02  0.93428480733E+02  0.41800000000E+01 0. -1.
         -5    1    3    3    0  502  0.12519303105E+02 -0.17423266212E+02 -0.11067058589E+03  0.11280848433E+03  0.41800000000E+01 0. -1.
        -11    1    1    2    0    0  0.43225586499E+02  0.10563977504E+03  0.43121690936E+02  0.12201513688E+03  0.00000000000E+00 0.  1.
         11    1    1    2    0    0  0.21930271643E+01 -0.17877361301E+02 -0.41111214597E+01  0.18474597015E+02  0.00000000000E+00 0. -1.
</event>
<event>
 7    1  0.3157076E-009  0.1500190E+03  0.7561462E-02  0.1200450E+00
         -1   -1    0    0    0  501 -0.00000000000E+00  0.00000000000E+00  0.25753174732E+02  0.25753174732E+02  0.00000000000E+00 0.  1.
          1   -1    0    0  501    0  0.00000000000E+00 -0.00000000000E+00 -0.97918270030E+03  0.97918270030E+03  0.00000000000E+00 0. -1.
         25    2    1    2    0    0  0.14235692592E+02 -0.11380960351E+03 -0.55222364317E+03  0.57771360958E+03  0.12508709694E+03 0.  0.
          5    1    3    3  502    0 -0.48519503417E+02 -0.28089362137E+02 -0.27744004542E+03  0.28307879765E+03  0.41800000000E+01 0. -1.
         -5    1    3    3    0  502  0.62755196008E+02 -0.85720241374E+02 -0.27478359775E+03  0.29463481193E+03  0.41800000000E+01 0. -1.
        -11    1    1    2    0    0 -0.43770970507E+02  0.87965709285E+02 -0.20758109702E+03  0.22966013087E+03  0.00000000000E+00 0.  1.
         11    1    1    2    0    0  0.29535277916E+02  0.25843894226E+02 -0.19362478537E+03  0.19756213458E+03  0.00000000000E+00 0. -1.
</event>
<event>
 7    1  0.2564986E-009  0.7469947E+02  0.7561462E-02  0.1344804E+00
         -1   -1    0    0    0  501 -0.00000000000E+00  0.00000000000E+00  0.65371300575E+02  0.65371300575E+02  0.00000000000E+00 0.  1.
          1   -1    0    0  501    0  0.00000000000E+00 -0.00000000000E+00 -0.20066605592E+03  0.20066605592E+03  0.00000000000E+00 0. -1.
         25    2    1    2    0    0  0.17511044041E+02 -0.80747135122E+01 -0.11487724203E+03  0.17092956766E+03  0.12509316010E+03 0.  0.
          5    1    3    3  502    0  0.22730498707E+02  0.36083224710E+02 -0.11860952105E+03  0.12611251152E+03  0.41800000000E+01 0.  1.
         -5    1    3    3    0  502 -0.52194546661E+01 -0.44157938222E+02  0.37322790233E+01  0.44817056148E+02  0.41800000000E+01 0.  1.
        -11    1    1    2    0    0 -0.93860314737E+01  0.33711513189E+02  0.24525756080E+02  0.42732615408E+02  0.00000000000E+00 0.  1.
         11    1    1    2    0    0 -0.81250125671E+01 -0.25636799676E+02 -0.44943269398E+02  0.52375173423E+02  0.00000000000E+00 0. -1.
</event>
<event>
 7    1  0.2564986E-009  0.1346750E+03  0.7561462E-02  0.1220679E+00
         -2   -1    0    0    0  501 -0.00000000000E+00  0.00000000000E+00  0.47003509014E+02  0.47003509014E+02  0.00000000000E+00 0.  1.
          2   -1    0    0  501    0  0.00000000000E+00 -0.00000000000E+00 -0.50253038425E+03  0.50253038425E+03  0.00000000000E+00 0. -1.
         25    2    1    2    0    0  0.10375234328E+03  0.14569921425E+02 -0.29219958196E+03  0.33467159656E+03  0.12509056918E+03 0.  0.
          5    1    3    3  502    0  0.81555531366E+02  0.57188160718E+02 -0.25488560028E+03  0.27368948108E+03  0.41800000000E+01 0.  1.
         -5    1    3    3    0  502  0.22196811914E+02 -0.42618239293E+02 -0.37313981678E+02  0.60982115479E+02  0.41800000000E+01 0.  1.
        -11    1    1    2    0    0 -0.10683031614E+03 -0.30851569626E+00 -0.88793558033E+02  0.13891402945E+03  0.00000000000E+00 0.  1.
         11    1    1    2    0    0  0.30779728622E+01 -0.14261405729E+02 -0.74533735248E+02  0.75948267263E+02  0.00000000000E+00 0. -1.
</event>
<event>
 7    1  0.2564986E-009  0.1092793E+03  0.7561462E-02  0.1261910E+00
         -1   -1    0    0    0  501 -0.00000000000E+00  0.00000000000E+00  0.16611507989E+03  0.16611507989E+03  0.00000000000E+00 0.  1.
          1   -1    0    0  501    0  0.00000000000E+00 -0.00000000000E+00 -0.12078514833E+03  0.12078514833E+03  0.00000000000E+00 0. -1.
         25    2    1    2    0    0 -0.26557467386E+02 -0.18798414880E+02  0.11242051321E+03  0.17130120641E+03  0.12508817710E+03 0.  0.
          5    1    3    3  502    0 -0.63052283740E+02  0.25575642218E+02  0.41020249017E+02  0.79560273938E+02  0.41800000000E+01 0.  1.
         -5    1    3    3    0  502  0.36494816354E+02 -0.44374057097E+02  0.71400264188E+02  0.91740932468E+02  0.41800000000E+01 0.  1.
        -11    1    1    2    0    0  0.56055165773E+02  0.26924679669E+02 -0.53846025694E+02  0.82258826080E+02  0.00000000000E+00 0. -1.
         11    1    1    2    0    0 -0.29497698387E+02 -0.81262647896E+01 -0.13244555954E+02  0.33340195740E+02  0.00000000000E+00 0.  1.
</event>
<event>
 7    1  0.2564986E-009  0.1257889E+03  0.7561462E-02  0.1233842E+00
          2   -1    0    0  501    0  0.00000000000E+00  0.00000000000E+00  0.31360372845E+03  0.31360372845E+03  0.00000000000E+00 0.  1.
         -2   -1    0    0    0  501 -0.00000000000E+00 -0.00000000000E+00 -0.11768346265E+03  0.11768346265E+03  0.00000000000E+00 0. -1.
         25    2    1    2    0    0  0.73159073248E+02  0.51940187100E+02 -0.43507816647E+02  0.15997001262E+03  0.12508973496E+03 0.  0.
          5    1    3    3  502    0  0.88244385331E+02  0.20360859995E+02 -0.71095097251E+02  0.11521120351E+03  0.41800000000E+01 0.  1.
         -5    1    3    3    0  502 -0.15085312083E+02  0.31579327105E+02  0.27587280604E+02  0.44758809101E+02  0.41800000000E+01 0.  1.
        -11    1    1    2    0    0 -0.49903083353E+02  0.17154122800E+02  0.12443862529E+03  0.13516491084E+03  0.00000000000E+00 0.  1.
         11    1    1    2    0    0 -0.23255989895E+02 -0.69094309901E+02  0.11498945716E+03  0.13615226765E+03  0.00000000000E+00 0. -1.
</event>
<event>
 7    1  0.2564986E-009  0.2001899E+03  0.7561462E-02  0.1149579E+00
          1   -1    0    0  501    0  0.00000000000E+00  0.00000000000E+00  0.15993921712E+04  0.15993921712E+04  0.00000000000E+00 0. -1.
         -1   -1    0    0    0  501 -0.00000000000E+00 -0.00000000000E+00 -0.25502047335E+02  0.25502047335E+02  0.00000000000E+00 0.  1.
         25    2    1    2    0    0  0.63918092584E+02  0.15776121573E+03  0.81336001035E+03  0.84034304062E+03  0.12509114968E+03 0.  0.
          5    1    3    3  502    0  0.99988407418E+02  0.92849368912E+02  0.50311119554E+03  0.52130320774E+03  0.41800000000E+01 0. -1.
         -5    1    3    3    0  502 -0.36070314834E+02  0.64911846817E+02  0.31024881481E+03  0.31903983288E+03  0.41800000000E+01 0. -1.
        -11    1    1    2    0    0 -0.83777460759E+02 -0.11440957953E+03  0.62476827722E+03  0.64065873524E+03  0.00000000000E+00 0.  1.
         11    1    1    2    0    0  0.19859368174E+02 -0.43351636196E+02  0.13576183627E+03  0.14389244265E+03  0.00000000000E+00 0. -1.
</event>
<event>
 7    1  0.2564986E-009  0.2320383E+03  0.7561462E-02  0.1125213E+00
         -2   -1    0    0    0  501 -0.00000000000E+00  0.00000000000E+00  0.68032271949E+02  0.68032271949E+02  0.00000000000E+00 0.  1.
          2   -1    0    0  501    0  0.00000000000E+00 -0.00000000000E+00 -0.82380027071E+03  0.82380027071E+03  0.00000000000E+00 0. -1.
         25    2    1    2    0    0 -0.19004784080E+03  0.88789849826E+02 -0.38357070272E+03  0.45472688860E+03  0.12509292548E+03 0.  0.
          5    1    3    3  502    0 -0.18610009792E+03  0.11368042462E+03 -0.33307118313E+03  0.39813360926E+03  0.41800000000E+01 0. -1.
         -5    1    3    3    0  502 -0.39477428761E+01 -0.24890574797E+02 -0.50499519595E+02  0.56593279344E+02  0.41800000000E+01 0. -1.
        -11    1    1    2    0    0  0.87802589497E+02 -0.45200754247E+01 -0.92522932157E+02  0.12763314138E+03  0.00000000000E+00 0.  1.
         11    1    1    2    0    0  0.10224525130E+03 -0.84269774401E+02 -0.27967436388E+03  0.30947251268E+03  0.00000000000E+00 0. -1.
</event>
<event>
 7    1  0.2564986E-009  0.1726015E+03  0.7561462E-02  0.1175162E+00
         -2   -1    0    0    0  501 -0.00000000000E+00  0.00000000000E+00  0.73200715427E+02  0.73200715427E+02  0.00000000000E+00 0. -1.
          2   -1    0    0  501    0  0.00000000000E+00 -0.00000000000E+00 -0.62902428333E+03  0.62902428333E+03  0.00000000000E+00 0.  1.
         25    2    1    2    0    0  0.69876568028E+02  0.12693471137E+03 -0.10113076436E+03  0.21649624006E+03  0.12509210507E+03 0.  0.
          5    1    3    3  502    0 -0.30868879307E+02  0.24980256603E+01 -0.15607523605E+02  0.34931290199E+02  0.41800000000E+01 0.  1.
         -5    1    3    3    0  502  0.10074544734E+03  0.12443668571E+03 -0.85523240758E+02  0.18156494986E+03  0.41800000000E+01 0.  1.
        -11    1    1    2    0    0 -0.31875575587E+02 -0.10539589122E+03 -0.40436513313E+03  0.41908890119E+03  0.00000000000E+00 0.  1.
         11    1    1    2    0    0 -0.38000992441E+02 -0.21538820146E+02 -0.50327670412E+02  0.66639857510E+02  0.00000000000E+00 0. -1.
</event>
<event>
 7    1  0.2564986E-009  0.9801646E+02  0.7561462E-02  0.1284523E+00
         -1   -1    0    0    0  501 -0.00000000000E+00  0.00000000000E+00  0.36617168213E+02  0.36617168213E+02  0.00000000000E+00 0.  1.
          1   -1    0    0  501    0  0.00000000000E+00 -0.00000000000E+00 -0.35683100037E+03  0.35683100037E+03  0.00000000000E+00 0. -1.
         25    2    1    2    0    0 -0.15432576070E+02  0.26084352151E+02 -0.22612600187E+03  0.26018999491E+03  0.12508919577E+03 0.  0.
          5    1    3    3  502    0 -0.58408580990E+02 -0.21481540507E+02 -0.13481567208E+03  0.14854547033E+03  0.41800000000E+01 0. -1.
         -5    1    3    3    0  502  0.42976004920E+02  0.47565892658E+02 -0.91310329786E+02  0.11164452458E+03  0.41800000000E+01 0. -1.
        -11    1    1    2    0    0  0.21346521369E+02  0.16152589196E+02  0.32705441597E+01  0.26968065771E+02  0.00000000000E+00 0.  1.
         11    1    1    2    0    0 -0.59139452990E+01 -0.42236941347E+02 -0.97358374454E+02  0.10629010791E+03  0.00000000000E+00 0. -1.
</event>
<event>
 7    1  0.2564986E-009  0.2379465E+03  0.7561462E-02  0.1121168E+00
         -1   -1    0    0    0  501 -0.00000000000E+00  0.00000000000E+00  0.13376658576E+03  0.13376658576E+03  0.00000000000E+00 0.  1.
          1   -1    0    0  501    0  0.00000000000E+00 -0.00000000000E+00 -0.53237345172E+03  0.53237345172E+03  0.00000000000E+00 0. -1.
         25    2    1    2    0    0 -0.13209682890E+03  0.17655817576E+03 -0.73841475253E+02  0.26404957104E+03  0.12508897179E+03 0.  0.
          5    1    3    3  502    0 -0.15433037527E+03  0.17036875146E+03 -0.69564057180E+02  0.24020825685E+03  0.41800000000E+01 0. -1.
         -5    1    3    3    0  502  0.22233546362E+02  0.61894242910E+01 -0.42774180734E+01  0.23841314189E+02  0.41800000000E+01 0. -1.
        -11    1    1    2    0    0  0.18759275609E+02 -0.10569205396E+02 -0.16916166799E+01  0.21598150177E+02  0.00000000000E+00 0.  1.
         11    1    1    2    0    0  0.11333755330E+03 -0.16598897036E+03 -0.32307377403E+03  0.38049231626E+03  0.00000000000E+00 0. -1.
</event>
<event>
 7    1  0.2564986E-009  0.1250072E+03  0.7561462E-02  0.1235058E+00
          2   -1    0    0  501    0  0.00000000000E+00  0.00000000000E+00  0.59946639217E+03  0.59946639217E+03  0.00000000000E+00 0. -1.
         -2   -1    0    0    0  501 -0.00000000000E+00 -0.00000000000E+00 -0.26927574615E+02  0.26927574615E+02  0.00000000000E+00 0.  1.
         25    2    1    2    0    0 -0.64998396963E+02 -0.16924041801E+02  0.31142671507E+03  0.34226547412E+03  0.12509133111E+03 0.  0.
          5    1    3    3  502    0 -0.78590613772E+01 -0.65635595977E+02  0.13096784588E+03  0.14676459164E+03  0.41800000000E+01 0. -1.
         -5    1    3    3    0  502 -0.57139335585E+02  0.48711554176E+02  0.18045886918E+03  0.19550088247E+03  0.41800000000E+01 0. -1.
        -11    1    1    2    0    0  0.80322961422E+02 -0.64998195355E+01  0.22084283930E+03  0.23508633618E+03  0.00000000000E+00 0. -1.
         11    1    1    2    0    0 -0.15324564459E+02  0.23423861337E+02  0.40269263184E+02  0.49042156490E+02  0.00000000000E+00 0.  1.
</event>
<event>
 7    1  0.2564986E-009  0.1510722E+03  0.7561462E-02  0.1199162E+00
          1   -1    0    0  501    0  0.00000000000E+00  0.00000000000E+00  0.18528352067E+04  0.18528352067E+04  0.00000000000E+00 0. -1.
         -1   -1    0    0    0  501 -0.00000000000E+00 -0.00000000000E+00 -0.18370011124E+02  0.18370011124E+02  0.00000000000E+00 0.  1.
         25    2    1    2    0    0  0.11890313905E+02 -0.13686873582E+03  0.12483134014E+04  0.12620660919E+04  0.12510012718E+03 0.  0.
          5    1    3    3  502    0  0.65591197549E+00 -0.43089911452E+02  0.89710919794E+02  0.99612711135E+02  0.41800000000E+01 0. -1.
         -5    1    3    3    0  502  0.11234401929E+02 -0.93778824364E+02  0.11586024816E+04  0.11624533808E+04  0.41800000000E+01 0. -1.
        -11    1    1    2    0    0  0.21508186258E+02  0.12793820865E+03  0.49282195198E+03  0.50961187551E+03  0.00000000000E+00 0. -1.
         11    1    1    2    0    0 -0.33398500163E+02  0.89305271656E+01  0.93329842193E+02  0.99527250400E+02  0.00000000000E+00 0.  1.
</event>
<event>
 7    1  0.2564986E-009  0.1074963E+03  0.7561462E-02  0.1265278E+00
         -1   -1    0    0    0  501 -0.00000000000E+00  0.00000000000E+00  0.24215505054E+02  0.24215505054E+02  0.00000000000E+00 0.  1.
          1   -1    0    0  501    0  0.00000000000E+00 -0.00000000000E+00 -0.89373831468E+03  0.89373831468E+03  0.00000000000E+00 0. -1.
         25    2    1    2    0    0 -0.78319740412E+02  0.38153840223E+02 -0.60701950912E+03  0.62586706008E+03  0.12508874918E+03 0.  0.
          5    1    3    3  502    0 -0.60462204808E+02  0.20464552110E+02 -0.10329286179E+03  0.12149635303E+03  0.41800000000E+01 0. -1.
         -5    1    3    3    0  502 -0.17857535603E+02  0.17689288114E+02 -0.50372664733E+03  0.50437070705E+03  0.41800000000E+01 0. -1.
        -11    1    1    2    0    0  0.29627957137E+02 -0.63921310385E+02 -0.17544269326E+03  0.18906054158E+03  0.00000000000E+00 0.  1.
         11    1    1    2    0    0  0.48691783275E+02  0.25767470161E+02 -0.87060607248E+02  0.10302621808E+03  0.00000000000E+00 0. -1.
</event>
<event>
 7    1  0.2564986E-009  0.1737107E+03  0.7561462E-02  0.1174032E+00
         -1   -1    0    0    0  501 -0.00000000000E+00  0.00000000000E+00  0.33069163346E+03  0.33069163346E+03  0.00000000000E+00 0.  1.
          1   -1    0    0  501    0  0.00000000000E+00 -0.00000000000E+00 -0.98463777290E+02  0.98463777290E+02  0.00000000000E+00 0. -1.
         25    2    1    2    0    0 -0.27979405406E+02  0.14043533898E+03  0.11724929277E+03  0.22338112720E+03  0.12508716869E+03 0.  0.
          5    1    3    3  502    0 -0.42125352269E+02  0.15962338421E+03  0.95062290446E+02  0.19054784584E+03  0.41800000000E+01 0. -1.
         -5    1    3    3    0  502  0.14145946863E+02 -0.19188045227E+02  0.22187002327E+02  0.32833281355E+02  0.41800000000E+01 0. -1.
        -11    1    1    2    0    0  0.50272738870E+02 -0.98082599715E+02  0.11303244699E+03  0.15787298284E+03  0.00000000000E+00 0.  1.
         11    1    1    2    0    0 -0.22293333464E+02 -0.42352739270E+02  0.19461164138E+01  0.47901300710E+02  0.00000000000E+00 0. -1.
</event>
<event>
 7    1  0.2564986E-009  0.1112277E+03  0.7561462E-02  0.1258313E+00
          2   -1    0    0  501    0  0.00000000000E+00  0.00000000000E+00  0.82620491406E+02  0.82620491406E+02  0.00000000000E+00 0. -1.
         -2   -1    0    0    0  501 -0.00000000000E+00 -0.00000000000E+00 -0.27671313837E+03  0.27671313837E+03  0.00000000000E+00 0.  1.
         25    2    1    2    0    0  0.98694691111E+02 -0.33557652668E+02 -0.12553569583E+03  0.20560513630E+03  0.12508997977E+03 0.  0.
          5    1    3    3  502    0  0.88405572094E+02 -0.14711777638E+02 -0.14874736684E+03  0.17371019867E+03  0.41800000000E+01 0.  1.
         -5    1    3    3    0  502  0.10289119017E+02 -0.18845875029E+02  0.23211671008E+02  0.31894937635E+02  0.41800000000E+01 0.  1.
        -11    1    1    2    0    0 -0.22615458456E+02  0.25921570803E+02  0.17512206624E+02  0.38601349392E+02  0.00000000000E+00 0. -1.
         11    1    1    2    0    0 -0.76079232655E+02  0.76360818651E+01 -0.86069157754E+02  0.11512714408E+03  0.00000000000E+00 0.  1.
</event>
<event>
 7    1  0.2564986E-009  0.1299887E+03  0.7561462E-02  0.1227472E+00
         -1   -1    0    0    0  501 -0.00000000000E+00  0.00000000000E+00  0.17515994618E+02  0.17515994618E+02  0.00000000000E+00 0.  1.
          1   -1    0    0  501    0  0.00000000000E+00 -0.00000000000E+00 -0.10960087443E+04  0.10960087443E+04  0.00000000000E+00 0. -1.
         25    2    1    2    0    0 -0.87864257553E+02 -0.26836283067E+02 -0.66083053831E+03  0.67881127762E+03  0.12508971344E+03 0.  0.
          5    1    3    3  502    0 -0.48443229950E+02  0.42170583475E+02 -0.17407318283E+03  0.18559108281E+03  0.41800000000E+01 0.  1.
         -5    1    3    3    0  502 -0.39421027602E+02 -0.69006866541E+02 -0.48675735548E+03  0.49322019480E+03  0.41800000000E+01 0.  1.
        -11    1    1    2    0    0  0.41839405316E+02  0.49430136041E+02 -0.17269408746E+03  0.18443731193E+03  0.00000000000E+00 0.  1.
         11    1    1    2    0    0  0.46024852237E+02 -0.22593852975E+02 -0.24496812392E+03  0.25027614939E+03  0.00000000000E+00 0. -1.
</event>
<event>
 7    1  0.2564986E-009  0.1131781E+03  0.7561462E-02  0.1254795E+00
         -1   -1    0    0    0  501 -0.00000000000E+00  0.00000000000E+00  0.26537658395E+02  0.26537658395E+02  0.00000000000E+00 0.  1.
          1   -1    0    0  501    0  0.00000000000E+00 -0.00000000000E+00 -0.73566466525E+03  0.73566466525E+03  0.00000000000E+00 0. -1.
         25    2    1    2    0    0  0.17559569294E+02  0.10864454458E+02 -0.21770760836E+03  0.25193329756E+03  0.12508960323E+03 0.  0.
          5    1    3    3  502    0  0.37021605662E+02 -0.29417714677E+02 -0.19667373217E+03  0.20232160179E+03  0.41800000000E+01 0.  1.
         -5    1    3    3    0  502 -0.19462036368E+02  0.40282169135E+02 -0.21033876189E+02  0.49611695772E+02  0.41800000000E+01 0.  1.
        -11    1    1    2    0    0  0.47803518105E+02  0.30403436617E+02 -0.26593596392E+03  0.27190344280E+03  0.00000000000E+00 0.  1.
         11    1    1    2    0    0 -0.65363087400E+02 -0.41267891075E+02 -0.22548343458E+03  0.23836558329E+03  0.00000000000E+00 0. -1.
</event>
<event>
 7    1  0.2564986E-009  0.1481460E+03  0.7561462E-02  0.1202770E+00
         -2   -1    0    0    0  501 -0.00000000000E+00  0.00000000000E+00  0.37422739465E+02  0.37422739465E+02  0.00000000000E+00 0.  1.
          2   -1    0    0  501    0  0.00000000000E+00 -0.00000000000E+00 -0.72325682551E+03  0.72325682551E+03  0.00000000000E+00 0. -1.
         25    2    1    2    0    0  0.61294638291E+02 -0.99075571759E+02 -0.27859998138E+03  0.32686079385E+03  0.12508807828E+03 0.  0.
          5    1    3    3  502    0  0.75596972011E+02 -0.24358935894E+02 -0.20917686477E+03  0.22378716024E+03  0.41800000000E+01 0.  1.
         -5    1    3    3    0  502 -0.14302333720E+02 -0.74716635865E+02 -0.69423116618E+02  0.10307363361E+03  0.41800000000E+01 0.  1.
        -11    1    1    2    0    0 -0.35118043678E+02 -0.29478974631E+01 -0.48567979072E+02  0.60006796968E+02  0.00000000000E+00 0.  1.
         11    1    1    2    0    0 -0.26176594613E+02  0.10202346922E+03 -0.35866612559E+03  0.37381197416E+03  0.00000000000E+00 0. -1.
</event>
<event>
 7    1  0.2564986E-009  0.1118986E+03  0.7561462E-02  0.1257094E+00
          1   -1    0    0  501    0  0.00000000000E+00  0.00000000000E+00  0.17162768635E+04  0.17162768635E+04  0.00000000000E+00 0. -1.
         -1   -1    0    0    0  501 -0.00000000000E+00 -0.00000000000E+00 -0.88857126792E+01  0.88857126792E+01  0.00000000000E+00 0.  1.
         25    2    1    2    0    0  0.46656165963E+02 -0.15483210573E+01  0.12711665636E+04  0.12781591610E+04  0.12508882189E+03 0.  0.
          5    1    3    3  502    0 -0.38860686790E+01 -0.53418271382E+02  0.34519673061E+03  0.34935206951E+03  0.41800000000E+01 0.  1.
         -5    1    3    3    0  502  0.50542234642E+02  0.51869950325E+02  0.92596983295E+03  0.92880709147E+03  0.41800000000E+01 0.  1.
        -11    1    1    2    0    0  0.21041875956E+02  0.18194591317E+02  0.13022876316E+03  0.13316656657E+03  0.00000000000E+00 0.  1.
         11    1    1    2    0    0 -0.67698041919E+02 -0.16646270260E+02  0.30599582412E+03  0.31383684865E+03  0.00000000000E+00 0. -1.
</event>
<event>
 7    1  0.2564986E-009  0.9403463E+02  0.7561462E-02  0.1293365E+00
         -2   -1    0    0    0  501 -0.00000000000E+00  0.00000000000E+00  0.42453073967E+03  0.42453073967E+03  0.00000000000E+00 0. -1.
          2   -1    0    0  501    0  0.00000000000E+00 -0.00000000000E+00 -0.32472808336E+02  0.32472808336E+02  0.00000000000E+00 0.  1.
         25    2    1    2    0    0  0.20137184286E+02 -0.38445523506E+02  0.20820288818E+03  0.24673668334E+03  0.12508790425E+03 0.  0.
          5    1    3    3  502    0  0.14805522924E+02 -0.79724095186E+02  0.89319822771E+02  0.12070889778E+03  0.41800000000E+01 0.  1.
         -5    1    3    3    0  502  0.53316613614E+01  0.41278571680E+02  0.11888306541E+03  0.12602778556E+03  0.41800000000E+01 0.  1.
        -11    1    1    2    0    0  0.97717575132E+01 -0.60035814876E+01 -0.60379401118E+01  0.12960978218E+02  0.00000000000E+00 0.  1.
         11    1    1    2    0    0 -0.29908941799E+02  0.44449104994E+02  0.18989298327E+03  0.19730588645E+03  0.00000000000E+00 0. -1.
</event>
<event>
 7    1  0.2564986E-009  0.2806186E+03  0.7561462E-02  0.1095352E+00
          1   -1    0    0  501    0  0.00000000000E+00  0.00000000000E+00  0.15067175596E+04  0.15067175596E+04  0.00000000000E+00 0. -1.
         -1   -1    0    0    0  501 -0.00000000000E+00 -0.00000000000E+00 -0.54104072577E+02  0.54104072577E+02  0.00000000000E+00 0.  1.
         25    2    1    2    0    0 -0.21698710302E+03 -0.14680182712E+03  0.83293293616E+03  0.88207692711E+03  0.12509296495E+03 0.  0.
          5    1    3    3  502    0 -0.62416815733E+02  0.12186480902E+02  0.26049219961E+03  0.26817536736E+03  0.41800000000E+01 0. -1.
         -5    1    3    3    0  502 -0.15457028728E+03 -0.15898830802E+03  0.57244073655E+03  0.61390155975E+03  0.41800000000E+01 0. -1.
        -11    1    1    2    0    0  0.73271098748E+02  0.43958154627E+01  0.13822360044E+03  0.15650476294E+03  0.00000000000E+00 0. -1.
         11    1    1    2    0    0  0.14371600427E+03  0.14240601166E+03  0.48145695043E+03  0.52223994213E+03  0.00000000000E+00 0.  1.
</event>
<event>
 7    1  0.2564986E-009  0.6995612E+02  0.7561462E-02  0.1360242E+00
         -1   -1    0    0    0  501 -0.00000000000E+00  0.00000000000E+00  0.42717968412E+03  0.42717968412E+03  0.00000000000E+00 0.  1.
          1   -1    0    0  501    0  0.00000000000E+00 -0.00000000000E+00 -0.77311978801E+02  0.77311978801E+02  0.00000000000E+00 0. -1.
         25    2    1    2    0    0 -0.44496002163E+02 -0.32702115453E+02  0.37245583964E+03  0.39676186604E+03  0.12508918137E+03 0.  0.
          5    1    3    3  502    0 -0.43947261469E+02  0.69835258743E+01  0.34508653268E+02  0.56466370298E+02  0.41800000000E+01 0.  1.
         -5    1    3    3    0  502 -0.54874069401E+00 -0.39685641327E+02  0.33794718637E+03  0.34029549574E+03  0.41800000000E+01 0.  1.
        -11    1    1    2    0    0  0.11349752427E+02  0.10068161584E+02  0.34647382918E+02  0.37823615651E+02  0.00000000000E+00 0.  1.
         11    1    1    2    0    0  0.33146249736E+02  0.22633953869E+02 -0.57235517245E+02  0.69906181226E+02  0.00000000000E+00 0. -1.
</event>
<event>
 7    1  0.2564986E-009  0.7553407E+02  0.7561462E-02  0.1342225E+00
          2   -1    0    0  501    0  0.00000000000E+00  0.00000000000E+00  0.34456853762E+03  0.34456853762E+03  0.00000000000E+00 0. -1.
         -2   -1    0    0    0  501 -0.00000000000E+00 -0.00000000000E+00 -0.56431710871E+02  0.56431710871E+02  0.00000000000E+00 0.  1.
         25    2    1    2    0    0 -0.67628117338E+02 -0.12547784126E+02  0.80775104628E+02  0.16402377228E+03  0.12509265048E+03 0.  0.
          5    1    3    3  502    0 -0.57445415341E+02  0.79664290495E+01  0.11133631469E+03  0.12560528295E+03  0.41800000000E+01 0. -1.
         -5    1    3    3    0  502 -0.10182701997E+02 -0.20514213175E+02 -0.30561210064E+02  0.38418489334E+02  0.41800000000E+01 0. -1.
        -11    1    1    2    0    0  0.55722724605E+02  0.59740107288E+01  0.21444200621E+03  0.22164404993E+03  0.00000000000E+00 0. -1.
         11    1    1    2    0    0  0.11905392733E+02  0.65737733970E+01 -0.70802840890E+01  0.15332426278E+02  0.00000000000E+00 0.  1.
</event>
<event>
 7    1  0.2739013E-009  0.1585790E+03  0.7561462E-02  0.1190310E+00
          2   -1    0    0  501    0  0.00000000000E+00  0.00000000000E+00  0.10689603581E+04  0.10689603581E+04  0.00000000000E+00 0. -1.
         -2   -1    0    0    0  501 -0.00000000000E+00 -0.00000000000E+00 -0.30179246632E+02  0.30179246632E+02  0.00000000000E+00 0.  1.
         25    2    1    2    0    0  0.12004586697E+03  0.76500436401E+02  0.57643052797E+03  0.60678184350E+03  0.12509486430E+03 0.  0.
          5    1    3    3  502    0  0.93270536033E+02  0.13631358139E+01  0.18435763797E+03  0.20665541877E+03  0.41800000000E+01 0. -1.
         -5    1    3    3    0  502  0.26775330935E+02  0.75137300587E+02  0.39207289000E+03  0.40012642472E+03  0.41800000000E+01 0. -1.
        -11    1    1    2    0    0 -0.64453355695E+02 -0.28548137932E+02  0.98211202765E+02  0.12089115596E+03  0.00000000000E+00 0.  1.
         11    1    1    2    0    0 -0.55592511273E+02 -0.47952298469E+02  0.36413938069E+03  0.37146660524E+03  0.00000000000E+00 0. -1.
</event>
<event>
 7    1  0.2564986E-009  0.1885666E+03  0.7561462E-02  0.1159761E+00
          2   -1    0    0  501    0  0.00000000000E+00  0.00000000000E+00  0.16935460807E+04  0.16935460807E+04  0.00000000000E+00 0.  1.
         -2   -1    0    0    0  501 -0.00000000000E+00 -0.00000000000E+00 -0.23904655603E+02  0.23904655603E+02  0.00000000000E+00 0. -1.
         25    2    1    2    0    0 -0.10837610946E+03 -0.12388717286E+03  0.98895281706E+03  0.10103308728E+04  0.12508950974E+03 0.  0.
          5    1    3    3  502    0 -0.32434857989E+02  0.11926559796E+02  0.68802991429E+02  0.77107631729E+02  0.41800000000E+01 0.  1.
         -5    1    3    3    0  502 -0.75941251469E+02 -0.13581373265E+03  0.92014982563E+03  0.93322324106E+03  0.41800000000E+01 0.  1.
        -11    1    1    2    0    0  0.97144999374E+02  0.13791479152E+03  0.65022126477E+03  0.67174796895E+03  0.00000000000E+00 0.  1.
         11    1    1    2    0    0  0.11231110083E+02 -0.14027618663E+02  0.30467343234E+02  0.35371894532E+02  0.00000000000E+00 0. -1.
</event>
<event>
 7    1  0.2564986E-009  0.1715169E+03  0.7561462E-02  0.1176275E+00
         -2   -1    0    0    0  501 -0.00000000000E+00  0.00000000000E+00  0.38777563408E+02  0.38777563408E+02  0.00000000000E+00 0.  1.
          2   -1    0    0  501    0  0.00000000000E+00 -0.00000000000E+00 -0.12456974966E+04  0.12456974966E+04  0.00000000000E+00 0. -1.
         25    2    1    2    0    0 -0.67395268962E+02  0.14046137777E+03 -0.30528560532E+03  0.36485338662E+03  0.12508865650E+03 0.  0.
          5    1    3    3  502    0 -0.73560163104E+02  0.13971052309E+03 -0.18052528839E+03  0.23986867242E+03  0.41800000000E+01 0. -1.
         -5    1    3    3    0  502  0.61648941419E+01  0.75085468063E+00 -0.12476031694E+03  0.12498471420E+03  0.41800000000E+01 0. -1.
        -11    1    1    2    0    0  0.73387420539E+02 -0.54453362707E+02 -0.55206685535E+03  0.55957903372E+03  0.00000000000E+00 0.  1.
         11    1    1    2    0    0 -0.59921515768E+01 -0.86008015065E+02 -0.34956747247E+03  0.36004263962E+03  0.00000000000E+00 0. -1.
</event>
<event>
 7    1  0.2564986E-009  0.1597548E+03  0.7561462E-02  0.1188974E+00
          1   -1    0    0  501    0  0.00000000000E+00  0.00000000000E+00  0.12062979450E+02  0.12062979450E+02  0.00000000000E+00 0. -1.
         -1   -1    0    0    0  501 -0.00000000000E+00 -0.00000000000E+00 -0.22085824285E+04  0.22085824285E+04  0.00000000000E+00 0.  1.
         25    2    1    2    0    0 -0.11657687534E+03  0.13385768716E+02 -0.13524916712E+04  0.13633231361E+04  0.12508759380E+03 0.  0.
          5    1    3    3  502    0 -0.62096849486E+01 -0.44164637471E+02 -0.46163992019E+03  0.46380811086E+03  0.41800000000E+01 0.  1.
         -5    1    3    3    0  502 -0.11036719040E+03  0.57550406187E+02 -0.89085175100E+03  0.89951502523E+03  0.41800000000E+01 0.  1.
        -11    1    1    2    0    0 -0.15525946359E+02  0.60229410796E+01 -0.79953277532E+02  0.81669195036E+02  0.00000000000E+00 0.  1.
         11    1    1    2    0    0  0.13210282170E+03 -0.19408709795E+02 -0.76407450035E+03  0.77565307684E+03  0.00000000000E+00 0. -1.
</event>
<event>
 7    1  0.2564986E-009  0.1058406E+03  0.7561462E-02  0.1268472E+00
         -1   -1    0    0    0  501 -0.00000000000E+00  0.00000000000E+00  0.57259225578E+02  0.57259225578E+02  0.00000000000E+00 0.  1.
          1   -1    0    0  501    0  0.00000000000E+00 -0.00000000000E+00 -0.35202162234E+03  0.35202162234E+03  0.00000000000E+00 0. -1.
         25    2    1    2    0    0 -0.51110791751E+02  0.33396086792E+02 -0.62160927943E+02  0.15244117169E+03  0.12508684270E+03 0.  0.
          5    1    3    3  502    0  0.34902074876E+02 -0.74474016240E+01  0.43859987616E+01  0.36198453099E+02  0.41800000000E+01 0.  1.
         -5    1    3    3    0  502 -0.86012866628E+02  0.40843488416E+02 -0.66546926705E+02  0.11624271859E+03  0.41800000000E+01 0.  1.
        -11    1    1    2    0    0  0.14939541323E+02 -0.40861159361E+02 -0.20790870441E+03  0.21241199026E+03  0.00000000000E+00 0. -1.
         11    1    1    2    0    0  0.36171250429E+02  0.74650725689E+01 -0.24692764414E+02  0.44427685968E+02  0.00000000000E+00 0.  1.
</event>
<event>
 7    1  0.2564986E-009  0.8379917E+02  0.7561462E-02  0.1318603E+00
          2   -1    0    0  501    0  0.00000000000E+00  0.00000000000E+00  0.49341888764E+02  0.49341888764E+02  0.00000000000E+00 0.  1.
         -2   -1    0    0    0  501 -0.00000000000E+00 -0.00000000000E+00 -0.25487010021E+03  0.25487010021E+03  0.00000000000E+00 0. -1.
         25    2    1    2    0    0 -0.10897980552E-01 -0.11900560336E+02 -0.81517197602E+02  0.14979186492E+03  0.12510366036E+03 0.  0.
          5    1    3    3  502    0  0.63817007354E+01  0.37035780730E+02 -0.91732602567E+02  0.99220551965E+02  0.41800000000E+01 0. -1.
         -5    1    3    3    0  502 -0.63925987160E+01 -0.48936341067E+02  0.10215404965E+02  0.50571312955E+02  0.41800000000E+01 0. -1.
        -11    1    1    2    0    0 -0.23258621527E+02  0.38459491044E+02 -0.30109098319E+02  0.54098555696E+02  0.00000000000E+00 0.  1.
         11    1    1    2    0    0  0.23269519508E+02 -0.26558930708E+02 -0.93901915522E+02  0.10032156835E+03  0.00000000000E+00 0. -1.
</event>
<event>
 7    1  0.2564986E-009  0.1359990E+03  0.7561462E-02  0.1218816E+00
         -1   -1    0    0    0  501 -0.00000000000E+00  0.00000000000E+00  0.13286712778E+02  0.13286712778E+02  0.00000000000E+00 0.  1.
          1   -1    0    0  501    0  0.00000000000E+00 -0.00000000000E+00 -0.23532996862E+04  0.23532996862E+04  0.00000000000E+00 0. -1.
         25    2    1    2    0    0 -0.33856543258E+02 -0.84783176811E+02 -0.18785187500E+04  0.18848915432E+04  0.12509589516E+03 0.  0.
          5    1    3    3  502    0 -0.72842877198E+02 -0.14654791232E+02 -0.93726436179E+03  0.94021423301E+03  0.41800000000E+01 0. -1.
         -5    1    3    3    0  502  0.38986333940E+02 -0.70128385579E+02 -0.94125438818E+03  0.94467731018E+03  0.41800000000E+01 0. -1.
        -11    1    1    2    0    0  0.33101059147E+02  0.98285204816E+02 -0.45504310529E+03  0.46671178395E+03  0.00000000000E+00 0. -1.
         11    1    1    2    0    0  0.75548411039E+00 -0.13502028005E+02 -0.64511181622E+01  0.14983071849E+02  0.00000000000E+00 0.  1.
</event>
<event>
 7    1  0.2564986E-009  0.1304200E+03  0.7561462E-02  0.1226834E+00
          2   -1    0    0  501    0  0.00000000000E+00  0.00000000000E+00  0.12166657445E+03  0.12166657445E+03  0.00000000000E+00 0. -1.
         -2   -1    0    0    0  501 -0.00000000000E+00 -0.00000000000E+00 -0.21362628453E+03  0.21362628453E+03  0.00000000000E+00 0.  1.
         25    2    1    2    0    0  0.43351821476E+02  0.10958537181E+03 -0.65876476465E+02  0.18405386858E+03  0.12509109580E+03 0.  0.
          5    1    3    3  502    0  0.60980475995E+02  0.10080713289E+03 -0.28874666496E+01  0.11792585110E+03  0.41800000000E+01 0. -1.
         -5    1    3    3    0  502 -0.17628654519E+02  0.87782389199E+01 -0.62989009815E+02  0.66128017482E+02  0.41800000000E+01 0. -1.
        -11    1    1    2    0    0 -0.22990176558E+02 -0.18572966683E+02 -0.47130900402E+02  0.55631152085E+02  0.00000000000E+00 0.  1.
         11    1    1    2    0    0 -0.20361644918E+02 -0.91012405122E+02  0.21047666785E+02  0.95607838313E+02  0.00000000000E+00 0. -1.
</event>
<event>
 7    1  0.2564986E-009  0.1127286E+03  0.7561462E-02  0.1255599E+00
          4   -1    0    0  501    0  0.00000000000E+00  0.00000000000E+00  0.15877241692E+03  0.15877241692E+03  0.00000000000E+00 0.  1.
         -4   -1    0    0    0  501 -0.00000000000E+00 -0.00000000000E+00 -0.12500449574E+03  0.12500449574E+03  0.00000000000E+00 0. -1.
         25    2    1    2    0    0 -0.77854015950E+02  0.20677206695E+02 -0.12329730191E+02  0.14929085525E+03  0.12508773936E+03 0.  0.
          5    1    3    3  502    0 -0.83319030102E+02  0.52578126770E+01 -0.57241324782E+02  0.10131015267E+03  0.41800000000E+01 0.  1.
         -5    1    3    3    0  502  0.54650141522E+01  0.15419394018E+02  0.44911594591E+02  0.47980702582E+02  0.41800000000E+01 0.  1.
        -11    1    1    2    0    0 -0.18436782929E+02 -0.21973516829E+02  0.19144574827E+02  0.34485723886E+02  0.00000000000E+00 0.  1.
         11    1    1    2    0    0  0.96290798879E+02  0.12963101342E+01  0.26953076544E+02  0.10000033352E+03  0.00000000000E+00 0. -1.
</event>
<event>
 7    1  0.2564986E-009  0.1631851E+03  0.7561462E-02  0.1185147E+00
         -1   -1    0    0    0  501 -0.00000000000E+00  0.00000000000E+00  0.31342332308E+03  0.31342332308E+03  0.00000000000E+00 0.  1.
          1   -1    0    0  501    0  0.00000000000E+00 -0.00000000000E+00 -0.10056926192E+03  0.10056926192E+03  0.00000000000E+00 0. -1.
         25    2    1    2    0    0 -0.12982445578E+03  0.52597773637E+02  0.10997845974E+03  0.21762962284E+03  0.12508587458E+03 0.  0.
          5    1    3    3  502    0 -0.14744007739E+03  0.33982869691E+02  0.11632402400E+03  0.19089830489E+03  0.41800000000E+01 0.  1.
         -5    1    3    3    0  502  0.17615621604E+02  0.18614903946E+02 -0.63455642542E+01  0.26731317946E+02  0.41800000000E+01 0.  1.
        -11    1    1    2    0    0  0.93394499157E+02 -0.11468139573E+02  0.10548863439E+03  0.14135735808E+03  0.00000000000E+00 0.  1.
         11    1    1    2    0    0  0.36429956627E+02 -0.41129634064E+02 -0.26130329709E+01  0.55005604073E+02  0.00000000000E+00 0. -1.
</event>
<event>
 7    1  0.2564986E-009  0.9234499E+02  0.7561462E-02  0.1297270E+00
          1   -1    0    0  501    0  0.00000000000E+00  0.00000000000E+00  0.30230674909E+03  0.30230674909E+03  0.00000000000E+00 0. -1.
         -1   -1    0    0    0  501 -0.00000000000E+00 -0.00000000000E+00 -0.37319822551E+02  0.37319822551E+02  0.00000000000E+00 0.  1.
         25    2    1    2    0    0  0.49418709680E+01 -0.26117741016E+01  0.15632520715E+03  0.20029144304E+03  0.12509135986E+03 0.  0.
          5    1    3    3  502    0  0.37073127146E+02  0.48985001205E+02  0.57818734342E+02  0.84465528710E+02  0.41800000000E+01 0.  1.
         -5    1    3    3    0  502 -0.32131256178E+02 -0.51596775306E+02  0.98506472806E+02  0.11582591433E+03  0.41800000000E+01 0.  1.
        -11    1    1    2    0    0  0.27155611506E+02 -0.81210712948E+01  0.31383560874E+01  0.28517158242E+02  0.00000000000E+00 0.  1.
         11    1    1    2    0    0 -0.32097482474E+02  0.10732845396E+02  0.10552336331E+03  0.11081797036E+03  0.00000000000E+00 0. -1.
</event>
<event>
 7    1  0.2622217E-009  0.2475573E+03  0.7561462E-02  0.1114858E+00
         -1   -1    0    0    0  501 -0.00000000000E+00  0.00000000000E+00  0.10336637243E+03  0.10336637243E+03  0.00000000000E+00 0.  1.
          1   -1    0    0  501    0  0.00000000000E+00 -0.00000000000E+00 -0.79277726686E+03  0.79277726686E+03  0.00000000000E+00 0. -1.
         25    2    1    2    0    0 -0.22720479786E+03 -0.45548957954E+02 -0.15277045332E+03  0.30443835966E+03  0.12508867129E+03 0.  0.
          5    1    3    3  502    0 -0.22728007605E+03 -0.27356604814E+02 -0.16491536001E+03  0.28216868211E+03  0.41800000000E+01 0.  1.
         -5    1    3    3    0  502  0.75278192245E-01 -0.18192353140E+02  0.12144906693E+02  0.22269677550E+02  0.41800000000E+01 0.  1.
        -11    1    1    2    0    0  0.12707521132E+03 -0.18810238433E+02 -0.24319195333E+03  0.27503501699E+03  0.00000000000E+00 0.  1.
         11    1    1    2    0    0  0.10012958654E+03  0.64359196387E+02 -0.29344848778E+03  0.31667026264E+03  0.00000000000E+00 0. -1.
</event>
<event>
 7    1  0.2564986E-009  0.1940122E+03  0.7561462E-02  0.1154892E+00
          1   -1    0    0  501    0  0.00000000000E+00  0.00000000000E+00  0.16160846826E+03  0.16160846826E+03  0.00000000000E+00 0. -1.
         -1   -1    0    0    0  501 -0.00000000000E+00 -0.00000000000E+00 -0.43273832569E+03  0.43273832569E+03  0.00000000000E+00 0.  1.
         25    2    1    2    0    0  0.84148774196E+01 -0.18829175729E+03  0.29666417145E+02  0.22814705902E+03  0.12508552358E+03 0.  0.
          5    1    3    3  502    0 -0.43216143707E+01 -0.26131825809E+02 -0.42417101683E+02  0.50181984676E+02  0.41800000000E+01 0.  1.
         -5    1    3    3    0  502  0.12736491790E+02 -0.16215993148E+03  0.72083518827E+02  0.17796507435E+03  0.41800000000E+01 0.  1.
        -11    1    1    2    0    0 -0.26239261574E+02  0.32881541980E+02 -0.11980563999E+03  0.12697671450E+03  0.00000000000E+00 0.  1.
         11    1    1    2    0    0  0.17824384154E+02  0.15541021531E+03 -0.18099063459E+03  0.23922302043E+03  0.00000000000E+00 0. -1.
</event>
<event>
 7    1  0.2564986E-009  0.9256449E+02  0.7561462E-02  0.1296758E+00
         -2   -1    0    0    0  501 -0.00000000000E+00  0.00000000000E+00  0.10888634270E+03  0.10888634270E+03  0.00000000000E+00 0.  1.
          2   -1    0    0  501    0  0.00000000000E+00 -0.00000000000E+00 -0.10453772234E+03  0.10453772234E+03  0.00000000000E+00 0. -1.
         25    2    1    2    0    0 -0.18971796378E+02  0.56990956891E+02  0.36960012793E+02  0.14360169079E+03  0.12508998692E+03 0.  0.
          5    1    3    3  502    0  0.45590861232E+02  0.23847457115E+02 -0.15566837543E+02  0.53916849591E+02  0.41800000000E+01 0.  1.
         -5    1    3    3    0  502 -0.64562657610E+02  0.33143499776E+02  0.52526850336E+02  0.89684841201E+02  0.41800000000E+01 0.  1.
        -11    1    1    2    0    0  0.13712260068E+02 -0.26132436428E+02 -0.21853001027E+02  0.36721709706E+02  0.00000000000E+00 0.  1.
         11    1    1    2    0    0  0.52595363100E+01 -0.30858520463E+02 -0.10758391412E+02  0.33100664542E+02  0.00000000000E+00 0. -1.
</event>
<event>
 7    1  0.2564986E-009  0.1352558E+03  0.7561462E-02  0.1219859E+00
          3   -1    0    0  501    0  0.00000000000E+00  0.00000000000E+00  0.13042877410E+02  0.13042877410E+02  0.00000000000E+00 0. -1.
         -3   -1    0    0    0  501 -0.00000000000E+00 -0.00000000000E+00 -0.14882861919E+04  0.14882861919E+04  0.00000000000E+00 0.  1.
         25    2    1    2    0    0  0.54725377593E+02  0.62269139152E+02 -0.96285032897E+03  0.97447218024E+03  0.12507182503E+03 0.  0.
          5    1    3    3  502    0 -0.69068727822E+01  0.82554644013E+02 -0.45782385081E+03  0.46527747088E+03  0.41800000000E+01 0. -1.
         -5    1    3    3    0  502  0.61632250375E+02 -0.20285504861E+02 -0.50502647816E+03  0.50919470936E+03  0.41800000000E+01 0. -1.
        -11    1    1    2    0    0 -0.73031244873E+02 -0.18851678285E+02 -0.30732968691E+03  0.31644981428E+03  0.00000000000E+00 0. -1.
         11    1    1    2    0    0  0.18305867280E+02 -0.43417460867E+02 -0.20506329857E+03  0.21040707476E+03  0.00000000000E+00 0.  1.
</event>
<event>
 7    1  0.2564986E-009  0.1057506E+03  0.7561462E-02  0.1268648E+00
          1   -1    0    0  501    0  0.00000000000E+00  0.00000000000E+00  0.72491097581E+03  0.72491097581E+03  0.00000000000E+00 0. -1.
         -1   -1    0    0    0  501 -0.00000000000E+00 -0.00000000000E+00 -0.29945497243E+02  0.29945497243E+02  0.00000000000E+00 0.  1.
         25    2    1    2    0    0  0.10845051449E+01  0.89205165926E+02  0.49144242605E+03  0.51489977471E+03  0.12508949634E+03 0.  0.
          5    1    3    3  502    0  0.41034943135E+02  0.59157209901E+02  0.42794030567E+03  0.43397444586E+03  0.41800000000E+01 0.  1.
         -5    1    3    3    0  502 -0.39950437990E+02  0.30047956025E+02  0.63502120382E+02  0.80925328852E+02  0.41800000000E+01 0.  1.
        -11    1    1    2    0    0  0.13945147183E+00 -0.38316482757E+02  0.17972666238E+03  0.18376573530E+03  0.00000000000E+00 0. -1.
         11    1    1    2    0    0 -0.12239566168E+01 -0.50888683169E+02  0.23796390128E+02  0.56190963043E+02  0.00000000000E+00 0.  1.
</event>
<event>
 7    1  0.2564986E-009  0.1047395E+03  0.7561462E-02  0.1270634E+00
          1   -1    0    0  501    0  0.00000000000E+00  0.00000000000E+00  0.13647263746E+03  0.13647263746E+03  0.00000000000E+00 0. -1.
         -1   -1    0    0    0  501 -0.00000000000E+00 -0.00000000000E+00 -0.15648162045E+03  0.15648162045E+03  0.00000000000E+00 0.  1.
         25    2    1    2    0    0 -0.44552267545E+01  0.84940592564E+02 -0.53681097929E+02  0.16051225593E+03  0.12509104972E+03 0.  0.
          5    1    3    3  502    0  0.11055823820E+02  0.33623692191E+02  0.39329731972E+02  0.53076210621E+02  0.41800000000E+01 0. -1.
         -5    1    3    3    0  502 -0.15511050574E+02  0.51316900373E+02 -0.93010829901E+02  0.10743604531E+03  0.41800000000E+01 0. -1.
        -11    1    1    2    0    0  0.41367002157E+02 -0.21381751010E+02 -0.90363466827E+01  0.47434836409E+02  0.00000000000E+00 0.  1.
         11    1    1    2    0    0 -0.36911775403E+02 -0.63558841554E+02  0.42708461620E+02  0.85007165562E+02  0.00000000000E+00 0. -1.
</event>
<event>
 7    1  0.3297859E-009  0.1483301E+03  0.7561462E-02  0.1202540E+00
          2   -1    0    0  501    0  0.00000000000E+00  0.00000000000E+00  0.10749074847E+04  0.10749074847E+04  0.00000000000E+00 0.  1.
         -2   -1    0    0    0  501 -0.00000000000E+00 -0.00000000000E+00 -0.25021869203E+02  0.25021869203E+02  0.00000000000E+00 0. -1.
         25    2    1    2    0    0 -0.96412202996E+02 -0.66262555812E+02  0.68525472505E+03  0.70633573825E+03  0.12510035066E+03 0.  0.
          5    1    3    3  502    0  0.19285378022E+02 -0.34677041966E+02  0.30488771644E+03  0.30748726003E+03  0.41800000000E+01 0.  1.
         -5    1    3    3    0  502 -0.11569758102E+03 -0.31585513846E+02  0.38036700861E+03  0.39884847822E+03  0.41800000000E+01 0.  1.
        -11    1    1    2    0    0  0.68958000452E+02  0.44257062524E+01  0.10815939132E+03  0.12834814620E+03  0.00000000000E+00 0. -1.
         11    1    1    2    0    0  0.27454202544E+02  0.61836849560E+02  0.25647149912E+03  0.26524546945E+03  0.00000000000E+00 0.  1.
</event>
<event>
 7    1  0.2564986E-009  0.1592509E+03  0.7561462E-02  0.1189545E+00
          1   -1    0    0  501    0  0.00000000000E+00  0.00000000000E+00  0.32266204780E+03  0.32266204780E+03  0.00000000000E+00 0. -1.
         -1   -1    0    0    0  501 -0.00000000000E+00 -0.00000000000E+00 -0.97539737291E+02  0.97539737291E+02  0.00000000000E+00 0.  1.
         25    2    1    2    0    0  0.10343887654E+03 -0.50584198399E+02  0.20853222713E+03  0.26905627145E+03  0.12508886899E+03 0.  0.
          5    1    3    3  502    0 -0.27604473233E+02  0.10511353670E+01  0.23704385111E+02  0.36639897673E+02  0.41800000000E+01 0.  1.
         -5    1    3    3    0  502  0.13104334977E+03 -0.51635333765E+02  0.18482784202E+03  0.23241637378E+03  0.41800000000E+01 0.  1.
        -11    1    1    2    0    0 -0.41924562197E+02  0.72998275019E+02  0.15911248654E+02  0.85671377396E+02  0.00000000000E+00 0. -1.
         11    1    1    2    0    0 -0.61514314345E+02 -0.22414076620E+02  0.67883472002E+00  0.65474136242E+02  0.00000000000E+00 0.  1.
</event>
<event>
 7    1  0.2564986E-009  0.1010305E+03  0.7561462E-02  0.1278144E+00
          1   -1    0    0  501    0  0.00000000000E+00  0.00000000000E+00  0.81102341811E+03  0.81102341811E+03  0.00000000000E+00 0. -1.
         -1   -1    0    0    0  501 -0.00000000000E+00 -0.00000000000E+00 -0.23252388980E+02  0.23252388980E+02  0.00000000000E+00 0.  1.
         25    2    1    2    0    0  0.46841780524E+02  0.12193476477E+02  0.64533968091E+03  0.65913121376E+03  0.12509124637E+03 0.  0.
          5    1    3    3  502    0 -0.37482059335E+02 -0.20747133694E+02  0.18313012873E+03  0.18812087810E+03  0.41800000000E+01 0.  1.
         -5    1    3    3    0  502  0.84323839859E+02  0.32940610172E+02  0.46220955219E+03  0.47101033566E+03  0.41800000000E+01 0.  1.
        -11    1    1    2    0    0 -0.15473475342E+02 -0.28951075410E+02  0.13484162996E+03  0.13877989183E+03  0.00000000000E+00 0. -1.
         11    1    1    2    0    0 -0.31368305182E+02  0.16757598932E+02  0.75897182554E+01  0.36364701499E+02  0.00000000000E+00 0.  1.
</event>
<event>
 7    1  0.2564986E-009  0.1194483E+03  0.7561462E-02  0.1244010E+00
         -2   -1    0    0    0  501 -0.00000000000E+00  0.00000000000E+00  0.22980043838E+02  0.22980043838E+02  0.00000000000E+00 0. -1.
          2   -1    0    0  501    0  0.00000000000E+00 -0.00000000000E+00 -0.78292046339E+03  0.78292046339E+03  0.00000000000E+00 0.  1.
         25    2    1    2    0    0  0.33266308892E+02  0.38221993573E+02 -0.59612315709E+03  0.61121315687E+03  0.12510450277E+03 0.  0.
          5    1    3    3  502    0 -0.44021805975E+02 -0.76789361732E+01 -0.21001202762E+03  0.21475430055E+03  0.41800000000E+01 0. -1.
         -5    1    3    3    0  502  0.77288114867E+02  0.45900929746E+02 -0.38611112947E+03  0.39645885632E+03  0.41800000000E+01 0. -1.
        -11    1    1    2    0    0 -0.51745726817E+02  0.97165460588E+01 -0.68393304961E+02  0.86311503721E+02  0.00000000000E+00 0.  1.
         11    1    1    2    0    0  0.18479417925E+02 -0.47938539632E+02 -0.95423957504E+02  0.10837584664E+03  0.00000000000E+00 0. -1.
</event>
<event>
 7    1  0.2564986E-009  0.9389694E+02  0.7561462E-02  0.1293680E+00
         -1   -1    0    0    0  501 -0.00000000000E+00  0.00000000000E+00  0.90699721797E+02  0.90699721797E+02  0.00000000000E+00 0.  1.
          1   -1    0    0  501    0  0.00000000000E+00 -0.00000000000E+00 -0.17396088492E+03  0.17396088492E+03  0.00000000000E+00 0. -1.
         25    2    1    2    0    0 -0.94014402289E+00  0.31190317388E+02 -0.10477801301E+03  0.16613247503E+03  0.12509135654E+03 0.  0.
          5    1    3    3  502    0  0.20802397079E+02 -0.24988324654E+02  0.11802697692E+02  0.34841529330E+02  0.41800000000E+01 0. -1.
         -5    1    3    3    0  502 -0.21742541102E+02  0.56178642043E+02 -0.11658071070E+03  0.13129094570E+03  0.41800000000E+01 0. -1.
        -11    1    1    2    0    0  0.45471117077E+01 -0.62724134433E+02  0.59292462011E+01  0.63167627989E+02  0.00000000000E+00 0.  1.
         11    1    1    2    0    0 -0.36069676848E+01  0.31533817045E+02  0.15587603683E+02  0.35360503699E+02  0.00000000000E+00 0. -1.
</event>
<event>
 7    1  0.2564986E-009  0.1053761E+03  0.7561462E-02  0.1269380E+00
         -2   -1    0    0    0  501 -0.00000000000E+00  0.00000000000E+00  0.72204287631E+01  0.72204287631E+01  0.00000000000E+00 0. -1.
          2   -1    0    0  501    0  0.00000000000E+00 -0.00000000000E+00 -0.18953262618E+04  0.18953262618E+04  0.00000000000E+00 0.  1.
         25    2    1    2    0    0  0.19546774628E+02  0.12664865379E+02 -0.14821443064E+04  0.14875959492E+04  0.12508991946E+03 0.  0.
          5    1    3    3  502    0 -0.45176043351E+02  0.36325827047E+02 -0.65105341611E+03  0.65364245856E+03  0.41800000000E+01 0. -1.
         -5    1    3    3    0  502  0.64722817978E+02 -0.23660961667E+02 -0.83109089031E+03  0.83395349068E+03  0.41800000000E+01 0. -1.
        -11    1    1    2    0    0  0.22770234962E+02 -0.30170401453E+02 -0.13701476519E+03  0.14213297507E+03  0.00000000000E+00 0. -1.
         11    1    1    2    0    0 -0.42317009590E+02  0.17505536074E+02 -0.26894676148E+03  0.27281776629E+03  0.00000000000E+00 0.  1.
</event>
<event>
 7    1  0.2564986E-009  0.1222510E+03  0.7561462E-02  0.1239429E+00
         -1   -1    0    0    0  501 -0.00000000000E+00  0.00000000000E+00  0.26588071857E+02  0.26588071857E+02  0.00000000000E+00 0.  1.
          1   -1    0    0  501    0  0.00000000000E+00 -0.00000000000E+00 -0.73945176742E+03  0.73945176742E+03  0.00000000000E+00 0. -1.
         25    2    1    2    0    0 -0.98003065989E+01 -0.69506907250E+02 -0.55412505947E+03  0.57238913726E+03  0.12508991465E+03 0.  0.
          5    1    3    3  502    0 -0.67453348579E+02 -0.34811574701E+02 -0.29354250606E+03  0.30322677196E+03  0.41800000000E+01 0. -1.
         -5    1    3    3    0  502  0.57653041980E+02 -0.34695332549E+02 -0.26058255341E+03  0.26916236530E+03  0.41800000000E+01 0. -1.
        -11    1    1    2    0    0 -0.20536123560E+02 -0.45494154752E+01 -0.71184383758E+01  0.22205893744E+02  0.00000000000E+00 0.  1.
         11    1    1    2    0    0  0.30336430159E+02  0.74056322726E+02 -0.15162019772E+03  0.17144480828E+03  0.00000000000E+00 0. -1.
</event>
<event>
 7    1  0.2564986E-009  0.1641755E+03  0.7561462E-02  0.1184062E+00
          1   -1    0    0  501    0  0.00000000000E+00  0.00000000000E+00  0.27792874275E+03  0.27792874275E+03  0.00000000000E+00 0. -1.
         -1   -1    0    0    0  501 -0.00000000000E+00 -0.00000000000E+00 -0.12787106599E+03  0.12787106599E+03  0.00000000000E+00 0.  1.
         25    2    1    2    0    0  0.13831847112E+03  0.62694086866E+02  0.10652577284E+03  0.22373591855E+03  0.12508985965E+03 0.  0.
          5    1    3    3  502    0  0.40870519533E+02 -0.19857648006E+01 -0.24640261192E+02  0.47947445191E+02  0.41800000000E+01 0.  1.
         -5    1    3    3    0  502  0.97447951585E+02  0.64679851666E+02  0.13116603403E+03  0.17578847335E+03  0.41800000000E+01 0.  1.
        -11    1    1    2    0    0 -0.21490305198E+02  0.18136130581E+02  0.27098000991E+02  0.39051941151E+02  0.00000000000E+00 0. -1.
         11    1    1    2    0    0 -0.11682816592E+03 -0.80830217446E+02  0.16433902931E+02  0.14301194905E+03  0.00000000000E+00 0.  1.
</event>
<event>
 7    1  0.2564986E-009  0.1589568E+03  0.7561462E-02  0.1189880E+00
          2   -1    0    0  501    0  0.00000000000E+00  0.00000000000E+00  0.14362745440E+04  0.14362745440E+04  0.00000000000E+00 0. -1.
         -2   -1    0    0    0  501 -0.00000000000E+00 -0.00000000000E+00 -0.19836679390E+02  0.19836679390E+02  0.00000000000E+00 0.  1.
         25    2    1    2    0    0 -0.11657882970E+03  0.54118908327E+02  0.76851598763E+03  0.78916725866E+03  0.12509460075E+03 0.  0.
          5    1    3    3  502    0 -0.98192064284E+02  0.80928425326E+02  0.71623065987E+03  0.72745784898E+03  0.41800000000E+01 0. -1.
         -5    1    3    3    0  502 -0.18386765412E+02 -0.26809516999E+02  0.52285327759E+02  0.61709409679E+02  0.41800000000E+01 0. -1.
        -11    1    1    2    0    0  0.42092988595E+02  0.25163348200E+02  0.18202161212E+03  0.18851228358E+03  0.00000000000E+00 0.  1.
         11    1    1    2    0    0  0.74485841101E+02 -0.79282256527E+02  0.46590026483E+03  0.47843168111E+03  0.00000000000E+00 0. -1.
</event>
<event>
 7    1  0.2564986E-009  0.1252888E+03  0.7561462E-02  0.1234619E+00
         -2   -1    0    0    0  501 -0.00000000000E+00  0.00000000000E+00  0.66900270359E+03  0.66900270359E+03  0.00000000000E+00 0.  1.
          2   -1    0    0  501    0  0.00000000000E+00 -0.00000000000E+00 -0.28422793890E+02  0.28422793890E+02  0.00000000000E+00 0. -1.
         25    2    1    2    0    0 -0.80225720190E+02 -0.15716289812E+01  0.41159910957E+03  0.43760674044E+03  0.12508875284E+03 0.  0.
          5    1    3    3  502    0  0.24955011118E+02  0.20332646654E+02  0.17132957264E+03  0.17437736081E+03  0.41800000000E+01 0. -1.
         -5    1    3    3    0  502 -0.10518073131E+03 -0.21904275636E+02  0.24026953692E+03  0.26322937964E+03  0.41800000000E+01 0. -1.
        -11    1    1    2    0    0  0.82030392750E+02  0.26040033331E+02  0.11736994819E+03  0.14554302941E+03  0.00000000000E+00 0. -1.
         11    1    1    2    0    0 -0.18046725603E+01 -0.24468404349E+02  0.11161085194E+03  0.11427572763E+03  0.00000000000E+00 0.  1.
</event>
<event>
 7    1  0.2564986E-009  0.7681749E+02  0.7561462E-02  0.1338333E+00
          2   -1    0    0  501    0  0.00000000000E+00  0.00000000000E+00  0.46814413538E+03  0.46814413538E+03  0.00000000000E+00 0. -1.
         -2   -1    0    0    0  501 -0.00000000000E+00 -0.00000000000E+00 -0.36499923606E+02  0.36499923606E+02  0.00000000000E+00 0.  1.
         25    2    1    2    0    0  0.20239447724E+02  0.15805638029E+02  0.37174578151E+03  0.39306799150E+03  0.12509223171E+03 0.  0.
          5    1    3    3  502    0  0.43570706444E+02  0.58880259267E+01  0.36336881706E+03  0.36604295502E+03  0.41800000000E+01 0.  1.
         -5    1    3    3    0  502 -0.23331258720E+02  0.99176121019E+01  0.83769644499E+01  0.27025036478E+02  0.41800000000E+01 0.  1.
        -11    1    1    2    0    0 -0.12195797360E+01 -0.47121193743E+02  0.76383972467E+01  0.47751852184E+02  0.00000000000E+00 0.  1.
         11    1    1    2    0    0 -0.19019867988E+02  0.31315555714E+02  0.52260033017E+02  0.63824215302E+02  0.00000000000E+00 0. -1.
</event>
<event>
 7    1  0.2564986E-009  0.1794990E+03  0.7561462E-02  0.1168289E+00
          1   -1    0    0  501    0  0.00000000000E+00  0.00000000000E+00  0.68489523026E+03  0.68489523026E+03  0.00000000000E+00 0. -1.
         -1   -1    0    0    0  501 -0.00000000000E+00 -0.00000000000E+00 -0.57253047442E+02  0.57253047442E+02  0.00000000000E+00 0.  1.
         25    2    1    2    0    0  0.14453505961E+03 -0.52718521796E+02  0.44215130736E+03  0.48457698799E+03  0.12508977853E+03 0.  0.
          5    1    3    3  502    0 -0.15596155314E+02  0.14839731295E+02  0.78511995737E+02  0.81517259277E+02  0.41800000000E+01 0. -1.
         -5    1    3    3    0  502  0.16013121492E+03 -0.67558253091E+02  0.36363931163E+03  0.40305972872E+03  0.41800000000E+01 0. -1.
        -11    1    1    2    0    0 -0.11522644427E+03  0.16147593094E+02  0.77365089700E+02  0.13972557149E+03  0.00000000000E+00 0.  1.
         11    1    1    2    0    0 -0.29308615331E+02  0.36570928702E+02  0.10812578576E+03  0.11784571823E+03  0.00000000000E+00 0. -1.
</event>
<event>
 7    1  0.2564986E-009  0.9831884E+02  0.7561462E-02  0.1283871E+00
         -2   -1    0    0    0  501 -0.00000000000E+00  0.00000000000E+00  0.96694725243E+02  0.96694725243E+02  0.00000000000E+00 0.  1.
          2   -1    0    0  501    0  0.00000000000E+00 -0.00000000000E+00 -0.20887339764E+03  0.20887339764E+03  0.00000000000E+00 0. -1.
         25    2    1    2    0    0 -0.63349118917E+02  0.13686009315E+02  0.98922710742E+01  0.14123071848E+03  0.12509133102E+03 0.  0.
          5    1    3    3  502    0 -0.85293605183E+02 -0.70554447065E+01 -0.30211176526E+02  0.90856843288E+02  0.41800000000E+01 0.  1.
         -5    1    3    3    0  502  0.21944486266E+02  0.20741454021E+02  0.40103447601E+02  0.50373875192E+02  0.41800000000E+01 0.  1.
        -11    1    1    2    0    0  0.34949208104E+02  0.16821572935E+02 -0.11588078251E+03  0.12219970630E+03  0.00000000000E+00 0. -1.
         11    1    1    2    0    0  0.28399910813E+02 -0.30507582249E+02 -0.61901609571E+01  0.42137698105E+02  0.00000000000E+00 0.  1.
</event>
<event>
 7    1  0.2564986E-009  0.8322869E+02  0.7561462E-02  0.1320131E+00
         -1   -1    0    0    0  501 -0.00000000000E+00  0.00000000000E+00  0.59733676239E+03  0.59733676239E+03  0.00000000000E+00 0.  1.
          1   -1    0    0  501    0  0.00000000000E+00 -0.00000000000E+00 -0.23947193455E+02  0.23947193455E+02  0.00000000000E+00 0. -1.
         25    2    1    2    0    0 -0.27323051942E+02 -0.32645686331E+02  0.26343590116E+03  0.29471496911E+03  0.12508456737E+03 0.  0.
          5    1    3    3  502    0  0.11264915946E+02 -0.38525609317E+02  0.14776735106E+02  0.42976100392E+02  0.41800000000E+01 0.  1.
         -5    1    3    3    0  502 -0.38587967888E+02  0.58799229854E+01  0.24865916605E+03  0.25173886872E+03  0.41800000000E+01 0.  1.
        -11    1    1    2    0    0  0.28089946908E+02 -0.19816994356E+02  0.45861586732E+02  0.57315299181E+02  0.00000000000E+00 0. -1.
         11    1    1    2    0    0 -0.76689496610E+00  0.52462680687E+02  0.26409208104E+03  0.26925368755E+03  0.00000000000E+00 0.  1.
</event>
<event>
 7    1  0.2564986E-009  0.7475667E+02  0.7561462E-02  0.1344626E+00
         -1   -1    0    0    0  501 -0.00000000000E+00  0.00000000000E+00  0.62921539648E+02  0.62921539648E+02  0.00000000000E+00 0.  1.
          1   -1    0    0  501    0  0.00000000000E+00 -0.00000000000E+00 -0.21498814988E+03  0.21498814988E+03  0.00000000000E+00 0. -1.
         25    2    1    2    0    0  0.35471550935E+02  0.11536014302E+02 -0.82578801242E+02  0.15446070543E+03  0.12509012973E+03 0.  0.
          5    1    3    3  502    0  0.20160828204E+02  0.35675318558E+02 -0.10824471504E+03  0.11581700256E+03  0.41800000000E+01 0. -1.
         -5    1    3    3    0  502  0.15310722731E+02 -0.24139304256E+02  0.25665913799E+02  0.38643702872E+02  0.41800000000E+01 0. -1.
        -11    1    1    2    0    0 -0.44676380567E+02 -0.33353707402E+02 -0.80023869721E+02  0.97530859235E+02  0.00000000000E+00 0. -1.
         11    1    1    2    0    0  0.92048296321E+01  0.21817693100E+02  0.10536060728E+02  0.25918124863E+02  0.00000000000E+00 0.  1.
</event>
<event>
 7    1  0.2564986E-009  0.1315102E+03  0.7561462E-02  0.1225232E+00
         -1   -1    0    0    0  501 -0.00000000000E+00  0.00000000000E+00  0.44709307703E+02  0.44709307703E+02  0.00000000000E+00 0.  1.
          1   -1    0    0  501    0  0.00000000000E+00 -0.00000000000E+00 -0.70252954537E+03  0.70252954537E+03  0.00000000000E+00 0. -1.
         25    2    1    2    0    0  0.62351984357E+02 -0.10781901952E+03 -0.21730866749E+03  0.27996435442E+03  0.12507706367E+03 0.  0.
          5    1    3    3  502    0  0.48011071304E+02 -0.48959035753E+02 -0.17164604421E+02  0.70810636168E+02  0.41800000000E+01 0.  1.
         -5    1    3    3    0  502  0.14340913053E+02 -0.58859983766E+02 -0.20014406307E+03  0.20915371825E+03  0.41800000000E+01 0.  1.
        -11    1    1    2    0    0 -0.56964367842E+02  0.50808076276E+02 -0.12389539205E+03  0.14552136609E+03  0.00000000000E+00 0.  1.
         11    1    1    2    0    0 -0.53876165146E+01  0.57010943242E+02 -0.31661617812E+03  0.32175313256E+03  0.00000000000E+00 0. -1.
</event>
<event>
 7    1  0.2564986E-009  0.1398631E+03  0.7561462E-02  0.1213513E+00
         -2   -1    0    0    0  501 -0.00000000000E+00  0.00000000000E+00  0.36888771128E+02  0.36888771128E+02  0.00000000000E+00 0.  1.
          2   -1    0    0  501    0  0.00000000000E+00 -0.00000000000E+00 -0.65514100443E+03  0.65514100443E+03  0.00000000000E+00 0. -1.
         25    2    1    2    0    0  0.13460859088E+02 -0.10039341237E+03 -0.23085530631E+03  0.28142739102E+03  0.12508865650E+03 0.  0.
          5    1    3    3  502    0  0.61440420761E+02 -0.29989922240E+02 -0.62637856366E+02  0.92818609068E+02  0.41800000000E+01 0. -1.
         -5    1    3    3    0  502 -0.47979561673E+02 -0.70403490134E+02 -0.16821744995E+03  0.18860878195E+03  0.41800000000E+01 0. -1.
        -11    1    1    2    0    0  0.19823397007E+02  0.88328597930E+02 -0.19516911611E+03  0.21514156308E+03  0.00000000000E+00 0.  1.
         11    1    1    2    0    0 -0.33284256096E+02  0.12064814443E+02 -0.19222781088E+03  0.19546082146E+03  0.00000000000E+00 0. -1.
</event>
<event>
 7    1  0.2564986E-009  0.5524639E+02  0.7561462E-02  0.1418937E+00
          3   -1    0    0  501    0  0.00000000000E+00  0.00000000000E+00  0.15100442248E+02  0.15100442248E+02  0.00000000000E+00 0. -1.
         -3   -1    0    0    0  501 -0.00000000000E+00 -0.00000000000E+00 -0.77079115077E+03  0.77079115077E+03  0.00000000000E+00 0.  1.
         25    2    1    2    0    0  0.12657381594E+01  0.20175904139E+02 -0.42028904215E+03  0.43897360880E+03  0.12508509533E+03 0.  0.
          5    1    3    3  502    0  0.50954509293E+01  0.10355101118E+01 -0.41891064680E+03  0.41896376730E+03  0.41800000000E+01 0.  1.
         -5    1    3    3    0  502 -0.38297127699E+01  0.19140394027E+02 -0.13783953452E+01  0.20009841507E+02  0.41800000000E+01 0.  1.
        -11    1    1    2    0    0 -0.31076167295E+02 -0.38028994062E+02 -0.13793003709E+03  0.14641252574E+03  0.00000000000E+00 0. -1.
         11    1    1    2    0    0  0.29810429135E+02  0.17853089924E+02 -0.19747162929E+03  0.20050545847E+03  0.00000000000E+00 0.  1.
</event>
<event>
 7    1  0.2564986E-009  0.1130018E+03  0.7561462E-02  0.1255110E+00
         -2   -1    0    0    0  501 -0.00000000000E+00  0.00000000000E+00  0.10932938942E+03  0.10932938942E+03  0.00000000000E+00 0.  1.
          2   -1    0    0  501    0  0.00000000000E+00 -0.00000000000E+00 -0.18049096755E+03  0.18049096755E+03  0.00000000000E+00 0. -1.
         25    2    1    2    0    0  0.18814402839E+02  0.60821926937E+02 -0.10241648822E+03  0.17375346611E+03  0.12509133213E+03 0.  0.
          5    1    3    3  502    0 -0.44938398133E+02  0.31563121874E+02 -0.73908799233E+01  0.55567866571E+02  0.41800000000E+01 0.  1.
         -5    1    3    3    0  502  0.63752800972E+02  0.29258805063E+02 -0.95025608299E+02  0.11818559954E+03  0.41800000000E+01 0.  1.
        -11    1    1    2    0    0  0.16915967598E+02 -0.62638240452E+02 -0.50725737346E+01  0.65080182321E+02  0.00000000000E+00 0.  1.
         11    1    1    2    0    0 -0.35730370437E+02  0.18163135145E+01  0.36327483825E+02  0.50986708537E+02  0.00000000000E+00 0. -1.
</event>
<event>
 7    1  0.2564986E-009  0.1095231E+03  0.7561462E-02  0.1261456E+00
          4   -1    0    0  501    0  0.00000000000E+00  0.00000000000E+00  0.27530641765E+03  0.27530641765E+03  0.00000000000E+00 0. -1.
         -4   -1    0    0    0  501 -0.00000000000E+00 -0.00000000000E+00 -0.67282200301E+02  0.67282200301E+02  0.00000000000E+00 0.  1.
         25    2    1    2    0    0  0.63070805345E+02 -0.37118569983E+02  0.68337806400E+02  0.16022966783E+03  0.12509107060E+03 0.  0.
          5    1    3    3  502    0 -0.28242644565E+02 -0.16600546727E+01  0.54048546742E+02  0.61148348780E+02  0.41800000000E+01 0.  1.
         -5    1    3    3    0  502  0.91313449910E+02 -0.35458515310E+02  0.14289259658E+02  0.99081319047E+02  0.41800000000E+01 0.  1.
        -11    1    1    2    0    0 -0.69987434228E+02  0.18281953844E+02  0.44165171051E+02  0.84752776474E+02  0.00000000000E+00 0.  1.
         11    1    1    2    0    0  0.69166288829E+01  0.18836616139E+02  0.95521239898E+02  0.97606173649E+02  0.00000000000E+00 0. -1.
</event>
<event>
 7    1  0.2564986E-009  0.1039387E+03  0.7561462E-02  0.1272225E+00
         -1   -1    0    0    0  501 -0.00000000000E+00  0.00000000000E+00  0.56686367422E+02  0.56686367422E+02  0.00000000000E+00 0.  1.
          1   -1    0    0  501    0  0.00000000000E+00 -0.00000000000E+00 -0.31299170074E+03  0.31299170074E+03  0.00000000000E+00 0. -1.
         25    2    1    2    0    0  0.30931860798E+02  0.73722254342E+02 -0.14231825918E+03  0.20565601754E+03  0.12509260512E+03 0.  0.
          5    1    3    3  502    0 -0.20868334168E+02  0.72561511037E+02 -0.29008089293E+02  0.80991369289E+02  0.41800000000E+01 0. -1.
         -5    1    3    3    0  502  0.51800194967E+02  0.11607433056E+01 -0.11331016988E+03  0.12466464825E+03  0.41800000000E+01 0. -1.
        -11    1    1    2    0    0 -0.69051467101E+01 -0.25252245180E+02 -0.10618435994E+03  0.10936395765E+03  0.00000000000E+00 0. -1.
         11    1    1    2    0    0 -0.24026714088E+02 -0.48470009162E+02 -0.78027141981E+01  0.54658092968E+02  0.00000000000E+00 0.  1.
</event>
<event>
 7    1  0.2564986E-009  0.1158349E+03  0.7561462E-02  0.1250131E+00
          2   -1    0    0  501    0  0.00000000000E+00  0.00000000000E+00  0.12917950489E+04  0.12917950489E+04  0.00000000000E+00 0. -1.
         -2   -1    0    0    0  501 -0.00000000000E+00 -0.00000000000E+00 -0.15180161384E+02  0.15180161384E+02  0.00000000000E+00 0.  1.
         25    2    1    2    0    0  0.48399754947E+02 -0.55436704791E+02  0.91160654555E+03  0.92308849424E+03  0.12510039885E+03 0.  0.
          5    1    3    3  502    0 -0.42367535919E+01  0.24231706402E+02  0.49625615995E+03  0.49688305904E+03  0.41800000000E+01 0. -1.
         -5    1    3    3    0  502  0.52636508539E+02 -0.79668411193E+02  0.41535038561E+03  0.42620543520E+03  0.41800000000E+01 0. -1.
        -11    1    1    2    0    0  0.21812421889E+02  0.28611913403E+02  0.61880317292E+02  0.71579305707E+02  0.00000000000E+00 0.  1.
         11    1    1    2    0    0 -0.70212176836E+02  0.26824791388E+02  0.30312802469E+03  0.31230741036E+03  0.00000000000E+00 0. -1.
</event>
<event>
 7    1  0.2564986E-009  0.1127350E+03  0.7561462E-02  0.1255587E+00
          1   -1    0    0  501    0  0.00000000000E+00  0.00000000000E+00  0.49166573760E+02  0.49166573760E+02  0.00000000000E+00 0. -1.
         -1   -1    0    0    0  501 -0.00000000000E+00 -0.00000000000E+00 -0.27533379083E+03  0.27533379083E+03  0.00000000000E+00 0.  1.
         25    2    1    2    0    0  0.28501713187E+02 -0.25528250522E+02 -0.12114684351E+03  0.17829179227E+03  0.12508943308E+03 0.  0.
          5    1    3    3  502    0  0.71077519068E+02  0.54921311454E+01 -0.96324935204E+02  0.11990889360E+03  0.41800000000E+01 0. -1.
         -5    1    3    3    0  502 -0.42575805881E+02 -0.31020381668E+02 -0.24821908305E+02  0.58382898670E+02  0.41800000000E+01 0. -1.
        -11    1    1    2    0    0  0.32877706296E+02  0.22346118794E+02 -0.34226006095E+02  0.52456764003E+02  0.00000000000E+00 0. -1.
         11    1    1    2    0    0 -0.61379419483E+02  0.31821317286E+01 -0.70794367462E+02  0.93751808317E+02  0.00000000000E+00 0.  1.
</event>
<event>
 7    1  0.2564986E-009  0.1561771E+03  0.7561462E-02  0.1193082E+00
          3   -1    0    0  501    0  0.00000000000E+00  0.00000000000E+00  0.21134872261E+03  0.21134872261E+03  0.00000000000E+00 0. -1.
         -3   -1    0    0    0  501 -0.00000000000E+00 -0.00000000000E+00 -0.21130464651E+03  0.21130464651E+03  0.00000000000E+00 0.  1.
         25    2    1    2    0    0  0.34589776646E+02 -0.10916164395E+03  0.13973492034E+03  0.21973603745E+03  0.12508141762E+03 0.  0.
          5    1    3    3  502    0 -0.39260180262E+02 -0.33539646550E+01  0.23809888789E+02  0.46227632832E+02  0.41800000000E+01 0. -1.
         -5    1    3    3    0  502  0.73849956908E+02 -0.10580767929E+03  0.11592503155E+03  0.17350840462E+03  0.41800000000E+01 0. -1.
        -11    1    1    2    0    0  0.26903114331E+02  0.56862328401E+02 -0.83575814234E+02  0.10460410449E+03  0.00000000000E+00 0.  1.
         11    1    1    2    0    0 -0.61492890978E+02  0.52299315545E+02 -0.56115030003E+02  0.98313227185E+02  0.00000000000E+00 0. -1.
</event>
<event>
 7    1  0.2564986E-009  0.1206512E+03  0.7561462E-02  0.1242027E+00
         -2   -1    0    0    0  501 -0.00000000000E+00  0.00000000000E+00  0.46150508280E+03  0.46150508280E+03  0.00000000000E+00 0.  1.
          2   -1    0    0  501    0  0.00000000000E+00 -0.00000000000E+00 -0.49602600736E+02  0.49602600736E+02  0.00000000000E+00 0. -1.
         25    2    1    2    0    0 -0.77607243221E+01 -0.10114220565E+03  0.18912432952E+03  0.24840567577E+03  0.12508954045E+03 0.  0.
          5    1    3    3  502    0 -0.22011244983E+02 -0.11605690948E+03  0.94112507530E+02  0.15109049480E+03  0.41800000000E+01 0. -1.
         -5    1    3    3    0  502  0.14250520661E+02  0.14914703830E+02  0.95011821987E+02  0.97315180967E+02  0.41800000000E+01 0. -1.
        -11    1    1    2    0    0  0.10248934270E+02  0.62656161157E+02  0.21390479850E+03  0.22312798571E+03  0.00000000000E+00 0.  1.
         11    1    1    2    0    0 -0.24882099477E+01  0.38486044497E+02  0.88733540397E+01  0.39574022056E+02  0.00000000000E+00 0. -1.
</event>
<event>
 7    1  0.2564986E-009  0.1473032E+03  0.7561462E-02  0.1203827E+00
         -4   -1    0    0    0  501 -0.00000000000E+00  0.00000000000E+00  0.37460603676E+02  0.37460603676E+02  0.00000000000E+00 0.  1.
          4   -1    0    0  501    0  0.00000000000E+00 -0.00000000000E+00 -0.68269291975E+03  0.68269291975E+03  0.00000000000E+00 0. -1.
         25    2    1    2    0    0  0.61317999159E+02  0.84632656371E+02 -0.46525306726E+03  0.49298110558E+03  0.12508944929E+03 0.  0.
          5    1    3    3  502    0  0.55715003505E+02 -0.14472166199E+02 -0.23910013131E+03  0.24596737670E+03  0.41800000000E+01 0. -1.
         -5    1    3    3    0  502  0.56029956544E+01  0.99104822570E+02 -0.22615293595E+03  0.24701372888E+03  0.41800000000E+01 0.  1.
        -11    1    1    2    0    0  0.21185116511E+02 -0.28585601040E+01 -0.18619297307E+02  0.28348875810E+02  0.00000000000E+00 0. -1.
         11    1    1    2    0    0 -0.82503115671E+02 -0.81774096267E+02 -0.16135995151E+03  0.19882354203E+03  0.00000000000E+00 0.  1.
</event>
<event>
 7    1  0.2564986E-009  0.8244382E+02  0.7561462E-02  0.1322256E+00
         -1   -1    0    0    0  501 -0.00000000000E+00  0.00000000000E+00  0.37187149401E+02  0.37187149401E+02  0.00000000000E+00 0.  1.
          1   -1    0    0  501    0  0.00000000000E+00 -0.00000000000E+00 -0.11821609326E+04  0.11821609326E+04  0.00000000000E+00 0. -1.
         25    2    1    2    0    0  0.67225119903E+01  0.52823422331E+02 -0.10711000098E+04  0.10796934508E+04  0.12508881091E+03 0.  0.
          5    1    3    3  502    0  0.35428238860E+02  0.68599816610E+02 -0.37903857918E+03  0.38684468699E+03  0.41800000000E+01 0. -1.
         -5    1    3    3    0  502 -0.28705726870E+02 -0.15776394279E+02 -0.69206143064E+03  0.69284876384E+03  0.41800000000E+01 0. -1.
        -11    1    1    2    0    0  0.34361600434E+01 -0.12885848958E+02  0.27314778153E+02  0.30396536065E+02  0.00000000000E+00 0.  1.
         11    1    1    2    0    0 -0.10158672034E+02 -0.39937573373E+02 -0.10118855150E+03  0.10925809507E+03  0.00000000000E+00 0. -1.
</event>
<event>
 7    1  0.2564986E-009  0.1401991E+03  0.7561462E-02  0.1213061E+00
         -1   -1    0    0    0  501 -0.00000000000E+00  0.00000000000E+00  0.77188617835E+03  0.77188617835E+03  0.00000000000E+00 0.  1.
          1   -1    0    0  501    0  0.00000000000E+00 -0.00000000000E+00 -0.42098952274E+02  0.42098952274E+02  0.00000000000E+00 0. -1.
         25    2    1    2    0    0 -0.10552929567E+03 -0.55491419474E+02  0.54829518444E+03  0.57488340497E+03  0.12509032792E+03 0.  0.
          5    1    3    3  502    0 -0.85721070699E+02 -0.63064364912E+02  0.54200879794E+03  0.55237326649E+03  0.41800000000E+01 0.  1.
         -5    1    3    3    0  502 -0.19808224971E+02  0.75729454377E+01  0.62863865035E+01  0.22510138479E+02  0.41800000000E+01 0.  1.
        -11    1    1    2    0    0  0.11700731847E+03  0.24926901889E+02  0.16090030615E+03  0.20050179933E+03  0.00000000000E+00 0.  1.
         11    1    1    2    0    0 -0.11478022804E+02  0.30564517585E+02  0.20591735480E+02  0.38599926331E+02  0.00000000000E+00 0. -1.
</event>
<event>
 7    1  0.2564986E-009  0.1424366E+03  0.7561462E-02  0.1210087E+00
         -4   -1    0    0    0  501 -0.00000000000E+00  0.00000000000E+00  0.34120251616E+03  0.34120251616E+03  0.00000000000E+00 0.  1.
          4   -1    0    0  501    0  0.00000000000E+00 -0.00000000000E+00 -0.81842023141E+02  0.81842023141E+02  0.00000000000E+00 0. -1.
         25    2    1    2    0    0 -0.17203334954E+02 -0.10220956838E+03  0.46579392909E+02  0.16899608987E+03  0.12508912002E+03 0.  0.
          5    1    3    3  502    0  0.21144142562E+02  0.19626265598E+02 -0.76999411432E+01  0.30150067324E+02  0.41800000000E+01 0.  1.
         -5    1    3    3    0  502 -0.38347477515E+02 -0.12183583398E+03  0.54279334053E+02  0.13884602255E+03  0.41800000000E+01 0.  1.
        -11    1    1    2    0    0  0.47067003825E+02  0.62694290353E+02  0.17498623265E+03  0.19174477440E+03  0.00000000000E+00 0.  1.
         11    1    1    2    0    0 -0.29863668872E+02  0.39515278026E+02  0.37794867460E+02  0.62303675030E+02  0.00000000000E+00 0. -1.
</event>
<event>
 7    1  0.2564986E-009  0.1106592E+03  0.7561462E-02  0.1259354E+00
         -1   -1    0    0    0  501 -0.00000000000E+00  0.00000000000E+00  0.21072736686E+03  0.21072736686E+03  0.00000000000E+00 0.  1.
          1   -1    0    0  501    0  0.00000000000E+00 -0.00000000000E+00 -0.62808014736E+02  0.62808014736E+02  0.00000000000E+00 0. -1.
         25    2    1    2    0    0  0.28111540155E+02 -0.86969624677E+01  0.58761836616E+02  0.14130550856E+03  0.12509355484E+03 0.  0.
          5    1    3    3  502    0  0.46234723230E+01  0.57255126137E+02  0.18794946666E+02  0.60582574933E+02  0.41800000000E+01 0.  1.
         -5    1    3    3    0  502  0.23488067832E+02 -0.65952088605E+02  0.39966889950E+02  0.80722933632E+02  0.41800000000E+01 0.  1.
        -11    1    1    2    0    0  0.30510296038E+02  0.16109379873E+02  0.52079837739E+02  0.62471591809E+02  0.00000000000E+00 0.  1.
         11    1    1    2    0    0 -0.58621836194E+02 -0.74124174053E+01  0.37077677769E+02  0.69758281224E+02  0.00000000000E+00 0. -1.
</event>
<event>
 7    1  0.2564986E-009  0.1462178E+03  0.7561462E-02  0.1205199E+00
         -1   -1    0    0    0  501 -0.00000000000E+00  0.00000000000E+00  0.18422956883E+02  0.18422956883E+02  0.00000000000E+00 0.  1.
          1   -1    0    0  501    0  0.00000000000E+00 -0.00000000000E+00 -0.11912852751E+04  0.11912852751E+04  0.00000000000E+00 0. -1.
         25    2    1    2    0    0  0.95497173154E+02 -0.36492287766E+02 -0.67100331820E+03  0.69017634719E+03  0.12508613051E+03 0.  0.
          5    1    3    3  502    0  0.63470574433E+02  0.41635155499E+02 -0.35592389592E+03  0.36395232116E+03  0.41800000000E+01 0.  1.
         -5    1    3    3    0  502  0.32026598721E+02 -0.78127443265E+02 -0.31507942228E+03  0.32622402603E+03  0.41800000000E+01 0.  1.
        -11    1    1    2    0    0 -0.74473484933E+02  0.63344445199E+02 -0.32388190052E+03  0.33831686949E+03  0.00000000000E+00 0.  1.
         11    1    1    2    0    0 -0.21023688221E+02 -0.26852157433E+02 -0.17797709949E+03  0.18121501529E+03  0.00000000000E+00 0. -1.
</event>
<event>
 7    1  0.2564986E-009  0.1518549E+03  0.7561462E-02  0.1198212E+00
         -1   -1    0    0    0  501 -0.00000000000E+00  0.00000000000E+00  0.11265499519E+03  0.11265499519E+03  0.00000000000E+00 0.  1.
          1   -1    0    0  501    0  0.00000000000E+00 -0.00000000000E+00 -0.23979029778E+03  0.23979029778E+03  0.00000000000E+00 0. -1.
         25    2    1    2    0    0 -0.51276029291E+01 -0.11925193048E+03 -0.97597637373E+02  0.19854519147E+03  0.12509028340E+03 0.  0.
          5    1    3    3  502    0 -0.60188972988E+02 -0.82736441470E+02 -0.37242996927E+02  0.10896120611E+03  0.41800000000E+01 0.  1.
         -5    1    3    3    0  502  0.55061370059E+02 -0.36515489015E+02 -0.60354640446E+02  0.89583985366E+02  0.41800000000E+01 0.  1.
        -11    1    1    2    0    0  0.31977201943E+02  0.89464115229E+02  0.12471999291E+02  0.95822336249E+02  0.00000000000E+00 0.  1.
         11    1    1    2    0    0 -0.26849599014E+02  0.29787815255E+02 -0.42009664507E+02  0.58077765253E+02  0.00000000000E+00 0. -1.
</event>
<event>
 7    1  0.2564986E-009  0.9974762E+02  0.7561462E-02  0.1280828E+00
          1   -1    0    0  501    0  0.00000000000E+00  0.00000000000E+00  0.67855035844E+03  0.67855035844E+03  0.00000000000E+00 0. -1.
         -1   -1    0    0    0  501 -0.00000000000E+00 -0.00000000000E+00 -0.22981890452E+02  0.22981890452E+02  0.00000000000E+00 0.  1.
         25    2    1    2    0    0 -0.38762104419E+02 -0.67263609081E+01  0.23230272019E+03  0.26675685877E+03  0.12508766215E+03 0.  0.
          5    1    3    3  502    0  0.30184890320E+02 -0.84639138491E+01  0.88153554454E+01  0.32832123491E+02  0.41800000000E+01 0.  1.
         -5    1    3    3    0  502 -0.68946994739E+02  0.17375529411E+01  0.22348736474E+03  0.23392473528E+03  0.41800000000E+01 0.  1.
        -11    1    1    2    0    0  0.54055583210E+02 -0.27964682527E+02  0.28348210110E+03  0.28994159961E+03  0.00000000000E+00 0. -1.
         11    1    1    2    0    0 -0.15293478791E+02  0.34691043435E+02  0.13978364670E+03  0.14483379051E+03  0.00000000000E+00 0.  1.
</event>
<event>
 7    1  0.2564986E-009  0.1083878E+03  0.7561462E-02  0.1263585E+00
         -2   -1    0    0    0  501 -0.00000000000E+00  0.00000000000E+00  0.33167820577E+02  0.33167820577E+02  0.00000000000E+00 0.  1.
          2   -1    0    0  501    0  0.00000000000E+00 -0.00000000000E+00 -0.41668133049E+03  0.41668133049E+03  0.00000000000E+00 0. -1.
         25    2    1    2    0    0  0.29042186768E+02  0.11128518156E+02 -0.27919594122E+03  0.30751685334E+03  0.12509575917E+03 0.  0.
          5    1    3    3  502    0 -0.23776094723E+02  0.53934108262E+02 -0.10513066054E+03  0.12059900041E+03  0.41800000000E+01 0.  1.
         -5    1    3    3    0  502  0.52818281490E+02 -0.42805590106E+02 -0.17406528068E+03  0.18691785293E+03  0.41800000000E+01 0.  1.
        -11    1    1    2    0    0  0.23009972908E+02  0.18635591373E+02 -0.11360814382E+02  0.31714542760E+02  0.00000000000E+00 0.  1.
         11    1    1    2    0    0 -0.52052159676E+02 -0.29764109529E+02 -0.92956754308E+02  0.11061775497E+03  0.00000000000E+00 0. -1.
</event>
<event>
 7    1  0.2564986E-009  0.1165675E+03  0.7561462E-02  0.1248869E+00
          3   -1    0    0  501    0  0.00000000000E+00  0.00000000000E+00  0.23043999219E+02  0.23043999219E+02  0.00000000000E+00 0. -1.
         -3   -1    0    0    0  501 -0.00000000000E+00 -0.00000000000E+00 -0.81155935325E+03  0.81155935325E+03  0.00000000000E+00 0.  1.
         25    2    1    2    0    0  0.58148034081E+02 -0.35052227329E+02 -0.58414924896E+03  0.60123886669E+03  0.12509187526E+03 0.  0.
          5    1    3    3  502    0 -0.39568590499E+02 -0.57479982407E+01 -0.15984686946E+03  0.16482477640E+03  0.41800000000E+01 0.  1.
         -5    1    3    3    0  502  0.97716624580E+02 -0.29304229088E+02 -0.42430237950E+03  0.43641409029E+03  0.41800000000E+01 0.  1.
        -11    1    1    2    0    0 -0.75329413891E+01  0.39321601118E+02 -0.16303452527E+03  0.16787849758E+03  0.00000000000E+00 0.  1.
         11    1    1    2    0    0 -0.50615092692E+02 -0.42693737892E+01 -0.41331579804E+02  0.65485988195E+02  0.00000000000E+00 0. -1.
</event>
<event>
 7    1  0.2564986E-009  0.1019247E+03  0.7561462E-02  0.1276300E+00
          1   -1    0    0  501    0  0.00000000000E+00  0.00000000000E+00  0.15745500900E+03  0.15745500900E+03  0.00000000000E+00 0. -1.
         -1   -1    0    0    0  501 -0.00000000000E+00 -0.00000000000E+00 -0.11715174066E+03  0.11715174066E+03  0.00000000000E+00 0.  1.
         25    2    1    2    0    0 -0.16343063455E+02  0.60208625997E+02 -0.32017655281E+02  0.14340455814E+03  0.12509021816E+03 0.  0.
          5    1    3    3  502    0 -0.34280151019E+02 -0.30987605494E+02 -0.15451182190E+02  0.48903700057E+02  0.41800000000E+01 0. -1.
         -5    1    3    3    0  502  0.17937087565E+02  0.91196231491E+02 -0.16566473091E+02  0.94500858087E+02  0.41800000000E+01 0. -1.
        -11    1    1    2    0    0  0.11680017405E+02 -0.15227714376E+02  0.82622200487E+02  0.84821778483E+02  0.00000000000E+00 0. -1.
         11    1    1    2    0    0  0.46630460496E+01 -0.44980911621E+02 -0.10301276864E+02  0.46380413040E+02  0.00000000000E+00 0.  1.
</event>
<event>
 7    1  0.2564986E-009  0.2366560E+03  0.7561462E-02  0.1122041E+00
          2   -1    0    0  501    0  0.00000000000E+00  0.00000000000E+00  0.46608472581E+02  0.46608472581E+02  0.00000000000E+00 0. -1.
         -2   -1    0    0    0  501 -0.00000000000E+00 -0.00000000000E+00 -0.13212666386E+04  0.13212666386E+04  0.00000000000E+00 0.  1.
         25    2    1    2    0    0 -0.70096459461E+02 -0.21009923869E+03 -0.69945632189E+03  0.74427274690E+03  0.12509025467E+03 0.  0.
          5    1    3    3  502    0 -0.96786798642E+02 -0.19200144747E+03 -0.53450675799E+03  0.57614858063E+03  0.41800000000E+01 0.  1.
         -5    1    3    3    0  502  0.26690339181E+02 -0.18097791217E+02 -0.16494956390E+03  0.16812416627E+03  0.41800000000E+01 0.  1.
        -11    1    1    2    0    0  0.29429224418E+01  0.73152883619E+02 -0.30159479736E+03  0.31035371267E+03  0.00000000000E+00 0.  1.
         11    1    1    2    0    0  0.67153537019E+02  0.13694635507E+03 -0.27360704681E+03  0.31324865166E+03  0.00000000000E+00 0. -1.
</event>
<event>
 7    1  0.2564986E-009  0.1688416E+03  0.7561462E-02  0.1179061E+00
          2   -1    0    0  501    0  0.00000000000E+00  0.00000000000E+00  0.27094253097E+03  0.27094253097E+03  0.00000000000E+00 0. -1.
         -2   -1    0    0    0  501 -0.00000000000E+00 -0.00000000000E+00 -0.11853505008E+03  0.11853505008E+03  0.00000000000E+00 0.  1.
         25    2    1    2    0    0  0.12904384154E+03 -0.48912941946E+02  0.41503744077E+02  0.19082824460E+03  0.12509224290E+03 0.  0.
          5    1    3    3  502    0  0.92605818121E+02  0.29104606423E+02  0.38666481800E+02  0.10457286875E+03  0.41800000000E+01 0. -1.
         -5    1    3    3    0  502  0.36438023419E+02 -0.78017548369E+02  0.28372622776E+01  0.86255375841E+02  0.41800000000E+01 0. -1.
        -11    1    1    2    0    0 -0.10113873779E+01  0.23823868400E+02 -0.47343389254E+01  0.24310770762E+02  0.00000000000E+00 0.  1.
         11    1    1    2    0    0 -0.12803245416E+03  0.25089073546E+02  0.11563807574E+03  0.17433856570E+03  0.00000000000E+00 0. -1.
</event>
<event>
 7    1  0.2642942E-009  0.1180931E+03  0.7561462E-02  0.1246276E+00
         -1   -1    0    0    0  501 -0.00000000000E+00  0.00000000000E+00  0.62771793815E+02  0.62771793815E+02  0.00000000000E+00 0.  1.
          1   -1    0    0  501    0  0.00000000000E+00 -0.00000000000E+00 -0.45137366263E+03  0.45137366263E+03  0.00000000000E+00 0. -1.
         25    2    1    2    0    0 -0.27260515022E+02 -0.54560241668E+02 -0.34577242055E+02  0.14339696352E+03  0.12508855994E+03 0.  0.
          5    1    3    3  502    0 -0.63966072171E+02  0.34825729515E+01  0.43529790926E+01  0.64344444440E+02  0.41800000000E+01 0.  1.
         -5    1    3    3    0  502  0.36705557149E+02 -0.58042814620E+02 -0.38930221148E+02  0.79052519082E+02  0.41800000000E+01 0.  1.
        -11    1    1    2    0    0  0.48566683367E+02  0.44919360678E+01 -0.10396777288E+03  0.11483987992E+03  0.00000000000E+00 0.  1.
         11    1    1    2    0    0 -0.21306168346E+02  0.50068305601E+02 -0.25005685388E+03  0.25590861300E+03  0.00000000000E+00 0. -1.
</event>
<event>
 7    1  0.2564986E-009  0.1571754E+03  0.7561462E-02  0.1191923E+00
         -1   -1    0    0    0  501 -0.00000000000E+00  0.00000000000E+00  0.76811246225E+02  0.76811246225E+02  0.00000000000E+00 0.  1.
          1   -1    0    0  501    0  0.00000000000E+00 -0.00000000000E+00 -0.35367550487E+03  0.35367550487E+03  0.00000000000E+00 0. -1.
         25    2    1    2    0    0 -0.58233109031E+02  0.98921516834E+02 -0.87831459220E+02  0.19115306569E+03  0.12509423573E+03 0.  0.
          5    1    3    3  502    0 -0.23227806650E+02 -0.28028525504E+02 -0.29602332134E+02  0.47105198349E+02  0.41800000000E+01 0.  1.
         -5    1    3    3    0  502 -0.35005302381E+02  0.12695004234E+03 -0.58229127086E+02  0.14404786734E+03  0.41800000000E+01 0.  1.
        -11    1    1    2    0    0  0.74803099358E+02 -0.40159703689E+02 -0.12235801809E+03  0.14892880871E+03  0.00000000000E+00 0. -1.
         11    1    1    2    0    0 -0.16569990327E+02 -0.58761813145E+02 -0.66674781336E+02  0.90404876692E+02  0.00000000000E+00 0.  1.
</event>
<event>
 7    1  0.2564986E-009  0.1675080E+03  0.7561462E-02  0.1180472E+00
         -2   -1    0    0    0  501 -0.00000000000E+00  0.00000000000E+00  0.13644428417E+03  0.13644428417E+03  0.00000000000E+00 0.  1.
          2   -1    0    0  501    0  0.00000000000E+00 -0.00000000000E+00 -0.21329802383E+03  0.21329802383E+03  0.00000000000E+00 0. -1.
         25    2    1    2    0    0  0.70208617946E+02  0.11074423018E+03 -0.24206106527E+02  0.18283047894E+03  0.12509002312E+03 0.  0.
          5    1    3    3  502    0  0.63252348223E+02 -0.21728331391E+01  0.10784827441E+02  0.64337902223E+02  0.41800000000E+01 0. -1.
         -5    1    3    3    0  502  0.69562697229E+01  0.11291706332E+03 -0.34990933967E+02  0.11849257672E+03  0.41800000000E+01 0. -1.
        -11    1    1    2    0    0 -0.51575042215E+02 -0.59212648860E+01 -0.18187647945E+02  0.55007607611E+02  0.00000000000E+00 0.  1.
         11    1    1    2    0    0 -0.18633575731E+02 -0.10482296530E+03 -0.34459985184E+02  0.11190422145E+03  0.00000000000E+00 0. -1.
</event>
<event>
 7    1  0.2564986E-009  0.6422595E+02  0.7561462E-02  0.1380907E+00
         -2   -1    0    0    0  501 -0.00000000000E+00  0.00000000000E+00  0.12922874359E+03  0.12922874359E+03  0.00000000000E+00 0. -1.
          2   -1    0    0  501    0  0.00000000000E+00 -0.00000000000E+00 -0.10050208987E+03  0.10050208987E+03  0.00000000000E+00 0.  1.
         25    2    1    2    0    0  0.61898319888E+01  0.21004891290E+02 -0.10948583784E+02  0.12746374215E+03  0.12509042569E+03 0.  0.
          5    1    3    3  502    0 -0.33745407329E+02  0.84255180752E+01  0.45270449198E+02  0.57241836459E+02  0.41800000000E+01 0. -1.
         -5    1    3    3    0  502  0.39935239318E+02  0.12579373215E+02 -0.56219032982E+02  0.70221905694E+02  0.41800000000E+01 0. -1.
        -11    1    1    2    0    0  0.20329696524E+02 -0.91256412974E+01  0.61832030106E+02  0.65724986397E+02  0.00000000000E+00 0. -1.
         11    1    1    2    0    0 -0.26519528513E+02 -0.11879249992E+02 -0.22156792603E+02  0.36542104911E+02  0.00000000000E+00 0.  1.
</event>
<event>
 7    1  0.2564986E-009  0.1178222E+03  0.7561462E-02  0.1246734E+00
          1   -1    0    0  501    0  0.00000000000E+00  0.00000000000E+00  0.49406253161E+03  0.49406253161E+03  0.00000000000E+00 0. -1.
         -1   -1    0    0    0  501 -0.00000000000E+00 -0.00000000000E+00 -0.52611598927E+02  0.52611598927E+02  0.00000000000E+00 0.  1.
         25    2    1    2    0    0 -0.93205145687E+02  0.51462600765E+01  0.12111322139E+03  0.19756249654E+03  0.12509534151E+03 0.  0.
          5    1    3    3  502    0 -0.68421192700E+02  0.28225341297E+02  0.14010639629E+03  0.15850994979E+03  0.41800000000E+01 0. -1.
         -5    1    3    3    0  502 -0.24783952987E+02 -0.23079081221E+02 -0.18993174891E+02  0.39052546755E+02  0.41800000000E+01 0. -1.
        -11    1    1    2    0    0  0.81395419989E+02  0.32718770641E+02  0.27607424368E+03  0.28967692413E+03  0.00000000000E+00 0. -1.
         11    1    1    2    0    0  0.11809725697E+02 -0.37865030718E+02  0.44263467606E+02  0.59434709866E+02  0.00000000000E+00 0.  1.
</event>
<event>
 7    1  0.2564986E-009  0.1148819E+03  0.7561462E-02  0.1251787E+00
         -4   -1    0    0    0  501 -0.00000000000E+00  0.00000000000E+00  0.35608498147E+03  0.35608498147E+03  0.00000000000E+00 0.  1.
          4   -1    0    0  501    0  0.00000000000E+00 -0.00000000000E+00 -0.12738137007E+03  0.12738137007E+03  0.00000000000E+00 0. -1.
         25    2    1    2    0    0  0.31932542897E+02 -0.68737212991E+02  0.30821128663E+03  0.34115536227E+03  0.12509313432E+03 0.  0.
          5    1    3    3  502    0  0.56533088396E+02 -0.19407906554E+02  0.26300401973E+03  0.26974292153E+03  0.41800000000E+01 0.  1.
         -5    1    3    3    0  502 -0.24600545499E+02 -0.49329306437E+02  0.45207266904E+02  0.71412440746E+02  0.41800000000E+01 0.  1.
        -11    1    1    2    0    0  0.28383350373E+02  0.36301456604E+02 -0.49232448049E+02  0.67433257899E+02  0.00000000000E+00 0.  1.
         11    1    1    2    0    0 -0.60315893270E+02  0.32435756387E+02 -0.30275227182E+02  0.74877731364E+02  0.00000000000E+00 0. -1.
</event>
<event>
 7    1  0.2564986E-009  0.1140107E+03  0.7561462E-02  0.1253318E+00
          2   -1    0    0  501    0  0.00000000000E+00  0.00000000000E+00  0.11773805210E+03  0.11773805210E+03  0.00000000000E+00 0. -1.
         -2   -1    0    0    0  501 -0.00000000000E+00 -0.00000000000E+00 -0.21016963278E+03  0.21016963278E+03  0.00000000000E+00 0.  1.
         25    2    1    2    0    0 -0.47595518050E+02 -0.65152165104E+02  0.32035105506E+02  0.15226047325E+03  0.12508743251E+03 0.  0.
          5    1    3    3  502    0  0.34591424248E+02 -0.32935005143E+02  0.41459052742E+02  0.63384593156E+02  0.41800000000E+01 0.  1.
         -5    1    3    3    0  502 -0.82186942298E+02 -0.32217159962E+02 -0.94239472360E+01  0.88875880090E+02  0.41800000000E+01 0.  1.
        -11    1    1    2    0    0  0.55634022898E+02  0.51248275472E+02 -0.13617452675E+03  0.15577237232E+03  0.00000000000E+00 0.  1.
         11    1    1    2    0    0 -0.80385048481E+01  0.13903889633E+02  0.11707840569E+02  0.19874839317E+02  0.00000000000E+00 0. -1.
</event>
<event>
 7    1  0.2564986E-009  0.9523835E+02  0.7561462E-02  0.1290640E+00
          3   -1    0    0  501    0  0.00000000000E+00  0.00000000000E+00  0.11745437474E+03  0.11745437474E+03  0.00000000000E+00 0. -1.
         -3   -1    0    0    0  501 -0.00000000000E+00 -0.00000000000E+00 -0.12814652730E+03  0.12814652730E+03  0.00000000000E+00 0.  1.
         25    2    1    2    0    0  0.43075888771E+02  0.93566893194E+01  0.30604606459E+02  0.13611618335E+03  0.12509154090E+03 0.  0.
          5    1    3    3  502    0  0.86418763060E+01  0.64579056878E+02  0.31635864811E+01  0.65365260596E+02  0.41800000000E+01 0.  1.
         -5    1    3    3    0  502  0.34434012465E+02 -0.55222367559E+02  0.27441019978E+02  0.70750922755E+02  0.41800000000E+01 0.  1.
        -11    1    1    2    0    0 -0.45385763716E+02  0.47932849601E+01 -0.66402361563E+02  0.80573672808E+02  0.00000000000E+00 0.  1.
         11    1    1    2    0    0  0.23098749447E+01 -0.14149974279E+02  0.25105602544E+02  0.28911045873E+02  0.00000000000E+00 0. -1.
</event>
<event>
 7    1  0.2564986E-009  0.1399655E+03  0.7561462E-02  0.1213375E+00
         -2   -1    0    0    0  501 -0.00000000000E+00  0.00000000000E+00  0.11579042111E+03  0.11579042111E+03  0.00000000000E+00 0.  1.
          2   -1    0    0  501    0  0.00000000000E+00 -0.00000000000E+00 -0.24073942931E+03  0.24073942931E+03  0.00000000000E+00 0. -1.
         25    2    1    2    0    0 -0.45040065700E+02  0.11997950124E+03 -0.56765223996E+02  0.18786528601E+03  0.12508951514E+03 0.  0.
          5    1    3    3  502    0 -0.44537107412E+02  0.12903043554E+03 -0.66079538064E+01  0.13672433831E+03  0.41800000000E+01 0. -1.
         -5    1    3    3    0  502 -0.50295828834E+00 -0.90509343038E+01 -0.50157270190E+02  0.51140947701E+02  0.41800000000E+01 0. -1.
        -11    1    1    2    0    0  0.50003304551E+02 -0.89656782979E+02 -0.85318363035E+02  0.13348367792E+03  0.00000000000E+00 0.  1.
         11    1    1    2    0    0 -0.49632388511E+01 -0.30322718261E+02  0.17134578834E+02  0.35180886494E+02  0.00000000000E+00 0. -1.
</event>
<event>
 7    1  0.2564986E-009  0.1016905E+03  0.7561462E-02  0.1276781E+00
          1   -1    0    0  501    0  0.00000000000E+00  0.00000000000E+00  0.50579537657E+03  0.50579537657E+03  0.00000000000E+00 0. -1.
         -1   -1    0    0    0  501 -0.00000000000E+00 -0.00000000000E+00 -0.28626779767E+02  0.28626779767E+02  0.00000000000E+00 0.  1.
         25    2    1    2    0    0 -0.85589929270E+01 -0.51142260905E+02  0.30887721050E+03  0.33725556309E+03  0.12508955376E+03 0.  0.
          5    1    3    3  502    0 -0.52837041963E+02 -0.68158031193E+02  0.22172377488E+03  0.23794153687E+03  0.41800000000E+01 0. -1.
         -5    1    3    3    0  502  0.44278049036E+02  0.17015770288E+02  0.87153435612E+02  0.99314026219E+02  0.41800000000E+01 0. -1.
        -11    1    1    2    0    0  0.27630006224E+02  0.33681467599E+02  0.16552522635E+03  0.17116208418E+03  0.00000000000E+00 0. -1.
         11    1    1    2    0    0 -0.19071013297E+02  0.17460793306E+02  0.27661599636E+01  0.26004509070E+02  0.00000000000E+00 0.  1.
</event>
<event>
 7    1  0.2564986E-009  0.1239802E+03  0.7561462E-02  0.1236672E+00
         -3   -1    0    0    0  501 -0.00000000000E+00  0.00000000000E+00  0.88814400996E+02  0.88814400996E+02  0.00000000000E+00 0.  1.
          3   -1    0    0  501    0  0.00000000000E+00 -0.00000000000E+00 -0.17802062313E+03  0.17802062313E+03  0.00000000000E+00 0. -1.
         25    2    1    2    0    0  0.19641136396E+01  0.62958872418E+02 -0.57417267101E+02  0.15136746254E+03  0.12509072226E+03 0.  0.
          5    1    3    3  502    0 -0.59657916335E+02  0.28469867352E+02 -0.43580218289E+02  0.79286241900E+02  0.41800000000E+01 0. -1.
         -5    1    3    3    0  502  0.61622029975E+02  0.34489005066E+02 -0.13837048812E+02  0.72081220637E+02  0.41800000000E+01 0. -1.
        -11    1    1    2    0    0  0.15938848183E+02  0.20307498855E+02 -0.64552826340E+01  0.26610375139E+02  0.00000000000E+00 0.  1.
         11    1    1    2    0    0 -0.17902961823E+02 -0.83266371273E+02 -0.25333672404E+02  0.88857186454E+02  0.00000000000E+00 0. -1.
</event>
<event>
 7    1  0.2564986E-009  0.2026813E+03  0.7561462E-02  0.1147496E+00
         -1   -1    0    0    0  501 -0.00000000000E+00  0.00000000000E+00  0.12822028731E+04  0.12822028731E+04  0.00000000000E+00 0.  1.
          1   -1    0    0  501    0  0.00000000000E+00 -0.00000000000E+00 -0.42968539933E+02  0.42968539933E+02  0.00000000000E+00 0. -1.
         25    2    1    2    0    0  0.71382581865E+02 -0.17883352430E+03  0.85947978498E+03  0.88962121261E+03  0.12507397302E+03 0.  0.
          5    1    3    3  502    0  0.63109912486E+02 -0.88870844027E+02  0.67946752787E+03  0.68816748092E+03  0.41800000000E+01 0.  1.
         -5    1    3    3    0  502  0.82726693790E+01 -0.89962680268E+02  0.18001225712E+03  0.20145373169E+03  0.41800000000E+01 0.  1.
        -11    1    1    2    0    0 -0.30893649529E+02  0.15666811132E+03  0.33569019271E+03  0.37173541688E+03  0.00000000000E+00 0.  1.
         11    1    1    2    0    0 -0.40488932336E+02  0.22165412974E+02  0.44064355467E+02  0.63814783529E+02  0.00000000000E+00 0. -1.
</event>
<event>
 7    1  0.2564986E-009  0.1188816E+03  0.7561462E-02  0.1244953E+00
          2   -1    0    0  501    0  0.00000000000E+00  0.00000000000E+00  0.46397654499E+03  0.46397654499E+03  0.00000000000E+00 0. -1.
         -2   -1    0    0    0  501 -0.00000000000E+00 -0.00000000000E+00 -0.40743410491E+02  0.40743410491E+02  0.00000000000E+00 0.  1.
         25    2    1    2    0    0 -0.32915820866E+02 -0.55286953494E+02  0.12748496105E+03  0.18983933197E+03  0.12508580327E+03 0.  0.
          5    1    3    3  502    0 -0.75353391262E+02 -0.43680207591E+02  0.49676817349E+02  0.10035612932E+03  0.41800000000E+01 0. -1.
         -5    1    3    3    0  502  0.42437570396E+02 -0.11606745902E+02  0.77808143697E+02  0.89483202654E+02  0.41800000000E+01 0. -1.
        -11    1    1    2    0    0  0.41168917562E+02 -0.85122759460E+01  0.90515234046E+02  0.99801534103E+02  0.00000000000E+00 0.  1.
         11    1    1    2    0    0 -0.82530966962E+01  0.63799229440E+02  0.20523293941E+03  0.21507908941E+03  0.00000000000E+00 0. -1.
</event>
<event>
 7    1  0.2564986E-009  0.1039881E+03  0.7561462E-02  0.1272126E+00
          3   -1    0    0  501    0  0.00000000000E+00  0.00000000000E+00  0.10738269342E+03  0.10738269342E+03  0.00000000000E+00 0. -1.
         -3   -1    0    0    0  501 -0.00000000000E+00 -0.00000000000E+00 -0.23435372749E+03  0.23435372749E+03  0.00000000000E+00 0.  1.
         25    2    1    2    0    0  0.34014347275E+00 -0.26664406107E+02  0.53195826604E+02  0.13852375633E+03  0.12509168177E+03 0.  0.
          5    1    3    3  502    0  0.54545375433E+02 -0.36891394115E+02  0.68146318783E+01  0.66333133113E+02  0.41800000000E+01 0. -1.
         -5    1    3    3    0  502 -0.54205231960E+02  0.10226988008E+02  0.46381194726E+02  0.72190623213E+02  0.41800000000E+01 0. -1.
        -11    1    1    2    0    0  0.10666923942E+02 -0.28495693007E+02 -0.10506815595E+03  0.10938512322E+03  0.00000000000E+00 0.  1.
         11    1    1    2    0    0 -0.11007067415E+02  0.55160099114E+02 -0.75098704722E+02  0.93827541363E+02  0.00000000000E+00 0. -1.
</event>
<event>
 7    1  0.2564986E-009  0.1248278E+03  0.7561462E-02  0.1235339E+00
         -1   -1    0    0    0  501 -0.00000000000E+00  0.00000000000E+00  0.16324356062E+03  0.16324356062E+03  0.00000000000E+00 0.  1.
          1   -1    0    0  501    0  0.00000000000E+00 -0.00000000000E+00 -0.19791024510E+03  0.19791024510E+03  0.00000000000E+00 0. -1.
         25    2    1    2    0    0  0.75282221612E+02 -0.55114464673E+02 -0.12608508717E+03  0.20062403407E+03  0.12509011445E+03 0.  0.
          5    1    3    3  502    0  0.78617296439E+02 -0.73584922712E+02 -0.14015694813E+03  0.17679610476E+03  0.41800000000E+01 0. -1.
         -5    1    3    3    0  502 -0.33350748266E+01  0.18470458039E+02  0.14071860961E+02  0.23827929309E+02  0.41800000000E+01 0. -1.
        -11    1    1    2    0    0 -0.11377815079E+02  0.57597926144E+02  0.73585911616E+02  0.94137464170E+02  0.00000000000E+00 0.  1.
         11    1    1    2    0    0 -0.63904406533E+02 -0.24834614710E+01  0.17832491074E+02  0.66392307485E+02  0.00000000000E+00 0. -1.
</event>
<event>
 7    1  0.2564986E-009  0.9936741E+02  0.7561462E-02  0.1281632E+00
         -1   -1    0    0    0  501 -0.00000000000E+00  0.00000000000E+00  0.29092953674E+03  0.29092953674E+03  0.00000000000E+00 0.  1.
          1   -1    0    0  501    0  0.00000000000E+00 -0.00000000000E+00 -0.52459045898E+02  0.52459045898E+02  0.00000000000E+00 0. -1.
         25    2    1    2    0    0 -0.22857541217E+02  0.30167255495E+02  0.19394511896E+03  0.23386998214E+03  0.12509168191E+03 0.  0.
          5    1    3    3  502    0  0.31174808587E+02 -0.21956677946E+02  0.12877279465E+03  0.13436468822E+03  0.41800000000E+01 0.  1.
         -5    1    3    3    0  502 -0.54032349804E+02  0.52123933440E+02  0.65172324306E+02  0.99505293920E+02  0.41800000000E+01 0.  1.
        -11    1    1    2    0    0 -0.72424532139E+01  0.22985502091E+02 -0.11436664726E+02  0.26675526892E+02  0.00000000000E+00 0.  1.
         11    1    1    2    0    0  0.30099994431E+02 -0.53152757586E+02  0.55962036612E+02  0.82843073612E+02  0.00000000000E+00 0. -1.
</event>
<event>
 7    1  0.2564986E-009  0.9021103E+02  0.7561462E-02  0.1302341E+00
         -1   -1    0    0    0  501 -0.00000000000E+00  0.00000000000E+00  0.65169989141E+02  0.65169989141E+02  0.00000000000E+00 0.  1.
          1   -1    0    0  501    0  0.00000000000E+00 -0.00000000000E+00 -0.23135310345E+03  0.23135310345E+03  0.00000000000E+00 0. -1.
         25    2    1    2    0    0  0.41177682403E+02  0.37674572672E+02 -0.10809732929E+03  0.17449578892E+03  0.12509505504E+03 0.  0.
          5    1    3    3  502    0  0.11876927903E+02  0.47477215791E+02  0.11878986327E+02  0.50534445202E+02  0.41800000000E+01 0. -1.
         -5    1    3    3    0  502  0.29300754500E+02 -0.98026431198E+01 -0.11997631562E+03  0.12396134371E+03  0.41800000000E+01 0. -1.
        -11    1    1    2    0    0 -0.42495369957E+02 -0.62328123107E+02 -0.22508491862E+02  0.78722827717E+02  0.00000000000E+00 0.  1.
         11    1    1    2    0    0  0.13176875540E+01  0.24653550436E+02 -0.35577293159E+02  0.43304475959E+02  0.00000000000E+00 0. -1.
</event>
<event>
 7    1  0.2564986E-009  0.1009239E+03  0.7561462E-02  0.1278365E+00
         -2   -1    0    0    0  501 -0.00000000000E+00  0.00000000000E+00  0.19641367424E+03  0.19641367424E+03  0.00000000000E+00 0. -1.
          2   -1    0    0  501    0  0.00000000000E+00 -0.00000000000E+00 -0.73943563674E+02  0.73943563674E+02  0.00000000000E+00 0.  1.
         25    2    1    2    0    0 -0.22999061854E+02 -0.15678966600E+02  0.26276324260E+02  0.13081612517E+03  0.12509047345E+03 0.  0.
          5    1    3    3  502    0  0.38597279846E+02 -0.38217019575E+01  0.50178950566E+02  0.63559066208E+02  0.41800000000E+01 0. -1.
         -5    1    3    3    0  502 -0.61596341700E+02 -0.11857264642E+02 -0.23902626306E+02  0.67257058960E+02  0.41800000000E+01 0. -1.
        -11    1    1    2    0    0 -0.28875793570E+02 -0.21625044524E+02  0.44944606745E+02  0.57632210442E+02  0.00000000000E+00 0. -1.
         11    1    1    2    0    0  0.51874855424E+02  0.37304011124E+02  0.51249179563E+02  0.81908902306E+02  0.00000000000E+00 0.  1.
</event>
<event>
 7    1  0.3236205E-009  0.1565795E+03  0.7561462E-02  0.1192613E+00
          2   -1    0    0  501    0  0.00000000000E+00  0.00000000000E+00  0.10490290601E+04  0.10490290601E+04  0.00000000000E+00 0. -1.
         -2   -1    0    0    0  501 -0.00000000000E+00 -0.00000000000E+00 -0.26500982062E+02  0.26500982062E+02  0.00000000000E+00 0.  1.
         25    2    1    2    0    0 -0.66585528715E+02 -0.10678333987E+03  0.59000297747E+03  0.61610690031E+03  0.12509150603E+03 0.  0.
          5    1    3    3  502    0  0.32561066406E+02 -0.46661075377E+02  0.13535750411E+03  0.14688977269E+03  0.41800000000E+01 0. -1.
         -5    1    3    3    0  502 -0.99146595122E+02 -0.60122264494E+02  0.45464547335E+03  0.46921712762E+03  0.41800000000E+01 0. -1.
        -11    1    1    2    0    0 -0.40143419594E+01  0.48123326008E+02  0.67252501877E+02  0.82794132981E+02  0.00000000000E+00 0.  1.
         11    1    1    2    0    0  0.70599870675E+02  0.58660013862E+02  0.36527259869E+03  0.37662900887E+03  0.00000000000E+00 0. -1.
</event>
<event>
 7    1  0.2564986E-009  0.1061544E+03  0.7561462E-02  0.1267862E+00
         -1   -1    0    0    0  501 -0.00000000000E+00  0.00000000000E+00  0.35565956190E+02  0.35565956190E+02  0.00000000000E+00 0.  1.
          1   -1    0    0  501    0  0.00000000000E+00 -0.00000000000E+00 -0.57988803235E+03  0.57988803235E+03  0.00000000000E+00 0. -1.
         25    2    1    2    0    0 -0.46815635975E+02 -0.77649194802E+02 -0.32880522679E+03  0.36329145302E+03  0.12508677566E+03 0.  0.
          5    1    3    3  502    0 -0.24157479234E+00  0.15006916472E+02 -0.18655101013E+03  0.18720047458E+03  0.41800000000E+01 0. -1.
         -5    1    3    3    0  502 -0.46574061183E+02 -0.92656111274E+02 -0.14225421666E+03  0.17609097844E+03  0.41800000000E+01 0. -1.
        -11    1    1    2    0    0  0.85547302273E+01  0.33241787345E+02 -0.18081462497E+03  0.18404382205E+03  0.00000000000E+00 0. -1.
         11    1    1    2    0    0  0.38260905748E+02  0.44407407456E+02 -0.34702224402E+02  0.68118713465E+02  0.00000000000E+00 0.  1.
</event>
<event>
 7    1  0.2564986E-009  0.1128614E+03  0.7561462E-02  0.1255361E+00
         -1   -1    0    0    0  501 -0.00000000000E+00  0.00000000000E+00  0.97861563599E+02  0.97861563599E+02  0.00000000000E+00 0.  1.
          1   -1    0    0  501    0  0.00000000000E+00 -0.00000000000E+00 -0.26353699738E+03  0.26353699738E+03  0.00000000000E+00 0. -1.
         25    2    1    2    0    0 -0.68640638633E+02 -0.67016463185E+02 -0.16766316941E+03  0.23013881367E+03  0.12510072570E+03 0.  0.
          5    1    3    3  502    0 -0.72081367751E+02 -0.48543610122E+02 -0.31360120332E+02  0.92483161753E+02  0.41800000000E+01 0. -1.
         -5    1    3    3    0  502  0.34407291173E+01 -0.18472853062E+02 -0.13630304907E+03  0.13765565192E+03  0.41800000000E+01 0. -1.
        -11    1    1    2    0    0 -0.99493946137E+01 -0.64749707797E+01 -0.18253690376E+02  0.21774134016E+02  0.00000000000E+00 0. -1.
         11    1    1    2    0    0  0.78590033247E+02  0.73491433964E+02  0.20241426002E+02  0.10948561329E+03  0.00000000000E+00 0.  1.
</event>
<event>
 7    1  0.2564986E-009  0.1162523E+03  0.7561462E-02  0.1249411E+00
          2   -1    0    0  501    0  0.00000000000E+00  0.00000000000E+00  0.26382667073E+03  0.26382667073E+03  0.00000000000E+00 0. -1.
         -2   -1    0    0    0  501 -0.00000000000E+00 -0.00000000000E+00 -0.54539920038E+02  0.54539920038E+02  0.00000000000E+00 0.  1.
         25    2    1    2    0    0  0.37800687064E+02 -0.32293799064E+02  0.13762877603E+03  0.19251100203E+03  0.12508806702E+03 0.  0.
          5    1    3    3  502    0  0.51611130806E+02  0.33981734940E+02  0.40347146037E+02  0.73917736207E+02  0.41800000000E+01 0.  1.
         -5    1    3    3    0  502 -0.13810443742E+02 -0.66275534004E+02  0.97281629997E+02  0.11859326582E+03  0.41800000000E+01 0.  1.
        -11    1    1    2    0    0 -0.48483953911E+02  0.57590224820E+02  0.45691303060E+02  0.88062608166E+02  0.00000000000E+00 0.  1.
         11    1    1    2    0    0  0.10683266847E+02 -0.25296425757E+02  0.25966671599E+02  0.37792980572E+02  0.00000000000E+00 0. -1.
</event>
<event>
 7    1  0.2564986E-009  0.2032531E+03  0.7561462E-02  0.1147023E+00
          2   -1    0    0  501    0  0.00000000000E+00  0.00000000000E+00  0.61154946628E+03  0.61154946628E+03  0.00000000000E+00 0. -1.
         -2   -1    0    0    0  501 -0.00000000000E+00 -0.00000000000E+00 -0.74583204289E+02  0.74583204289E+02  0.00000000000E+00 0.  1.
         25    2    1    2    0    0 -0.10043728780E+03 -0.14633341822E+03  0.20803234127E+03  0.30071041813E+03  0.12509269558E+03 0.  0.
          5    1    3    3  502    0 -0.11782232696E+03 -0.15401721945E+03  0.20266018661E+03  0.28052099432E+03  0.41800000000E+01 0. -1.
         -5    1    3    3    0  502  0.17385039159E+02  0.76838012276E+01  0.53721546506E+01  0.20189423802E+02  0.41800000000E+01 0. -1.
        -11    1    1    2    0    0  0.11191465548E+03  0.11858909763E+03  0.30899616398E+03  0.34938072864E+03  0.00000000000E+00 0. -1.
         11    1    1    2    0    0 -0.11477367683E+02  0.27744320595E+02  0.19937756745E+02  0.36041523805E+02  0.00000000000E+00 0.  1.
</event>
<event>
 7    1  0.2564986E-009  0.8917076E+02  0.7561462E-02  0.1304872E+00
         -2   -1    0    0    0  501 -0.00000000000E+00  0.00000000000E+00  0.72953387249E+02  0.72953387249E+02  0.00000000000E+00 0.  1.
          2   -1    0    0  501    0  0.00000000000E+00 -0.00000000000E+00 -0.20459788582E+03  0.20459788582E+03  0.00000000000E+00 0. -1.
         25    2    1    2    0    0 -0.42816676714E+02 -0.21175115620E+02 -0.43779023273E+02  0.14086940311E+03  0.12508370208E+03 0.  0.
          5    1    3    3  502    0 -0.58889003307E+02  0.31261295259E+02 -0.52776149185E+02  0.85135055145E+02  0.41800000000E+01 0. -1.
         -5    1    3    3    0  502  0.16072326593E+02 -0.52436410879E+02  0.89971259114E+01  0.55734347961E+02  0.41800000000E+01 0. -1.
        -11    1    1    2    0    0  0.24949366350E+02 -0.44024891031E+01 -0.10003425353E+03  0.10319256112E+03  0.00000000000E+00 0. -1.
         11    1    1    2    0    0  0.17867310365E+02  0.25577604723E+02  0.12168778232E+02  0.33489308842E+02  0.00000000000E+00 0.  1.
</event>
<event>
 7    1  0.2564986E-009  0.1050743E+03  0.7561462E-02  0.1269973E+00
          1   -1    0    0  501    0  0.00000000000E+00  0.00000000000E+00  0.37209622349E+02  0.37209622349E+02  0.00000000000E+00 0. -1.
         -1   -1    0    0    0  501 -0.00000000000E+00 -0.00000000000E+00 -0.40125702999E+03  0.40125702999E+03  0.00000000000E+00 0.  1.
         25    2    1    2    0    0  0.47258405760E+02  0.23356067304E+02 -0.17757657967E+03  0.22351735120E+03  0.12509077441E+03 0.  0.
          5    1    3    3  502    0  0.65210618823E+02 -0.23899513382E+02 -0.15098721722E+03  0.16624747731E+03  0.41800000000E+01 0.  1.
         -5    1    3    3    0  502 -0.17952213063E+02  0.47255580686E+02 -0.26589362451E+02  0.57269873890E+02  0.41800000000E+01 0.  1.
        -11    1    1    2    0    0  0.19517436729E+02 -0.92482962974E+01 -0.66283900193E+01  0.22591964835E+02  0.00000000000E+00 0. -1.
         11    1    1    2    0    0 -0.66775842489E+02 -0.14107771006E+02 -0.17984243795E+03  0.19235733630E+03  0.00000000000E+00 0.  1.
</event>
<event>
 7    1  0.2564986E-009  0.1078364E+03  0.7561462E-02  0.1264630E+00
          2   -1    0    0  501    0  0.00000000000E+00  0.00000000000E+00  0.11552122133E+03  0.11552122133E+03  0.00000000000E+00 0.  1.
         -2   -1    0    0    0  501 -0.00000000000E+00 -0.00000000000E+00 -0.11851236085E+03  0.11851236085E+03  0.00000000000E+00 0. -1.
         25    2    1    2    0    0  0.31911322389E+02  0.30083148102E+02 -0.86586029238E+01  0.13284495831E+03  0.12509789465E+03 0.  0.
          5    1    3    3  502    0  0.65022645306E+02  0.48152572347E+02 -0.33299713652E+02  0.87595422001E+02  0.41800000000E+01 0.  1.
         -5    1    3    3    0  502 -0.33111322917E+02 -0.18069424245E+02  0.24641110729E+02  0.45249536305E+02  0.41800000000E+01 0.  1.
        -11    1    1    2    0    0  0.43784827039E+01  0.27931222797E+02 -0.11686964144E+02  0.30592637164E+02  0.00000000000E+00 0. -1.
         11    1    1    2    0    0 -0.36289805093E+02 -0.58014370899E+02  0.17354427548E+02  0.70595986713E+02  0.00000000000E+00 0.  1.
</event>
<event>
 7    1  0.2564986E-009  0.1635675E+03  0.7561462E-02  0.1184727E+00
          1   -1    0    0  501    0  0.00000000000E+00  0.00000000000E+00  0.12099510579E+04  0.12099510579E+04  0.00000000000E+00 0. -1.
         -1   -1    0    0    0  501 -0.00000000000E+00 -0.00000000000E+00 -0.24121909860E+02  0.24121909860E+02  0.00000000000E+00 0.  1.
         25    2    1    2    0    0  0.12698781750E+03 -0.16112423149E+02  0.75418191835E+03  0.77512770625E+03  0.12508828508E+03 0.  0.
          5    1    3    3  502    0  0.94038518116E+02  0.45014134380E+02  0.35844475036E+03  0.37332241647E+03  0.41800000000E+01 0. -1.
         -5    1    3    3    0  502  0.32949299387E+02 -0.61126557529E+02  0.39573716799E+03  0.40180528978E+03  0.41800000000E+01 0. -1.
        -11    1    1    2    0    0 -0.10734723178E+03 -0.22706473623E+02  0.34434998748E+03  0.36140825391E+03  0.00000000000E+00 0.  1.
         11    1    1    2    0    0 -0.19640585717E+02  0.38818896772E+02  0.87297242241E+02  0.97537007627E+02  0.00000000000E+00 0. -1.
</event>
<event>
 7    1  0.2564986E-009  0.1031810E+03  0.7561462E-02  0.1273745E+00
          1   -1    0    0  501    0  0.00000000000E+00  0.00000000000E+00  0.12745227312E+03  0.12745227312E+03  0.00000000000E+00 0. -1.
         -1   -1    0    0    0  501 -0.00000000000E+00 -0.00000000000E+00 -0.12872573848E+03  0.12872573848E+03  0.00000000000E+00 0.  1.
         25    2    1    2    0    0  0.66049348910E+02  0.97994148434E+01 -0.11508269210E+02  0.14225550713E+03  0.12508254884E+03 0.  0.
          5    1    3    3  502    0 -0.30501752657E+02  0.61191120775E+01  0.23703123306E+02  0.39333330678E+02  0.41800000000E+01 0. -1.
         -5    1    3    3    0  502  0.96551101567E+02  0.36803027659E+01 -0.35211392516E+02  0.10292217645E+03  0.41800000000E+01 0. -1.
        -11    1    1    2    0    0 -0.28901927265E+02  0.15998681321E+02  0.45741412160E+02  0.56423009402E+02  0.00000000000E+00 0. -1.
         11    1    1    2    0    0 -0.37147421644E+02 -0.25798096164E+02 -0.35506608307E+02  0.57499495076E+02  0.00000000000E+00 0.  1.
</event>
<event>
 7    1  0.2564986E-009  0.1191343E+03  0.7561462E-02  0.1244532E+00
          1   -1    0    0  501    0  0.00000000000E+00  0.00000000000E+00  0.71092305784E+02  0.71092305784E+02  0.00000000000E+00 0. -1.
         -1   -1    0    0    0  501 -0.00000000000E+00 -0.00000000000E+00 -0.32712087651E+03  0.32712087651E+03  0.00000000000E+00 0.  1.
         25    2    1    2    0    0  0.44376757671E+02 -0.65948095392E+02 -0.44850367654E+02  0.15484535228E+03  0.12508828776E+03 0.  0.
          5    1    3    3  502    0  0.60911857778E+02 -0.78305786643E+02 -0.70410414048E+02  0.12172571399E+03  0.41800000000E+01 0. -1.
         -5    1    3    3    0  502 -0.16535100107E+02  0.12357691251E+02  0.25560046394E+02  0.33119638287E+02  0.41800000000E+01 0. -1.
        -11    1    1    2    0    0 -0.10372191826E+02  0.80325676038E+02 -0.11780621089E+03  0.14296188275E+03  0.00000000000E+00 0. -1.
         11    1    1    2    0    0 -0.34004565845E+02 -0.14377580647E+02 -0.93371992178E+02  0.10040594727E+03  0.00000000000E+00 0.  1.
</event>
<event>
 7    1  0.2564986E-009  0.8606218E+02  0.7561462E-02  0.1312678E+00
         -1   -1    0    0    0  501 -0.00000000000E+00  0.00000000000E+00  0.34384650078E+02  0.34384650078E+02  0.00000000000E+00 0.  1.
          1   -1    0    0  501    0  0.00000000000E+00 -0.00000000000E+00 -0.39841439834E+03  0.39841439834E+03  0.00000000000E+00 0. -1.
         25    2    1    2    0    0  0.11874049130E+02  0.51453858072E+02 -0.28129036249E+03  0.31234861576E+03  0.12509555222E+03 0.  0.
          5    1    3    3  502    0 -0.35524278228E+02  0.54411414398E+02 -0.24188755886E+03  0.25049878222E+03  0.41800000000E+01 0. -1.
         -5    1    3    3    0  502  0.47398327358E+02 -0.29575563262E+01 -0.39402803627E+02  0.61849833544E+02  0.41800000000E+01 0. -1.
        -11    1    1    2    0    0 -0.20425885910E+02 -0.41178065782E+02 -0.92905963235E+02  0.10365504291E+03  0.00000000000E+00 0. -1.
         11    1    1    2    0    0  0.85518367802E+01 -0.10275792290E+02  0.10166577459E+02  0.16795389747E+02  0.00000000000E+00 0.  1.
</event>
<event>
 7    1  0.2564986E-009  0.1455064E+03  0.7561462E-02  0.1206106E+00
         -2   -1    0    0    0  501 -0.00000000000E+00  0.00000000000E+00  0.23963263097E+03  0.23963263097E+03  0.00000000000E+00 0.  1.
          2   -1    0    0  501    0  0.00000000000E+00 -0.00000000000E+00 -0.15545220211E+03  0.15545220211E+03  0.00000000000E+00 0. -1.
         25    2    1    2    0    0 -0.11247377422E+03  0.51953397992E+02 -0.59068359686E+02  0.18570052970E+03  0.12508441215E+03 0.  0.
          5    1    3    3  502    0 -0.73715060932E+02  0.80498771163E+02 -0.77559317785E+02  0.13396597532E+03  0.41800000000E+01 0. -1.
         -5    1    3    3    0  502 -0.38758713292E+02 -0.28545373172E+02  0.18490958099E+02  0.51734554381E+02  0.41800000000E+01 0. -1.
        -11    1    1    2    0    0  0.87375380861E+02 -0.61243922140E+02  0.61036687577E+02  0.12292580042E+03  0.00000000000E+00 0. -1.
         11    1    1    2    0    0  0.25098393363E+02  0.92905241487E+01  0.82212100970E+02  0.86458502962E+02  0.00000000000E+00 0.  1.
</event>
<event>
 7    1  0.2564986E-009  0.1069937E+03  0.7561462E-02  0.1266241E+00
         -1   -1    0    0    0  501 -0.00000000000E+00  0.00000000000E+00  0.31821354159E+02  0.31821354159E+02  0.00000000000E+00 0.  1.
          1   -1    0    0  501    0  0.00000000000E+00 -0.00000000000E+00 -0.42906401969E+03  0.42906401969E+03  0.00000000000E+00 0. -1.
         25    2    1    2    0    0  0.19808827348E+02 -0.49579663565E+01 -0.15762456913E+03  0.20226471998E+03  0.12509412890E+03 0.  0.
          5    1    3    3  502    0  0.40027109137E+02 -0.53017248148E+02 -0.52241595197E+02  0.84614743017E+02  0.41800000000E+01 0. -1.
         -5    1    3    3    0  502 -0.20218281789E+02  0.48059281791E+02 -0.10538297393E+03  0.11764997696E+03  0.41800000000E+01 0. -1.
        -11    1    1    2    0    0 -0.30559347262E+02 -0.39181388946E+02 -0.15215017951E+03  0.16005852701E+03  0.00000000000E+00 0. -1.
         11    1    1    2    0    0  0.10750519915E+02  0.44139355303E+02 -0.87467916892E+02  0.98562126856E+02  0.00000000000E+00 0.  1.
</event>
<event>
 7    1  0.2564986E-009  0.1176180E+03  0.7561462E-02  0.1247079E+00
         -2   -1    0    0    0  501 -0.00000000000E+00  0.00000000000E+00  0.21327896719E+02  0.21327896719E+02  0.00000000000E+00 0.  1.
          2   -1    0    0  501    0  0.00000000000E+00 -0.00000000000E+00 -0.93485549528E+03  0.93485549528E+03  0.00000000000E+00 0. -1.
         25    2    1    2    0    0 -0.30984179325E+02 -0.48640410926E+02 -0.71772404057E+03  0.73082291548E+03  0.12509367063E+03 0.  0.
          5    1    3    3  502    0 -0.10290864384E+02 -0.85459997055E+02 -0.34123141356E+03  0.35194553980E+03  0.41800000000E+01 0. -1.
         -5    1    3    3    0  502 -0.20693314941E+02  0.36819586129E+02 -0.37649262701E+03  0.37887737568E+03  0.41800000000E+01 0. -1.
        -11    1    1    2    0    0 -0.44470104425E+01 -0.24735536442E+02 -0.79319931386E+02  0.83206214792E+02  0.00000000000E+00 0.  1.
         11    1    1    2    0    0  0.35431189768E+02  0.73375947369E+02 -0.11648362661E+03  0.14215426173E+03  0.00000000000E+00 0. -1.
</event>
<event>
 7    1  0.2564986E-009  0.1153987E+03  0.7561462E-02  0.1250887E+00
          2   -1    0    0  501    0  0.00000000000E+00  0.00000000000E+00  0.85909092399E+02  0.85909092399E+02  0.00000000000E+00 0.  1.
         -2   -1    0    0    0  501 -0.00000000000E+00 -0.00000000000E+00 -0.16623201727E+03  0.16623201727E+03  0.00000000000E+00 0. -1.
         25    2    1    2    0    0  0.24317057523E+02 -0.49656287277E+02 -0.38692912272E+02  0.14213308205E+03  0.12509038892E+03 0.  0.
          5    1    3    3  502    0  0.68678495436E+02 -0.55026928008E+02 -0.95464425295E+01  0.88618877822E+02  0.41800000000E+01 0.  1.
         -5    1    3    3    0  502 -0.44361437913E+02  0.53706407311E+01 -0.29146469743E+02  0.53514204227E+02  0.41800000000E+01 0.  1.
        -11    1    1    2    0    0  0.64540123374E+01 -0.20347008905E+02 -0.22846863975E+02  0.31267143140E+02  0.00000000000E+00 0.  1.
         11    1    1    2    0    0 -0.30771069861E+02  0.70003296182E+02 -0.18783148624E+02  0.78740884482E+02  0.00000000000E+00 0. -1.
</event>
<event>
 7    1  0.2564986E-009  0.1069547E+03  0.7561462E-02  0.1266316E+00
         -1   -1    0    0    0  501 -0.00000000000E+00  0.00000000000E+00  0.21232860584E+03  0.21232860584E+03  0.00000000000E+00 0.  1.
          1   -1    0    0  501    0  0.00000000000E+00 -0.00000000000E+00 -0.76003862457E+02  0.76003862457E+02  0.00000000000E+00 0. -1.
         25    2    1    2    0    0  0.60834678134E+02  0.23757096927E+02  0.81745210152E+02  0.16307677041E+03  0.12508595423E+03 0.  0.
          5    1    3    3  502    0 -0.13842092141E+01  0.38022619533E+02 -0.19774827728E+02  0.43083080705E+02  0.41800000000E+01 0.  1.
         -5    1    3    3    0  502  0.62218887349E+02 -0.14265522607E+02  0.10152003788E+03  0.11999368971E+03  0.41800000000E+01 0.  1.
        -11    1    1    2    0    0 -0.84774519056E+02 -0.14554135080E+02  0.49054172153E+02  0.99019461394E+02  0.00000000000E+00 0.  1.
         11    1    1    2    0    0  0.23939840921E+02 -0.92029618469E+01  0.55253610752E+01  0.26236236489E+02  0.00000000000E+00 0. -1.
</event>
<event>
 7    1  0.2564986E-009  0.9648620E+02  0.7561462E-02  0.1287863E+00
          2   -1    0    0  501    0  0.00000000000E+00  0.00000000000E+00  0.39712141826E+03  0.39712141826E+03  0.00000000000E+00 0. -1.
         -2   -1    0    0    0  501 -0.00000000000E+00 -0.00000000000E+00 -0.26560195893E+02  0.26560195893E+02  0.00000000000E+00 0.  1.
         25    2    1    2    0    0 -0.18771355305E+02  0.19415814285E+02  0.23269411516E+03  0.26555900657E+03  0.12508276108E+03 0.  0.
          5    1    3    3  502    0 -0.22575280179E+02 -0.47788915434E+02  0.14852013991E+03  0.15769948659E+03  0.41800000000E+01 0. -1.
         -5    1    3    3    0  502  0.38039248739E+01  0.67204729719E+02  0.84173975247E+02  0.10785951998E+03  0.41800000000E+01 0. -1.
        -11    1    1    2    0    0  0.70438402148E+01 -0.44377589064E+02  0.11042272217E+03  0.11921477957E+03  0.00000000000E+00 0. -1.
         11    1    1    2    0    0  0.11727515090E+02  0.24961774780E+02  0.27444385045E+02  0.38907828015E+02  0.00000000000E+00 0.  1.
</event>
<event>
 7    1  0.2564986E-009  0.1020626E+03  0.7561462E-02  0.1276017E+00
          1   -1    0    0  501    0  0.00000000000E+00  0.00000000000E+00  0.94941879466E+03  0.94941879466E+03  0.00000000000E+00 0. -1.
         -1   -1    0    0    0  501 -0.00000000000E+00 -0.00000000000E+00 -0.12053492395E+02  0.12053492395E+02  0.00000000000E+00 0.  1.
         25    2    1    2    0    0  0.27019266273E+02  0.29523224850E+02  0.56473652965E+03  0.57980755252E+03  0.12509112071E+03 0.  0.
          5    1    3    3  502    0 -0.31009686574E+02  0.51111415026E+02  0.38555012622E+03  0.39017989394E+03  0.41800000000E+01 0. -1.
         -5    1    3    3    0  502  0.58028952848E+02 -0.21588190176E+02  0.17918640343E+03  0.18962765858E+03  0.41800000000E+01 0. -1.
        -11    1    1    2    0    0 -0.37439127828E+02  0.12011852863E+02  0.19757906041E+03  0.20145336436E+03  0.00000000000E+00 0. -1.
         11    1    1    2    0    0  0.10419861554E+02 -0.41535077713E+02  0.17504971221E+03  0.18021137017E+03  0.00000000000E+00 0.  1.
</event>
<event>
 7    1  0.2564986E-009  0.7779616E+02  0.7561462E-02  0.1335425E+00
          1   -1    0    0  501    0  0.00000000000E+00  0.00000000000E+00  0.46918212385E+02  0.46918212385E+02  0.00000000000E+00 0. -1.
         -1   -1    0    0    0  501 -0.00000000000E+00 -0.00000000000E+00 -0.38331536212E+03  0.38331536212E+03  0.00000000000E+00 0.  1.
         25    2    1    2    0    0  0.56552437106E+02  0.13437823889E+02 -0.27120630137E+03  0.30426792335E+03  0.12508940011E+03 0.  0.
          5    1    3    3  502    0  0.70196535755E+02  0.19239763400E+02 -0.27802273189E+03  0.28742274436E+03  0.41800000000E+01 0.  1.
         -5    1    3    3    0  502 -0.13644098649E+02 -0.58019395107E+01  0.68164305195E+01  0.16845178986E+02  0.41800000000E+01 0.  1.
        -11    1    1    2    0    0 -0.13858807230E+02  0.11351161179E+02 -0.73720457126E+02  0.75865810461E+02  0.00000000000E+00 0.  1.
         11    1    1    2    0    0 -0.42693629876E+02 -0.24788985069E+02  0.85296087593E+01  0.50099840701E+02  0.00000000000E+00 0. -1.
</event>
<event>
 7    1  0.2564986E-009  0.1323037E+03  0.7561462E-02  0.1224077E+00
          1   -1    0    0  501    0  0.00000000000E+00  0.00000000000E+00  0.49044690333E+03  0.49044690333E+03  0.00000000000E+00 0. -1.
         -1   -1    0    0    0  501 -0.00000000000E+00 -0.00000000000E+00 -0.62039862987E+02  0.62039862987E+02  0.00000000000E+00 0.  1.
         25    2    1    2    0    0  0.89271292195E+02 -0.20504734496E+02  0.67294294344E+02  0.16901318169E+03  0.12508847184E+03 0.  0.
          5    1    3    3  502    0  0.11114112540E+03 -0.22672348157E+02  0.18060134831E+02  0.11493487720E+03  0.41800000000E+01 0. -1.
         -5    1    3    3    0  502 -0.21869833207E+02  0.21676136606E+01  0.49234159513E+02  0.54078304489E+02  0.41800000000E+01 0. -1.
        -11    1    1    2    0    0 -0.55548770414E+02  0.56619121879E+02  0.23509913260E+03  0.24811890900E+03  0.00000000000E+00 0.  1.
         11    1    1    2    0    0 -0.33722521781E+02 -0.36114387383E+02  0.12601361340E+03  0.13535467562E+03  0.00000000000E+00 0. -1.
</event>
<event>
 7    1  0.2564986E-009  0.1212985E+03  0.7561462E-02  0.1240970E+00
         -2   -1    0    0    0  501 -0.00000000000E+00  0.00000000000E+00  0.80323533784E+02  0.80323533784E+02  0.00000000000E+00 0.  1.
          2   -1    0    0  501    0  0.00000000000E+00 -0.00000000000E+00 -0.26132834615E+03  0.26132834615E+03  0.00000000000E+00 0. -1.
         25    2    1    2    0    0  0.45559496986E+02  0.48602609870E+02 -0.18163047946E+03  0.23038209544E+03  0.12509355450E+03 0.  0.
          5    1    3    3  502    0  0.72239957878E+02  0.73421366382E+02 -0.14965164728E+03  0.18172065510E+03  0.41800000000E+01 0.  1.
         -5    1    3    3    0  502 -0.26680460892E+02 -0.24818756511E+02 -0.31978832179E+02  0.48661440337E+02  0.41800000000E+01 0.  1.
        -11    1    1    2    0    0 -0.31145525159E+01 -0.59040857629E+02 -0.20691338686E+02  0.62639083674E+02  0.00000000000E+00 0. -1.
         11    1    1    2    0    0 -0.42444944470E+02  0.10438247759E+02  0.21317005779E+02  0.48630700824E+02  0.00000000000E+00 0.  1.
</event>
<event>
 7    1  0.2564986E-009  0.1614167E+03  0.7561462E-02  0.1187107E+00
         -2   -1    0    0    0  501 -0.00000000000E+00  0.00000000000E+00  0.25017430763E+02  0.25017430763E+02  0.00000000000E+00 0. -1.
          2   -1    0    0  501    0  0.00000000000E+00 -0.00000000000E+00 -0.12436381915E+04  0.12436381915E+04  0.00000000000E+00 0.  1.
         25    2    1    2    0    0  0.12502919547E+03 -0.39334136133E+02 -0.80496328131E+03  0.82510103238E+03  0.12508539235E+03 0.  0.
          5    1    3    3  502    0  0.22165598794E+02 -0.54730977795E+02 -0.48576290317E+03  0.48935658185E+03  0.41800000000E+01 0. -1.
         -5    1    3    3    0  502  0.10286359668E+03  0.15396841662E+02 -0.31920037814E+03  0.33574445053E+03  0.41800000000E+01 0. -1.
        -11    1    1    2    0    0 -0.10069253555E+03 -0.13288276613E+02 -0.24535930852E+03  0.26554991110E+03  0.00000000000E+00 0.  1.
         11    1    1    2    0    0 -0.24336659917E+02  0.52622412746E+02 -0.16829817095E+03  0.17800467883E+03  0.00000000000E+00 0. -1.
</event>
<event>
 7    1  0.2564986E-009  0.1533946E+03  0.7561462E-02  0.1196363E+00
         -2   -1    0    0    0  501 -0.00000000000E+00  0.00000000000E+00  0.80034965918E+02  0.80034965918E+02  0.00000000000E+00 0.  1.
          2   -1    0    0  501    0  0.00000000000E+00 -0.00000000000E+00 -0.39096332180E+03  0.39096332180E+03  0.00000000000E+00 0. -1.
         25    2    1    2    0    0  0.89627531174E+01 -0.94212313876E+02 -0.16662893700E+03  0.22884482158E+03  0.12509379955E+03 0.  0.
          5    1    3    3  502    0  0.21969813290E+02 -0.98775334209E+02 -0.52997692144E+02  0.11430427427E+03  0.41800000000E+01 0. -1.
         -5    1    3    3    0  502 -0.13007060173E+02  0.45630203323E+01 -0.11363124486E+03  0.11454054731E+03  0.41800000000E+01 0. -1.
        -11    1    1    2    0    0  0.34111760102E+02 -0.38584723253E+02 -0.20064878710E+02  0.55271985702E+02  0.00000000000E+00 0. -1.
         11    1    1    2    0    0 -0.43074513219E+02  0.13279703713E+03 -0.12423454016E+03  0.18688148043E+03  0.00000000000E+00 0.  1.
</event>
<event>
 7    1  0.2564986E-009  0.1094992E+03  0.7561462E-02  0.1261500E+00
          2   -1    0    0  501    0  0.00000000000E+00  0.00000000000E+00  0.47131841534E+03  0.47131841534E+03  0.00000000000E+00 0. -1.
         -2   -1    0    0    0  501 -0.00000000000E+00 -0.00000000000E+00 -0.28825970549E+02  0.28825970549E+02  0.00000000000E+00 0.  1.
         25    2    1    2    0    0 -0.17743667972E+02 -0.38947958124E+02  0.27018685164E+03  0.30080334666E+03  0.12509970972E+03 0.  0.
          5    1    3    3  502    0  0.30462585102E+02 -0.59644636049E+02  0.85067280696E+02  0.10834835645E+03  0.41800000000E+01 0.  1.
         -5    1    3    3    0  502 -0.48206253075E+02  0.20696677925E+02  0.18511957094E+03  0.19245499021E+03  0.41800000000E+01 0.  1.
        -11    1    1    2    0    0 -0.21864019828E+02  0.52926629390E+02  0.85465871897E+02  0.10287700774E+03  0.00000000000E+00 0.  1.
         11    1    1    2    0    0  0.39607687800E+02 -0.13978671265E+02  0.86839721256E+02  0.96464031489E+02  0.00000000000E+00 0. -1.
</event>
<event>
 7    1  0.2564986E-009  0.1955253E+03  0.7561462E-02  0.1153570E+00
         -2   -1    0    0    0  501 -0.00000000000E+00  0.00000000000E+00  0.34958816461E+02  0.34958816461E+02  0.00000000000E+00 0.  1.
          2   -1    0    0  501    0  0.00000000000E+00 -0.00000000000E+00 -0.14352361782E+04  0.14352361782E+04  0.00000000000E+00 0. -1.
         25    2    1    2    0    0  0.12526449877E+03  0.12022323788E+03 -0.10227186531E+04  0.10448657551E+04  0.12508469639E+03 0.  0.
          5    1    3    3  502    0 -0.48220118395E+01 -0.15283258701E+02 -0.27785407855E+02  0.32347041354E+02  0.41800000000E+01 0.  1.
         -5    1    3    3    0  502  0.13008651061E+03  0.13550649658E+03 -0.99493324522E+03  0.10125187138E+04  0.41800000000E+01 0.  1.
        -11    1    1    2    0    0 -0.56065848931E+02 -0.99766922391E+02 -0.16457564406E+03  0.20045438593E+03  0.00000000000E+00 0.  1.
         11    1    1    2    0    0 -0.69198649842E+02 -0.20456315489E+02 -0.21298306456E+03  0.22487485358E+03  0.00000000000E+00 0. -1.
</event>
<event>
 7    1  0.2564986E-009  0.1302520E+03  0.7561462E-02  0.1227082E+00
         -2   -1    0    0    0  501 -0.00000000000E+00  0.00000000000E+00  0.60678916752E+02  0.60678916752E+02  0.00000000000E+00 0.  1.
          2   -1    0    0  501    0  0.00000000000E+00 -0.00000000000E+00 -0.42571779910E+03  0.42571779910E+03  0.00000000000E+00 0. -1.
         25    2    1    2    0    0 -0.66220675748E+02 -0.77408253620E+02 -0.28811618080E+03  0.33020547824E+03  0.12509000196E+03 0.  0.
          5    1    3    3  502    0 -0.96736216104E+02 -0.77512665703E+02 -0.26179650074E+03  0.28969119602E+03  0.41800000000E+01 0.  1.
         -5    1    3    3    0  502  0.30515540356E+02  0.10441208234E+00 -0.26319680064E+02  0.40514282219E+02  0.41800000000E+01 0.  1.
        -11    1    1    2    0    0  0.52234760970E+02  0.75127563538E+02 -0.95871941668E+02  0.13252943166E+03  0.00000000000E+00 0. -1.
         11    1    1    2    0    0  0.13985914779E+02  0.22806900821E+01  0.18949240128E+02  0.23661805951E+02  0.00000000000E+00 0.  1.
</event>
<event>
 7    1  0.2564986E-009  0.1561464E+03  0.7561462E-02  0.1193117E+00
          2   -1    0    0  501    0  0.00000000000E+00  0.00000000000E+00  0.48725435672E+03  0.48725435672E+03  0.00000000000E+00 0. -1.
         -2   -1    0    0    0  501 -0.00000000000E+00 -0.00000000000E+00 -0.55961262844E+02  0.55961262844E+02  0.00000000000E+00 0.  1.
         25    2    1    2    0    0  0.11348610616E+03 -0.54076060557E+02  0.26273954928E+03  0.31699184136E+03  0.12509372535E+03 0.  0.
          5    1    3    3  502    0  0.65929383583E+02  0.35930674712E+02  0.10312445270E+03  0.12763158758E+03  0.41800000000E+01 0. -1.
         -5    1    3    3    0  502  0.47556722572E+02 -0.90006735269E+02  0.15961509658E+03  0.18936025378E+03  0.41800000000E+01 0. -1.
        -11    1    1    2    0    0 -0.17176323995E+02  0.32124555184E+02  0.73491053245E+01  0.37162111092E+02  0.00000000000E+00 0.  1.
         11    1    1    2    0    0 -0.96309782160E+02  0.21951505373E+02  0.16120443927E+03  0.18906166710E+03  0.00000000000E+00 0. -1.
</event>
<event>
 7    1  0.2564986E-009  0.8213105E+02  0.7561462E-02  0.1323110E+00
         -1   -1    0    0    0  501 -0.00000000000E+00  0.00000000000E+00  0.22360401427E+03  0.22360401427E+03  0.00000000000E+00 0.  1.
          1   -1    0    0  501    0  0.00000000000E+00 -0.00000000000E+00 -0.56271278069E+02  0.56271278069E+02  0.00000000000E+00 0. -1.
         25    2    1    2    0    0  0.13552563820E+02 -0.25334438210E+02  0.11054868129E+03  0.16939254170E+03  0.12508923416E+03 0.  0.
          5    1    3    3  502    0 -0.17037095885E+02  0.32134506530E+02 -0.47495907222E+01  0.36917748552E+02  0.41800000000E+01 0. -1.
         -5    1    3    3    0  502  0.30589659705E+02 -0.57468944740E+02  0.11529827201E+03  0.13247479314E+03  0.41800000000E+01 0. -1.
        -11    1    1    2    0    0  0.10876075110E+02  0.34613869984E+02 -0.10936897206E+02  0.37894916883E+02  0.00000000000E+00 0. -1.
         11    1    1    2    0    0 -0.24428638929E+02 -0.92794317738E+01  0.67720952120E+02  0.72587833760E+02  0.00000000000E+00 0.  1.
</event>
<event>
 7    1  0.2564986E-009  0.1205756E+03  0.7561462E-02  0.1242151E+00
          1   -1    0    0  501    0  0.00000000000E+00  0.00000000000E+00  0.96699477213E+02  0.96699477213E+02  0.00000000000E+00 0.  1.
         -1   -1    0    0    0  501 -0.00000000000E+00 -0.00000000000E+00 -0.28416808005E+03  0.28416808005E+03  0.00000000000E+00 0. -1.
         25    2    1    2    0    0  0.16145855519E+00  0.88680073220E+02 -0.20279500682E+03  0.25424006195E+03  0.12509201754E+03 0.  0.
          5    1    3    3  502    0  0.18033826841E+02 -0.25895694710E+02 -0.19582983836E+02  0.37373407270E+02  0.41800000000E+01 0. -1.
         -5    1    3    3    0  502 -0.17872368286E+02  0.11457576793E+03 -0.18321202299E+03  0.21686665468E+03  0.41800000000E+01 0. -1.
        -11    1    1    2    0    0  0.89075448951E+01 -0.80736701744E+02 -0.24640584667E+02  0.84881787077E+02  0.00000000000E+00 0. -1.
         11    1    1    2    0    0 -0.90690034503E+01 -0.79433714758E+01  0.39966988655E+02  0.41745708236E+02  0.00000000000E+00 0.  1.
</event>
<event>
 7    1  0.2564986E-009  0.1160255E+03  0.7561462E-02  0.1249802E+00
          2   -1    0    0  501    0  0.00000000000E+00  0.00000000000E+00  0.68775604692E+03  0.68775604692E+03  0.00000000000E+00 0. -1.
         -2   -1    0    0    0  501 -0.00000000000E+00 -0.00000000000E+00 -0.28971567157E+02  0.28971567157E+02  0.00000000000E+00 0.  1.
         25    2    1    2    0    0 -0.50728902588E+01 -0.57011946868E+02  0.53026887875E+03  0.54782182611E+03  0.12509025979E+03 0.  0.
          5    1    3    3  502    0  0.47052295149E+02 -0.69000238867E+02  0.30532349058E+03  0.31656730365E+03  0.41800000000E+01 0.  1.
         -5    1    3    3    0  502 -0.52125185408E+02  0.11988291999E+02  0.22494538817E+03  0.23125452246E+03  0.41800000000E+01 0.  1.
        -11    1    1    2    0    0 -0.15117717499E+02 -0.14212898439E+02  0.18269053080E+00  0.20750547951E+02  0.00000000000E+00 0.  1.
         11    1    1    2    0    0  0.20190607758E+02  0.71224845307E+02  0.12833291048E+03  0.14815524001E+03  0.00000000000E+00 0. -1.
</event>
<event>
 7    1  0.2564986E-009  0.1479650E+03  0.7561462E-02  0.1202996E+00
          2   -1    0    0  501    0  0.00000000000E+00  0.00000000000E+00  0.59889592259E+03  0.59889592259E+03  0.00000000000E+00 0. -1.
         -2   -1    0    0    0  501 -0.00000000000E+00 -0.00000000000E+00 -0.50879445785E+02  0.50879445785E+02  0.00000000000E+00 0.  1.
         25    2    1    2    0    0  0.90192492076E+02  0.95654683339E+02  0.22775240382E+03  0.29120907170E+03  0.12508821657E+03 0.  0.
          5    1    3    3  502    0  0.52739489652E+02  0.21395276319E+02  0.98169596425E+01  0.57905584482E+02  0.41800000000E+01 0. -1.
         -5    1    3    3    0  502  0.37453002424E+02  0.74259407020E+02  0.21793544417E+03  0.23330348722E+03  0.41800000000E+01 0. -1.
        -11    1    1    2    0    0 -0.67381034552E+02 -0.11448452019E+02  0.18878333603E+03  0.20077454727E+03  0.00000000000E+00 0.  1.
         11    1    1    2    0    0 -0.22811457524E+02 -0.84206231320E+02  0.13148073697E+03  0.15779174941E+03  0.00000000000E+00 0. -1.
</event>
<event>
 7    1  0.2564986E-009  0.1043424E+03  0.7561462E-02  0.1271421E+00
         -1   -1    0    0    0  501 -0.00000000000E+00  0.00000000000E+00  0.29177787275E+02  0.29177787275E+02  0.00000000000E+00 0.  1.
          1   -1    0    0  501    0  0.00000000000E+00 -0.00000000000E+00 -0.90294697121E+03  0.90294697121E+03  0.00000000000E+00 0. -1.
         25    2    1    2    0    0  0.85844389964E+02 -0.45026964643E+02 -0.66903319591E+03  0.68749551980E+03  0.12509190891E+03 0.  0.
          5    1    3    3  502    0  0.11034083434E+02 -0.24825900560E+02 -0.50795983531E+03  0.50870300080E+03  0.41800000000E+01 0.  1.
         -5    1    3    3    0  502  0.74810306531E+02 -0.20201064084E+02 -0.16107336061E+03  0.17879251900E+03  0.41800000000E+01 0.  1.
        -11    1    1    2    0    0 -0.47280183772E+02  0.44646939155E+02 -0.42062947216E+02  0.77447120553E+02  0.00000000000E+00 0. -1.
         11    1    1    2    0    0 -0.38564206193E+02  0.38002548812E+00 -0.16267304080E+03  0.16718211813E+03  0.00000000000E+00 0.  1.
</event>
<event>
 7    1  0.2564986E-009  0.1195627E+03  0.7561462E-02  0.1243820E+00
         -1   -1    0    0    0  501 -0.00000000000E+00  0.00000000000E+00  0.17943400973E+03  0.17943400973E+03  0.00000000000E+00 0.  1.
          1   -1    0    0  501    0  0.00000000000E+00 -0.00000000000E+00 -0.12012318451E+03  0.12012318451E+03  0.00000000000E+00 0. -1.
         25    2    1    2    0    0  0.97113128538E+02  0.55723171407E+01  0.44421877374E+02  0.16456832140E+03  0.12508964293E+03 0.  0.
          5    1    3    3  502    0  0.10039606156E+03 -0.27161236753E+02  0.67595300372E+02  0.12411163922E+03  0.41800000000E+01 0.  1.
         -5    1    3    3    0  502 -0.32829330184E+01  0.32733553894E+02 -0.23173422998E+02  0.40456682182E+02  0.41800000000E+01 0.  1.
        -11    1    1    2    0    0 -0.78910832071E+02 -0.16535944137E+02  0.49331035397E+02  0.94519352092E+02  0.00000000000E+00 0.  1.
         11    1    1    2    0    0 -0.18202296468E+02  0.10963626997E+02 -0.34442087558E+02  0.40469520741E+02  0.00000000000E+00 0. -1.
</event>
<event>
 7    1  0.2564986E-009  0.1259916E+03  0.7561462E-02  0.1233528E+00
          1   -1    0    0  501    0  0.00000000000E+00  0.00000000000E+00  0.16995624190E+03  0.16995624190E+03  0.00000000000E+00 0. -1.
         -1   -1    0    0    0  501 -0.00000000000E+00 -0.00000000000E+00 -0.12114076241E+03  0.12114076241E+03  0.00000000000E+00 0.  1.
         25    2    1    2    0    0 -0.34481919765E+02 -0.85137898833E+02  0.19443460914E+02  0.15640473466E+03  0.12508768222E+03 0.  0.
          5    1    3    3  502    0  0.46709138890E+02 -0.29008066099E+02  0.16538840313E+02  0.57569238257E+02  0.41800000000E+01 0. -1.
         -5    1    3    3    0  502 -0.81191058655E+02 -0.56129832734E+02  0.29046206013E+01  0.98835496403E+02  0.41800000000E+01 0. -1.
        -11    1    1    2    0    0 -0.31579589274E+01  0.36060780462E+02 -0.31446272387E+02  0.47950189146E+02  0.00000000000E+00 0.  1.
         11    1    1    2    0    0  0.37639878692E+02  0.49077118371E+02  0.60818290957E+02  0.86742080506E+02  0.00000000000E+00 0. -1.
</event>
<event>
 7    1  0.2564986E-009  0.1513693E+03  0.7561462E-02  0.1198800E+00
         -1   -1    0    0    0  501 -0.00000000000E+00  0.00000000000E+00  0.15911577887E+02  0.15911577887E+02  0.00000000000E+00 0.  1.
          1   -1    0    0  501    0  0.00000000000E+00 -0.00000000000E+00 -0.15557298890E+04  0.15557298890E+04  0.00000000000E+00 0. -1.
         25    2    1    2    0    0 -0.29820017156E+02  0.11649744825E+03 -0.93947325200E+03  0.95536280960E+03  0.12508883994E+03 0.  0.
          5    1    3    3  502    0 -0.74376662937E+02  0.40882482582E+02 -0.50406593967E+03  0.51117825590E+03  0.41800000000E+01 0.  1.
         -5    1    3    3    0  502  0.44556645781E+02  0.75614965673E+02 -0.43540731233E+03  0.44418455370E+03  0.41800000000E+01 0.  1.
        -11    1    1    2    0    0 -0.13764148686E+02 -0.24600503170E+02 -0.58101152359E+02  0.64578482877E+02  0.00000000000E+00 0.  1.
         11    1    1    2    0    0  0.43584165842E+02 -0.91896945084E+02 -0.54224390680E+03  0.55170017445E+03  0.00000000000E+00 0. -1.
</event>
<event>
 7    1  0.2564986E-009  0.1452859E+03  0.7561462E-02  0.1206388E+00
          3   -1    0    0  501    0  0.00000000000E+00  0.00000000000E+00  0.35535644476E+02  0.35535644476E+02  0.00000000000E+00 0. -1.
         -3   -1    0    0    0  501 -0.00000000000E+00 -0.00000000000E+00 -0.81035186470E+03  0.81035186470E+03  0.00000000000E+00 0.  1.
         25    2    1    2    0    0  0.80113313813E+02 -0.82958373157E+02 -0.56555871857E+03  0.59059514293E+03  0.12508286842E+03 0.  0.
          5    1    3    3  502    0  0.59331832176E+02  0.57072777819E+01 -0.10247365601E+03  0.11862192844E+03  0.41800000000E+01 0.  1.
         -5    1    3    3    0  502  0.20781481637E+02 -0.88665650939E+02 -0.46308506256E+03  0.47197321450E+03  0.41800000000E+01 0.  1.
        -11    1    1    2    0    0 -0.42895138872E+02  0.91865026904E+02 -0.18191159739E+03  0.20825706560E+03  0.00000000000E+00 0.  1.
         11    1    1    2    0    0 -0.37218174940E+02 -0.89066537469E+01 -0.27345904257E+02  0.47035300642E+02  0.00000000000E+00 0. -1.
</event>
<event>
 7    1  0.2564986E-009  0.1326828E+03  0.7561462E-02  0.1223528E+00
          1   -1    0    0  501    0  0.00000000000E+00  0.00000000000E+00  0.18052808543E+03  0.18052808543E+03  0.00000000000E+00 0. -1.
         -1   -1    0    0    0  501 -0.00000000000E+00 -0.00000000000E+00 -0.12851596972E+03  0.12851596972E+03  0.00000000000E+00 0.  1.
         25    2    1    2    0    0  0.63171540386E+01  0.94288602205E+02 -0.24236106377E+02  0.15863660108E+03  0.12509170800E+03 0.  0.
          5    1    3    3  502    0 -0.49900282992E+02  0.60357475812E+02 -0.44013632979E+02  0.89931837617E+02  0.41800000000E+01 0. -1.
         -5    1    3    3    0  502  0.56217437031E+02  0.33931126392E+02  0.19777526603E+02  0.68704763467E+02  0.41800000000E+01 0. -1.
        -11    1    1    2    0    0  0.14622396957E+02 -0.98672460099E+02  0.38311500875E+02  0.10685429319E+03  0.00000000000E+00 0. -1.
         11    1    1    2    0    0 -0.20939550995E+02  0.43838578940E+01  0.37936721215E+02  0.43553160878E+02  0.00000000000E+00 0.  1.
</event>
<event>
 7    1  0.2564986E-009  0.5949542E+02  0.7561462E-02  0.1399962E+00
          3   -1    0    0  501    0  0.00000000000E+00  0.00000000000E+00  0.36200885262E+02  0.36200885262E+02  0.00000000000E+00 0. -1.
         -3   -1    0    0    0  501 -0.00000000000E+00 -0.00000000000E+00 -0.33294221567E+03  0.33294221567E+03  0.00000000000E+00 0.  1.
         25    2    1    2    0    0  0.11937197834E+01  0.17588858941E+02 -0.18641479920E+03  0.22518820581E+03  0.12509379582E+03 0.  0.
          5    1    3    3  502    0  0.25507905442E+02 -0.12219576715E+02 -0.18422745604E+03  0.18643282773E+03  0.41800000000E+01 0.  1.
         -5    1    3    3    0  502 -0.24314185658E+02  0.29808435656E+02 -0.21873431563E+01  0.38755378086E+02  0.41800000000E+01 0.  1.
        -11    1    1    2    0    0 -0.46593792170E+01  0.16651428552E+02  0.91903562039E+01  0.19581688759E+02  0.00000000000E+00 0. -1.
         11    1    1    2    0    0  0.34656594336E+01 -0.34240287493E+02 -0.11951688741E+03  0.12437320635E+03  0.00000000000E+00 0.  1.
</event>
<event>
 7    1  0.2564986E-009  0.1383541E+03  0.7561462E-02  0.1215561E+00
          2   -1    0    0  501    0  0.00000000000E+00  0.00000000000E+00  0.61715980994E+02  0.61715980994E+02  0.00000000000E+00 0. -1.
         -2   -1    0    0    0  501 -0.00000000000E+00 -0.00000000000E+00 -0.33172393308E+03  0.33172393308E+03  0.00000000000E+00 0.  1.
         25    2    1    2    0    0 -0.56070782882E+02  0.74198825970E+02 -0.15198922830E+03  0.21771061872E+03  0.12509112486E+03 0.  0.
          5    1    3    3  502    0  0.24883421418E+02 -0.16392538103E+02 -0.12230580957E+02  0.32480139739E+02  0.41800000000E+01 0. -1.
         -5    1    3    3    0  502 -0.80954204299E+02  0.90591364072E+02 -0.13975864734E+03  0.18523047899E+03  0.41800000000E+01 0. -1.
        -11    1    1    2    0    0 -0.20471193991E+02 -0.31042149114E+02 -0.14415796887E+02  0.39881073267E+02  0.00000000000E+00 0. -1.
         11    1    1    2    0    0  0.76541976873E+02 -0.43156676856E+02 -0.10360292690E+03  0.13584822208E+03  0.00000000000E+00 0.  1.
</event>
<event>
 7    1  0.2564986E-009  0.1637373E+03  0.7561462E-02  0.1184541E+00
         -1   -1    0    0    0  501 -0.00000000000E+00  0.00000000000E+00  0.31099834519E+03  0.31099834519E+03  0.00000000000E+00 0.  1.
          1   -1    0    0  501    0  0.00000000000E+00 -0.00000000000E+00 -0.87360202580E+02  0.87360202580E+02  0.00000000000E+00 0. -1.
         25    2    1    2    0    0 -0.10242117313E+03  0.68150321555E+02  0.13569943600E+03  0.22179802239E+03  0.12508182431E+03 0.  0.
          5    1    3    3  502    0  0.28516316453E+02  0.59526120697E+01  0.14534112620E+02  0.32822655653E+02  0.41800000000E+01 0.  1.
         -5    1    3    3    0  502 -0.13093748959E+03  0.62197709486E+02  0.12116532338E+03  0.18897536674E+03  0.41800000000E+01 0.  1.
        -11    1    1    2    0    0  0.71341302487E+01 -0.56592434917E+02  0.30086228208E+02  0.64488608545E+02  0.00000000000E+00 0. -1.
         11    1    1    2    0    0  0.95287042885E+02 -0.11557886638E+02  0.57852478403E+02  0.11207191683E+03  0.00000000000E+00 0.  1.
</event>
<event>
 7    1  0.2564986E-009  0.8574675E+02  0.7561462E-02  0.1313491E+00
         -1   -1    0    0    0  501 -0.00000000000E+00  0.00000000000E+00  0.39115604741E+02  0.39115604741E+02  0.00000000000E+00 0.  1.
          1   -1    0    0  501    0  0.00000000000E+00 -0.00000000000E+00 -0.30763308610E+03  0.30763308610E+03  0.00000000000E+00 0. -1.
         25    2    1    2    0    0  0.38591006803E+01 -0.14929989919E+02 -0.16113523280E+03  0.20457106455E+03  0.12508780895E+03 0.  0.
          5    1    3    3  502    0 -0.93343668060E+01  0.53233545717E+02 -0.51738442786E+02  0.74935169682E+02  0.41800000000E+01 0.  1.
         -5    1    3    3    0  502  0.13193467486E+02 -0.68163535636E+02 -0.10939679001E+03  0.12963589487E+03  0.41800000000E+01 0.  1.
        -11    1    1    2    0    0 -0.21899976187E+02 -0.32266320986E+01 -0.11368278621E+03  0.11581794331E+03  0.00000000000E+00 0. -1.
         11    1    1    2    0    0  0.18040875507E+02  0.18156622017E+02  0.63005376477E+01  0.26359682980E+02  0.00000000000E+00 0.  1.
</event>
<event>
 7    1  0.2564986E-009  0.1158227E+03  0.7561462E-02  0.1250152E+00
          1   -1    0    0  501    0  0.00000000000E+00  0.00000000000E+00  0.32921371521E+03  0.32921371521E+03  0.00000000000E+00 0. -1.
         -1   -1    0    0    0  501 -0.00000000000E+00 -0.00000000000E+00 -0.60328082219E+02  0.60328082219E+02  0.00000000000E+00 0.  1.
         25    2    1    2    0    0  0.23696542623E+01  0.83010783072E+02  0.97353152176E+02  0.17895037282E+03  0.12509673987E+03 0.  0.
          5    1    3    3  502    0  0.38718676568E+02  0.10039626604E+03  0.83050908958E+02  0.13599070567E+03  0.41800000000E+01 0. -1.
         -5    1    3    3    0  502 -0.36349022306E+02 -0.17385482968E+02  0.14302243219E+02  0.42959667151E+02  0.41800000000E+01 0. -1.
        -11    1    1    2    0    0  0.30967046770E+01 -0.28815134413E+02  0.14875233979E+03  0.15154920041E+03  0.00000000000E+00 0. -1.
         11    1    1    2    0    0 -0.54663589393E+01 -0.54195648659E+02  0.22780141027E+02  0.59042224202E+02  0.00000000000E+00 0.  1.
</event>
<event>
 7    1  0.2564986E-009  0.2441886E+03  0.7561462E-02  0.1117034E+00
         -2   -1    0    0    0  501 -0.00000000000E+00  0.00000000000E+00  0.23164267529E+03  0.23164267529E+03  0.00000000000E+00 0.  1.
          2   -1    0    0  501    0  0.00000000000E+00 -0.00000000000E+00 -0.30582699458E+03  0.30582699458E+03  0.00000000000E+00 0. -1.
         25    2    1    2    0    0  0.18962341594E+03 -0.14472912998E+03 -0.77829773460E+02  0.28037307309E+03  0.12509206824E+03 0.  0.
          5    1    3    3  502    0  0.13329224517E+03 -0.76005787438E+02 -0.10659608652E+03  0.18687937395E+03  0.41800000000E+01 0. -1.
         -5    1    3    3    0  502  0.56331170771E+02 -0.68723342540E+02  0.28766313062E+02  0.93493699132E+02  0.41800000000E+01 0. -1.
        -11    1    1    2    0    0 -0.16565118738E+02  0.40849849533E+02  0.30317651792E+02  0.53500218466E+02  0.00000000000E+00 0.  1.
         11    1    1    2    0    0 -0.17305829721E+03  0.10387928044E+03 -0.26672197625E+02  0.20359637832E+03  0.00000000000E+00 0. -1.
</event>
<event>
 7    1  0.2564986E-009  0.1035752E+03  0.7561462E-02  0.1272953E+00
         -1   -1    0    0    0  501 -0.00000000000E+00  0.00000000000E+00  0.15080049592E+03  0.15080049592E+03  0.00000000000E+00 0.  1.
          1   -1    0    0  501    0  0.00000000000E+00 -0.00000000000E+00 -0.18281739917E+03  0.18281739917E+03  0.00000000000E+00 0. -1.
         25    2    1    2    0    0 -0.90201975759E+01 -0.49225103420E+02  0.98282652646E+02  0.16676730953E+03  0.12508949175E+03 0.  0.
          5    1    3    3  502    0 -0.55792358679E+02 -0.17284568408E+02  0.92774206859E+02  0.10970902174E+03  0.41800000000E+01 0. -1.
         -5    1    3    3    0  502  0.46772161103E+02 -0.31940535011E+02  0.55084457877E+01  0.57058287795E+02  0.41800000000E+01 0. -1.
        -11    1    1    2    0    0 -0.29871013516E+02  0.10538329810E+01 -0.99360621277E+01  0.31497830767E+02  0.00000000000E+00 0.  1.
         11    1    1    2    0    0  0.38891211092E+02  0.48171270439E+02 -0.12036349377E+03  0.13535275479E+03  0.00000000000E+00 0. -1.
</event>
<event>
 7    1  0.2564986E-009  0.1295570E+03  0.7561462E-02  0.1228115E+00
         -2   -1    0    0    0  501 -0.00000000000E+00  0.00000000000E+00  0.37869606344E+03  0.37869606344E+03  0.00000000000E+00 0.  1.
          2   -1    0    0  501    0  0.00000000000E+00 -0.00000000000E+00 -0.76828205193E+02  0.76828205193E+02  0.00000000000E+00 0. -1.
         25    2    1    2    0    0 -0.59487231496E+01  0.10602066468E+03  0.57497810444E+02  0.17386234013E+03  0.12508535671E+03 0.  0.
          5    1    3    3  502    0  0.14065455855E+02  0.40560854493E+01  0.67679714133E+02  0.69370779026E+02  0.41800000000E+01 0. -1.
         -5    1    3    3    0  502 -0.20014179005E+02  0.10196457923E+03 -0.10181903689E+02  0.10449156110E+03  0.41800000000E+01 0. -1.
        -11    1    1    2    0    0 -0.38850844302E+02 -0.77766000145E+02  0.15838499952E+03  0.18067303882E+03  0.00000000000E+00 0.  1.
         11    1    1    2    0    0  0.44799567452E+02 -0.28254664538E+02  0.85985048283E+02  0.10098888969E+03  0.00000000000E+00 0. -1.
</event>
<event>
 7    1  0.2564986E-009  0.1541624E+03  0.7561462E-02  0.1195450E+00
         -1   -1    0    0    0  501 -0.00000000000E+00  0.00000000000E+00  0.80077825118E+02  0.80077825118E+02  0.00000000000E+00 0.  1.
          1   -1    0    0  501    0  0.00000000000E+00 -0.00000000000E+00 -0.55929751071E+03  0.55929751071E+03  0.00000000000E+00 0. -1.
         25    2    1    2    0    0 -0.25052676540E+02  0.12272089988E+03 -0.45212443848E+03  0.48554299226E+03  0.12508970217E+03 0.  0.
          5    1    3    3  502    0  0.41470399356E+02  0.34169346910E+02 -0.24254825156E+03  0.24846421277E+03  0.41800000000E+01 0.  1.
         -5    1    3    3    0  502 -0.66523075897E+02  0.88551552965E+02 -0.20957618692E+03  0.23707877949E+03  0.41800000000E+01 0.  1.
        -11    1    1    2    0    0  0.68191355598E+01 -0.12502958728E+03 -0.53072896403E+01  0.12532783261E+03  0.00000000000E+00 0.  1.
         11    1    1    2    0    0  0.18233540980E+02  0.23086874019E+01 -0.21787957470E+02  0.28504510958E+02  0.00000000000E+00 0. -1.
</event>
<event>
 7    1  0.2564986E-009  0.1135451E+03  0.7561462E-02  0.1254142E+00
         -3   -1    0    0    0  501 -0.00000000000E+00  0.00000000000E+00  0.26042714366E+03  0.26042714366E+03  0.00000000000E+00 0.  1.
          3   -1    0    0  501    0  0.00000000000E+00 -0.00000000000E+00 -0.78538228010E+02  0.78538228010E+02  0.00000000000E+00 0. -1.
         25    2    1    2    0    0 -0.89758407091E+02  0.23865605562E+02  0.10945684054E+03  0.19040847839E+03  0.12509376455E+03 0.  0.
          5    1    3    3  502    0 -0.10098168983E+02  0.19220164212E+02  0.10825978586E+03  0.11049453092E+03  0.41800000000E+01 0. -1.
         -5    1    3    3    0  502 -0.79660238107E+02  0.46454413495E+01  0.11970546800E+01  0.79913947472E+02  0.41800000000E+01 0. -1.
        -11    1    1    2    0    0  0.84269938996E+02  0.15196632222E+02  0.30276606353E+02  0.90824188086E+02  0.00000000000E+00 0.  1.
         11    1    1    2    0    0  0.54884680948E+01 -0.39062237783E+02  0.42155468761E+02  0.57732705195E+02  0.00000000000E+00 0. -1.
</event>
<event>
 7    1  0.2564986E-009  0.9460626E+02  0.7561462E-02  0.1292065E+00
          2   -1    0    0  501    0  0.00000000000E+00  0.00000000000E+00  0.79545268652E+02  0.79545268652E+02  0.00000000000E+00 0.  1.
         -2   -1    0    0    0  501 -0.00000000000E+00 -0.00000000000E+00 -0.16744212565E+03  0.16744212565E+03  0.00000000000E+00 0. -1.
         25    2    1    2    0    0 -0.12384668178E+02  0.51221639316E+02 -0.15001250064E+02  0.13656611592E+03  0.12509288619E+03 0.  0.
          5    1    3    3  502    0 -0.32275234673E+02 -0.24318476565E+02 -0.37374040252E+02  0.55202992314E+02  0.41800000000E+01 0.  1.
         -5    1    3    3    0  502  0.19890566495E+02  0.75540115880E+02  0.22372790188E+02  0.81363123609E+02  0.41800000000E+01 0.  1.
        -11    1    1    2    0    0 -0.10641587056E+02  0.33268516130E+01  0.52943421583E+01  0.12342664850E+02  0.00000000000E+00 0.  1.
         11    1    1    2    0    0  0.23026255234E+02 -0.54548490929E+02 -0.78189949094E+02  0.98078613530E+02  0.00000000000E+00 0. -1.
</event>
<event>
 7    1  0.2564986E-009  0.1751330E+03  0.7561462E-02  0.1172598E+00
         -1   -1    0    0    0  501 -0.00000000000E+00  0.00000000000E+00  0.14316086738E+03  0.14316086738E+03  0.00000000000E+00 0.  1.
          1   -1    0    0  501    0  0.00000000000E+00 -0.00000000000E+00 -0.27603847084E+03  0.27603847084E+03  0.00000000000E+00 0. -1.
         25    2    1    2    0    0 -0.16448839945E+03  0.14388272213E+02 -0.48255769122E+02  0.21269637997E+03  0.12509066660E+03 0.  0.
          5    1    3    3  502    0 -0.27555439491E+02  0.28742683122E+02  0.33769954890E+02  0.52376772828E+02  0.41800000000E+01 0.  1.
         -5    1    3    3    0  502 -0.13693295996E+03 -0.14354410910E+02 -0.82025724011E+02  0.16031960715E+03  0.41800000000E+01 0.  1.
        -11    1    1    2    0    0  0.57263634695E+02  0.18748334560E+02  0.82681353564E+01  0.60819289453E+02  0.00000000000E+00 0.  1.
         11    1    1    2    0    0  0.10722476476E+03 -0.33136606773E+02 -0.92889969690E+02  0.14568366880E+03  0.00000000000E+00 0. -1.
</event>
<event>
 7    1  0.2564986E-009  0.1418782E+03  0.7561462E-02  0.1210824E+00
          1   -1    0    0  501    0  0.00000000000E+00  0.00000000000E+00  0.82592877408E+02  0.82592877408E+02  0.00000000000E+00 0. -1.
         -1   -1    0    0    0  501 -0.00000000000E+00 -0.00000000000E+00 -0.34955046726E+03  0.34955046726E+03  0.00000000000E+00 0.  1.
         25    2    1    2    0    0 -0.10834479266E+02  0.12585316350E+03 -0.18148302269E+03  0.25404716569E+03  0.12508984838E+03 0.  0.
          5    1    3    3  502    0 -0.30147332581E+02  0.31629732961E+02  0.50006255440E+01  0.44178957941E+02  0.41800000000E+01 0.  1.
         -5    1    3    3    0  502  0.19312853315E+02  0.94223430535E+02 -0.18648364824E+03  0.20986820775E+03  0.41800000000E+01 0.  1.
        -11    1    1    2    0    0  0.39726500952E+02 -0.81302497662E+02 -0.86224495406E+02  0.12499181818E+03  0.00000000000E+00 0.  1.
         11    1    1    2    0    0 -0.28892021685E+02 -0.44550665835E+02  0.74992824432E+00  0.53104360798E+02  0.00000000000E+00 0. -1.
</event>
<event>
 7    1  0.2564986E-009  0.1553178E+03  0.7561462E-02  0.1194087E+00
          1   -1    0    0  501    0  0.00000000000E+00  0.00000000000E+00  0.22361677959E+03  0.22361677959E+03  0.00000000000E+00 0. -1.
         -1   -1    0    0    0  501 -0.00000000000E+00 -0.00000000000E+00 -0.13641050783E+03  0.13641050783E+03  0.00000000000E+00 0.  1.
         25    2    1    2    0    0 -0.96973341829E+02 -0.88018258190E+02  0.85524007091E+02  0.20028287042E+03  0.12509128505E+03 0.  0.
          5    1    3    3  502    0 -0.26069301551E+02  0.22583352466E+02 -0.11841069918E+02  0.36705580349E+02  0.41800000000E+01 0.  1.
         -5    1    3    3    0  502 -0.70904040279E+02 -0.11060161066E+03  0.97365077009E+02  0.16357729008E+03  0.41800000000E+01 0.  1.
        -11    1    1    2    0    0  0.79286006887E+02  0.31649173047E+02  0.34599126906E+02  0.92114280246E+02  0.00000000000E+00 0. -1.
         11    1    1    2    0    0  0.17687334942E+02  0.56369085144E+02 -0.32916862231E+02  0.67630136747E+02  0.00000000000E+00 0.  1.
</event>
<event>
 7    1  0.3080466E-009  0.9090145E+02  0.7561462E-02  0.1300683E+00
          2   -1    0    0  501    0  0.00000000000E+00  0.00000000000E+00  0.10494093123E+04  0.10494093123E+04  0.00000000000E+00 0. -1.
         -2   -1    0    0    0  501 -0.00000000000E+00 -0.00000000000E+00 -0.12533670826E+02  0.12533670826E+02  0.00000000000E+00 0.  1.
         25    2    1    2    0    0  0.26769732137E+02  0.10189723052E+02  0.70888075613E+03  0.72040353586E+03  0.12509547978E+03 0.  0.
          5    1    3    3  502    0  0.49923435388E+02 -0.24957331736E+02  0.15300269164E+03  0.16291873391E+03  0.41800000000E+01 0.  1.
         -5    1    3    3    0  502 -0.23153703251E+02  0.35147054788E+02  0.55587806449E+03  0.55748480196E+03  0.41800000000E+01 0.  1.
        -11    1    1    2    0    0 -0.14244910768E+01 -0.42471118381E+02  0.84218865283E+02  0.94332615467E+02  0.00000000000E+00 0.  1.
         11    1    1    2    0    0 -0.25345241060E+02  0.32281395329E+02  0.24377602007E+03  0.24720683180E+03  0.00000000000E+00 0. -1.
</event>
<event>
 7    1  0.2564986E-009  0.1069886E+03  0.7561462E-02  0.1266250E+00
          1   -1    0    0  501    0  0.00000000000E+00  0.00000000000E+00  0.15003990302E+03  0.15003990302E+03  0.00000000000E+00 0. -1.
         -1   -1    0    0    0  501 -0.00000000000E+00 -0.00000000000E+00 -0.23129885737E+03  0.23129885737E+03  0.00000000000E+00 0.  1.
         25    2    1    2    0    0 -0.75442013289E+02  0.84760128876E+01 -0.17759479114E+03  0.23010953468E+03  0.12508856042E+03 0.  0.
          5    1    3    3  502    0  0.25347501488E+01 -0.39187599574E+02 -0.12607168774E+02  0.41454867304E+02  0.41800000000E+01 0. -1.
         -5    1    3    3    0  502 -0.77976763437E+02  0.47663612462E+02 -0.16498762236E+03  0.18865466737E+03  0.41800000000E+01 0. -1.
        -11    1    1    2    0    0  0.45271127575E+02 -0.21525234046E+02  0.10575544685E+03  0.11703429083E+03  0.00000000000E+00 0. -1.
         11    1    1    2    0    0  0.30170885713E+02  0.13049221158E+02 -0.94196100591E+01  0.34194934877E+02  0.00000000000E+00 0.  1.
</event>
<event>
 7    1  0.2564986E-009  0.1032688E+03  0.7561462E-02  0.1273568E+00
         -3   -1    0    0    0  501 -0.00000000000E+00  0.00000000000E+00  0.88732032670E+02  0.88732032670E+02  0.00000000000E+00 0. -1.
          3   -1    0    0  501    0  0.00000000000E+00 -0.00000000000E+00 -0.30905315431E+03  0.30905315431E+03  0.00000000000E+00 0.  1.
         25    2    1    2    0    0  0.49562577903E+02 -0.81206602045E+02 -0.21277445164E+03  0.26452143243E+03  0.12509060556E+03 0.  0.
          5    1    3    3  502    0 -0.44147218853E+01  0.59982016337E+01 -0.13618498859E+03  0.13645252548E+03  0.41800000000E+01 0. -1.
         -5    1    3    3    0  502  0.53977299788E+02 -0.87204803679E+02 -0.76589463048E+02  0.12806890695E+03  0.41800000000E+01 0. -1.
        -11    1    1    2    0    0 -0.13806578575E+02  0.28430331089E+02 -0.48213123138E+02  0.57649029311E+02  0.00000000000E+00 0.  1.
         11    1    1    2    0    0 -0.35755999328E+02  0.52776270957E+02  0.40666453130E+02  0.75614725247E+02  0.00000000000E+00 0. -1.
</event>
<event>
 7    1  0.2564986E-009  0.1018956E+03  0.7561462E-02  0.1276359E+00
          2   -1    0    0  501    0  0.00000000000E+00  0.00000000000E+00  0.36871836521E+03  0.36871836521E+03  0.00000000000E+00 0.  1.
         -2   -1    0    0    0  501 -0.00000000000E+00 -0.00000000000E+00 -0.35389185971E+02  0.35389185971E+02  0.00000000000E+00 0. -1.
         25    2    1    2    0    0 -0.25723402358E+02  0.27356332159E+02  0.19657382741E+03  0.23600565558E+03  0.12508931812E+03 0.  0.
          5    1    3    3  502    0  0.20629889023E+02  0.50326223927E+02  0.16826402507E+03  0.17688577011E+03  0.41800000000E+01 0. -1.
         -5    1    3    3    0  502 -0.46353291381E+02 -0.22969891768E+02  0.28309802343E+02  0.59119885474E+02  0.41800000000E+01 0. -1.
        -11    1    1    2    0    0 -0.99369519164E+01 -0.52675593397E+02  0.82963213026E+02  0.98774267240E+02  0.00000000000E+00 0.  1.
         11    1    1    2    0    0  0.35660354275E+02  0.25319261238E+02  0.53792138807E+02  0.69327628360E+02  0.00000000000E+00 0. -1.
</event>
<event>
 7    1  0.2564986E-009  0.1376870E+03  0.7561462E-02  0.1216476E+00
          2   -1    0    0  501    0  0.00000000000E+00  0.00000000000E+00  0.28050919492E+03  0.28050919492E+03  0.00000000000E+00 0. -1.
         -2   -1    0    0    0  501 -0.00000000000E+00 -0.00000000000E+00 -0.88638920123E+02  0.88638920123E+02  0.00000000000E+00 0.  1.
         25    2    1    2    0    0 -0.76236466354E+02  0.86195623624E+02  0.78951707982E+02  0.18740775566E+03  0.12508641154E+03 0.  0.
          5    1    3    3  502    0 -0.15513277577E+02  0.68428076981E+02 -0.17077278587E+02  0.72333735866E+02  0.41800000000E+01 0.  1.
         -5    1    3    3    0  502 -0.60723188778E+02  0.17767546644E+02  0.96028986569E+02  0.11507401979E+03  0.41800000000E+01 0.  1.
        -11    1    1    2    0    0 -0.10525828524E+02 -0.43920783392E+02  0.27655727995E+02  0.52959112255E+02  0.00000000000E+00 0.  1.
         11    1    1    2    0    0  0.86762294878E+02 -0.42274840233E+02  0.85262838819E+02  0.12878124713E+03  0.00000000000E+00 0. -1.
</event>
<event>
 7    1  0.2564986E-009  0.1075315E+03  0.7561462E-02  0.1265211E+00
         -2   -1    0    0    0  501 -0.00000000000E+00  0.00000000000E+00  0.10529657205E+03  0.10529657205E+03  0.00000000000E+00 0.  1.
          2   -1    0    0  501    0  0.00000000000E+00 -0.00000000000E+00 -0.14291774981E+03  0.14291774981E+03  0.00000000000E+00 0. -1.
         25    2    1    2    0    0 -0.71872644168E+01  0.54448857164E+02 -0.36804664122E+02  0.14148661952E+03  0.12509014904E+03 0.  0.
          5    1    3    3  502    0  0.45843033326E+02  0.50124797169E+02  0.12071352964E+02  0.69117790460E+02  0.41800000000E+01 0.  1.
         -5    1    3    3    0  502 -0.53030297743E+02  0.43240599958E+01 -0.48876017086E+02  0.72368829062E+02  0.41800000000E+01 0.  1.
        -11    1    1    2    0    0 -0.33768628730E+02 -0.15639696137E+02  0.24842469670E+02  0.44744482127E+02  0.00000000000E+00 0.  1.
         11    1    1    2    0    0  0.40955893147E+02 -0.38809161028E+02 -0.25658983313E+02  0.61983220211E+02  0.00000000000E+00 0. -1.
</event>
<event>
 7    1  0.2564986E-009  0.1370383E+03  0.7561462E-02  0.1217371E+00
         -1   -1    0    0    0  501 -0.00000000000E+00  0.00000000000E+00  0.58679765780E+02  0.58679765780E+02  0.00000000000E+00 0. -1.
          1   -1    0    0  501    0  0.00000000000E+00 -0.00000000000E+00 -0.51168560627E+03  0.51168560627E+03  0.00000000000E+00 0.  1.
         25    2    1    2    0    0  0.82811044897E+02  0.41074764801E+02 -0.79416693581E+02  0.17463950858E+03  0.12508853376E+03 0.  0.
          5    1    3    3  502    0  0.95950389555E+02  0.72117655784E+02 -0.71452392623E+02  0.13975102985E+03  0.41800000000E+01 0. -1.
         -5    1    3    3    0  502 -0.13139344658E+02 -0.31042890983E+02 -0.79643009575E+01  0.34888478734E+02  0.41800000000E+01 0. -1.
        -11    1    1    2    0    0 -0.57548854516E+02  0.14162277113E+02 -0.10712163066E+03  0.12242338218E+03  0.00000000000E+00 0.  1.
         11    1    1    2    0    0 -0.25262190381E+02 -0.55237041915E+02 -0.26646751625E+03  0.27330248129E+03  0.00000000000E+00 0. -1.
</event>
<event>
 7    1  0.2564986E-009  0.1202925E+03  0.7561462E-02  0.1242615E+00
         -1   -1    0    0    0  501 -0.00000000000E+00  0.00000000000E+00  0.20061135067E+02  0.20061135067E+02  0.00000000000E+00 0.  1.
          1   -1    0    0  501    0  0.00000000000E+00 -0.00000000000E+00 -0.80998226612E+03  0.80998226612E+03  0.00000000000E+00 0. -1.
         25    2    1    2    0    0  0.53318179583E+02 -0.51751503499E+01 -0.56753090697E+03  0.58361873070E+03  0.12509948845E+03 0.  0.
          5    1    3    3  502    0 -0.18263679197E+02 -0.48040688199E+02 -0.18356561761E+03  0.19067060095E+03  0.41800000000E+01 0.  1.
         -5    1    3    3    0  502  0.71581858779E+02  0.42865537849E+02 -0.38396528936E+03  0.39294812975E+03  0.41800000000E+01 0.  1.
        -11    1    1    2    0    0 -0.63354384213E+02  0.36134530712E+02 -0.14046319496E+03  0.15826999541E+03  0.00000000000E+00 0. -1.
         11    1    1    2    0    0  0.10036204630E+02 -0.30959380362E+02 -0.81927029126E+02  0.88154675073E+02  0.00000000000E+00 0.  1.
</event>
<event>
 7    1  0.2564986E-009  0.1498418E+03  0.7561462E-02  0.1200668E+00
         -1   -1    0    0    0  501 -0.00000000000E+00  0.00000000000E+00  0.18525099325E+03  0.18525099325E+03  0.00000000000E+00 0.  1.
          1   -1    0    0  501    0  0.00000000000E+00 -0.00000000000E+00 -0.15577223824E+03  0.15577223824E+03  0.00000000000E+00 0. -1.
         25    2    1    2    0    0 -0.20055176135E+02 -0.12699349176E+03  0.36763011250E+02  0.18310541392E+03  0.12508603668E+03 0.  0.
          5    1    3    3  502    0  0.38290108969E+02 -0.97430233989E+02  0.50243526421E+02  0.11619237190E+03  0.41800000000E+01 0.  1.
         -5    1    3    3    0  502 -0.58345285104E+02 -0.29563257767E+02 -0.13480515171E+02  0.66913042025E+02  0.41800000000E+01 0.  1.
        -11    1    1    2    0    0  0.43086810358E+01  0.73130335224E+02  0.40944705715E+02  0.83923057549E+02  0.00000000000E+00 0.  1.
         11    1    1    2    0    0  0.15746495099E+02  0.53863156532E+02 -0.48228961957E+02  0.73994760024E+02  0.00000000000E+00 0. -1.
</event>
<event>
 7    1  0.2564986E-009  0.1673226E+03  0.7561462E-02  0.1180669E+00
         -2   -1    0    0    0  501 -0.00000000000E+00  0.00000000000E+00  0.19167718352E+03  0.19167718352E+03  0.00000000000E+00 0.  1.
          2   -1    0    0  501    0  0.00000000000E+00 -0.00000000000E+00 -0.30601632868E+03  0.30601632868E+03  0.00000000000E+00 0. -1.
         25    2    1    2    0    0 -0.14913729995E+03 -0.39048065264E+02 -0.21478226361E+03  0.29248165298E+03  0.12508961159E+03 0.  0.
          5    1    3    3  502    0 -0.73107286676E+02  0.28178494215E+02 -0.15726858504E+03  0.17575432609E+03  0.41800000000E+01 0.  1.
         -5    1    3    3    0  502 -0.76030013278E+02 -0.67226559480E+02 -0.57513678575E+02  0.11672732688E+03  0.41800000000E+01 0.  1.
        -11    1    1    2    0    0  0.70406295964E+02  0.24486397961E+02  0.10052248397E+03  0.12514551522E+03  0.00000000000E+00 0.  1.
         11    1    1    2    0    0  0.78731003990E+02  0.14561667303E+02 -0.79365514052E-01  0.80066344008E+02  0.00000000000E+00 0. -1.
</event>
<event>
 7    1  0.2564986E-009  0.1206330E+03  0.7561462E-02  0.1242056E+00
         -1   -1    0    0    0  501 -0.00000000000E+00  0.00000000000E+00  0.63767002712E+02  0.63767002712E+02  0.00000000000E+00 0.  1.
          1   -1    0    0  501    0  0.00000000000E+00 -0.00000000000E+00 -0.24082481131E+03  0.24082481131E+03  0.00000000000E+00 0. -1.
         25    2    1    2    0    0 -0.14140213402E+02 -0.55782347638E+02 -0.78178393648E+02  0.15834278995E+03  0.12509581109E+03 0.  0.
          5    1    3    3  502    0  0.46869584234E+02  0.90494277971E+01 -0.34818733020E+02  0.59232310768E+02  0.41800000000E+01 0.  1.
         -5    1    3    3    0  502 -0.61009797636E+02 -0.64831775435E+02 -0.43359660628E+02  0.99110479180E+02  0.41800000000E+01 0.  1.
        -11    1    1    2    0    0  0.15257160716E+02  0.79263218304E+02 -0.90562608579E+02  0.12131374531E+03  0.00000000000E+00 0. -1.
         11    1    1    2    0    0 -0.11169473141E+01 -0.23480870667E+02 -0.83168063678E+01  0.24935278758E+02  0.00000000000E+00 0.  1.
</event>
<event>
 7    1  0.2564986E-009  0.8286168E+02  0.7561462E-02  0.1321121E+00
         -2   -1    0    0    0  501 -0.00000000000E+00  0.00000000000E+00  0.34216110608E+02  0.34216110608E+02  0.00000000000E+00 0.  1.
          2   -1    0    0  501    0  0.00000000000E+00 -0.00000000000E+00 -0.40234641210E+03  0.40234641210E+03  0.00000000000E+00 0. -1.
         25    2    1    2    0    0  0.61932373400E+00  0.19446452030E+02 -0.28472990886E+03  0.31160491131E+03  0.12509177311E+03 0.  0.
          5    1    3    3  502    0 -0.29930377407E+02 -0.39989275896E+02 -0.66126747942E+02  0.82977038220E+02  0.41800000000E+01 0.  1.
         -5    1    3    3    0  502  0.30549701141E+02  0.59435727925E+02 -0.21860316092E+03  0.22862787309E+03  0.41800000000E+01 0.  1.
        -11    1    1    2    0    0 -0.20383489071E+02 -0.20420821561E+02  0.91861481522E+01  0.30280057758E+02  0.00000000000E+00 0.  1.
         11    1    1    2    0    0  0.19764165337E+02  0.97436953124E+00 -0.92586540788E+02  0.94677553637E+02  0.00000000000E+00 0. -1.
</event>
<event>
 7    1  0.2564986E-009  0.7343898E+02  0.7561462E-02  0.1348774E+00
          3   -1    0    0  501    0  0.00000000000E+00  0.00000000000E+00  0.57085384860E+02  0.57085384860E+02  0.00000000000E+00 0. -1.
         -3   -1    0    0    0  501 -0.00000000000E+00 -0.00000000000E+00 -0.23033360601E+03  0.23033360601E+03  0.00000000000E+00 0.  1.
         25    2    1    2    0    0 -0.26772469342E+02  0.25082760025E+02 -0.11208647729E+03  0.17192134321E+03  0.12509060675E+03 0.  0.
          5    1    3    3  502    0 -0.83152686041E+01 -0.71482609081E+01  0.26181244312E+02  0.28690961638E+02  0.41800000000E+01 0.  1.
         -5    1    3    3    0  502 -0.18457200738E+02  0.32231020933E+02 -0.13826772160E+03  0.14323038158E+03  0.41800000000E+01 0.  1.
        -11    1    1    2    0    0  0.16531830569E+02 -0.59554222927E+02 -0.42255237532E+02  0.74869967205E+02  0.00000000000E+00 0.  1.
         11    1    1    2    0    0  0.10240638772E+02  0.34471462902E+02 -0.18906506324E+02  0.40627680446E+02  0.00000000000E+00 0. -1.
</event>
<event>
 7    1  0.2564986E-009  0.1061838E+03  0.7561462E-02  0.1267805E+00
          2   -1    0    0  501    0  0.00000000000E+00  0.00000000000E+00  0.60791923390E+03  0.60791923390E+03  0.00000000000E+00 0. -1.
         -2   -1    0    0    0  501 -0.00000000000E+00 -0.00000000000E+00 -0.29292252496E+02  0.29292252496E+02  0.00000000000E+00 0.  1.
         25    2    1    2    0    0  0.25892510366E+01  0.67246790969E+02  0.39969351164E+03  0.42418465011E+03  0.12509547963E+03 0.  0.
          5    1    3    3  502    0  0.23754221450E+02 -0.17915674203E+02  0.24281782984E+02  0.38630451767E+02  0.41800000000E+01 0. -1.
         -5    1    3    3    0  502 -0.21164970413E+02  0.85162465172E+02  0.37541172866E+03  0.38555419834E+03  0.41800000000E+01 0. -1.
        -11    1    1    2    0    0  0.31869848435E+02 -0.33526957814E+02  0.26852117066E+02  0.53486263007E+02  0.00000000000E+00 0.  1.
         11    1    1    2    0    0 -0.34459099471E+02 -0.33719833155E+02  0.15208135270E+03  0.15954057328E+03  0.00000000000E+00 0. -1.
</event>
<event>
 7    1  0.2564986E-009  0.9779118E+02  0.7561462E-02  0.1285011E+00
          1   -1    0    0  501    0  0.00000000000E+00  0.00000000000E+00  0.15392739967E+03  0.15392739967E+03  0.00000000000E+00 0. -1.
         -1   -1    0    0    0  501 -0.00000000000E+00 -0.00000000000E+00 -0.10343795824E+03  0.10343795824E+03  0.00000000000E+00 0.  1.
         25    2    1    2    0    0  0.37559163268E+02  0.49401397904E+02  0.47566508498E+02  0.14750936002E+03  0.12508097258E+03 0.  0.
          5    1    3    3  502    0 -0.39545041627E+01  0.48072164994E+02 -0.31736669407E+02  0.57890065948E+02  0.41800000000E+01 0. -1.
         -5    1    3    3    0  502  0.41513667431E+02  0.13292329102E+01  0.79303177906E+02  0.89619294070E+02  0.41800000000E+01 0. -1.
        -11    1    1    2    0    0 -0.29879785681E+02 -0.73919257647E+02 -0.11240379283E+02  0.80518348032E+02  0.00000000000E+00 0.  1.
         11    1    1    2    0    0 -0.76793775864E+01  0.24517859743E+02  0.14163312217E+02  0.29337649862E+02  0.00000000000E+00 0. -1.
</event>
<event>
 7    1  0.2564986E-009  0.8924384E+02  0.7561462E-02  0.1304693E+00
         -1   -1    0    0    0  501 -0.00000000000E+00  0.00000000000E+00  0.49796755354E+03  0.49796755354E+03  0.00000000000E+00 0.  1.
          1   -1    0    0  501    0  0.00000000000E+00 -0.00000000000E+00 -0.30444109571E+02  0.30444109571E+02  0.00000000000E+00 0. -1.
         25    2    1    2    0    0  0.29583774493E+02 -0.47822703743E+02  0.28522869482E+03  0.31648585045E+03  0.12508267058E+03 0.  0.
          5    1    3    3  502    0  0.25599833110E+01 -0.56428321549E+02  0.39412779168E+02  0.69003974879E+02  0.41800000000E+01 0.  1.
         -5    1    3    3    0  502  0.27023791182E+02  0.86056178061E+01  0.24581591565E+03  0.24748187557E+03  0.41800000000E+01 0.  1.
        -11    1    1    2    0    0 -0.54136773247E+02  0.24896967870E+02  0.57935388167E+02  0.83109316137E+02  0.00000000000E+00 0.  1.
         11    1    1    2    0    0  0.24552998754E+02  0.22925735873E+02  0.12435936098E+03  0.12881649653E+03  0.00000000000E+00 0. -1.
</event>
<event>
 7    1  0.2564986E-009  0.1530544E+03  0.7561462E-02  0.1196769E+00
         -2   -1    0    0    0  501 -0.00000000000E+00  0.00000000000E+00  0.45560715348E+02  0.45560715348E+02  0.00000000000E+00 0.  1.
          2   -1    0    0  501    0  0.00000000000E+00 -0.00000000000E+00 -0.61174625783E+03  0.61174625783E+03  0.00000000000E+00 0. -1.
         25    2    1    2    0    0  0.71681068552E+02  0.83645905890E+02 -0.41883565893E+03  0.45078388615E+03  0.12509192486E+03 0.  0.
          5    1    3    3  502    0  0.13816877399E+02  0.10406179142E+03 -0.25580983085E+03  0.27654277155E+03  0.41800000000E+01 0. -1.
         -5    1    3    3    0  502  0.57864191154E+02 -0.20415885530E+02 -0.16302582807E+03  0.17424111460E+03  0.41800000000E+01 0. -1.
        -11    1    1    2    0    0 -0.52613040097E+02  0.11591922752E+01 -0.30290789413E+02  0.60720734830E+02  0.00000000000E+00 0.  1.
         11    1    1    2    0    0 -0.19068028455E+02 -0.84805098165E+02 -0.11705909414E+03  0.14580235219E+03  0.00000000000E+00 0. -1.
</event>
<event>
 7    1  0.2564986E-009  0.9973742E+02  0.7561462E-02  0.1280849E+00
         -1   -1    0    0    0  501 -0.00000000000E+00  0.00000000000E+00  0.14072205611E+03  0.14072205611E+03  0.00000000000E+00 0.  1.
          1   -1    0    0  501    0  0.00000000000E+00 -0.00000000000E+00 -0.18637662887E+03  0.18637662887E+03  0.00000000000E+00 0. -1.
         25    2    1    2    0    0 -0.18472961105E+02  0.52347485810E+02  0.82846696298E+02  0.15997462653E+03  0.12508715554E+03 0.  0.
          5    1    3    3  502    0 -0.36339464452E+02 -0.31357635756E+02  0.46277508918E+02  0.66805226057E+02  0.41800000000E+01 0.  1.
         -5    1    3    3    0  502  0.17866503347E+02  0.83705121566E+02  0.36569187380E+02  0.93169400470E+02  0.41800000000E+01 0.  1.
        -11    1    1    2    0    0  0.25896204386E+02 -0.20864482267E+02  0.13713360725E+01  0.33283938837E+02  0.00000000000E+00 0.  1.
         11    1    1    2    0    0 -0.74232432813E+01 -0.31483003543E+02 -0.12987260514E+03  0.13384011961E+03  0.00000000000E+00 0. -1.
</event>
<event>
 7    1  0.2564986E-009  0.8636385E+02  0.7561462E-02  0.1311904E+00
         -1   -1    0    0    0  501 -0.00000000000E+00  0.00000000000E+00  0.81364440007E+02  0.81364440007E+02  0.00000000000E+00 0. -1.
          1   -1    0    0  501    0  0.00000000000E+00 -0.00000000000E+00 -0.15873229721E+03  0.15873229721E+03  0.00000000000E+00 0.  1.
         25    2    1    2    0    0  0.85477977904E+00  0.21858496244E+02 -0.13214123673E+02  0.12766821583E+03  0.12508411475E+03 0.  0.
          5    1    3    3  502    0  0.22806196007E+02 -0.27409758398E+02  0.38630986949E+02  0.52737491260E+02  0.41800000000E+01 0. -1.
         -5    1    3    3    0  502 -0.21951416228E+02  0.49268254641E+02 -0.51845110622E+02  0.74930724574E+02  0.41800000000E+01 0. -1.
        -11    1    1    2    0    0 -0.35866572097E+02  0.79595159773E+01 -0.54032128749E+02  0.65339389542E+02  0.00000000000E+00 0. -1.
         11    1    1    2    0    0  0.35011792318E+02 -0.29818012221E+02 -0.10121604780E+02  0.47089131840E+02  0.00000000000E+00 0.  1.
</event>
<event>
 7    1  0.2564986E-009  0.1910293E+03  0.7561462E-02  0.1157536E+00
         -1   -1    0    0    0  501 -0.00000000000E+00  0.00000000000E+00  0.85668312627E+02  0.85668312627E+02  0.00000000000E+00 0.  1.
          1   -1    0    0  501    0  0.00000000000E+00 -0.00000000000E+00 -0.46364416834E+03  0.46364416834E+03  0.00000000000E+00 0. -1.
         25    2    1    2    0    0 -0.40581310283E+02 -0.16062035425E+03 -0.17044868798E+03  0.26860019475E+03  0.12509024119E+03 0.  0.
          5    1    3    3  502    0  0.33311969083E+02 -0.10548606691E+03 -0.12061731166E+03  0.16371623581E+03  0.41800000000E+01 0.  1.
         -5    1    3    3    0  502 -0.73893279366E+02 -0.55134287339E+02 -0.49831376322E+02  0.10488395894E+03  0.41800000000E+01 0.  1.
        -11    1    1    2    0    0  0.59303668372E+02  0.10791386977E+03 -0.18073158835E+03  0.21869210182E+03  0.00000000000E+00 0.  1.
         11    1    1    2    0    0 -0.18722358090E+02  0.52706484479E+02 -0.26795579386E+02  0.62020184402E+02  0.00000000000E+00 0. -1.
</event>
<event>
 7    1  0.2564986E-009  0.1047219E+03  0.7561462E-02  0.1270669E+00
         -1   -1    0    0    0  501 -0.00000000000E+00  0.00000000000E+00  0.18029596934E+03  0.18029596934E+03  0.00000000000E+00 0.  1.
          1   -1    0    0  501    0  0.00000000000E+00 -0.00000000000E+00 -0.93977878826E+02  0.93977878826E+02  0.00000000000E+00 0. -1.
         25    2    1    2    0    0 -0.50027861935E+02  0.49676208194E+02  0.60563341057E+02  0.15584000676E+03  0.12509067430E+03 0.  0.
          5    1    3    3  502    0 -0.75885036238E+02  0.22542395116E+02 -0.58259637721E+01  0.79486555821E+02  0.41800000000E+01 0.  1.
         -5    1    3    3    0  502  0.25857174303E+02  0.27133813077E+02  0.66389304829E+02  0.76353450942E+02  0.41800000000E+01 0.  1.
        -11    1    1    2    0    0  0.63527828911E+02 -0.46099442519E+02  0.48118918911E+02  0.92067225460E+02  0.00000000000E+00 0.  1.
         11    1    1    2    0    0 -0.13499966976E+02 -0.35767656745E+01 -0.22364169453E+02  0.26366615945E+02  0.00000000000E+00 0. -1.
</event>
<event>
 7    1  0.2564986E-009  0.1369864E+03  0.7561462E-02  0.1217442E+00
          1   -1    0    0  501    0  0.00000000000E+00  0.00000000000E+00  0.49978381222E+03  0.49978381222E+03  0.00000000000E+00 0. -1.
         -1   -1    0    0    0  501 -0.00000000000E+00 -0.00000000000E+00 -0.46918158062E+02  0.46918158062E+02  0.00000000000E+00 0.  1.
         25    2    1    2    0    0  0.72184188097E+02  0.73704568998E+02  0.18950126170E+03  0.24940095254E+03  0.12508871428E+03 0.  0.
          5    1    3    3  502    0  0.68304539494E+02  0.10745226897E+03  0.15720992068E+03  0.20234606935E+03  0.41800000000E+01 0. -1.
         -5    1    3    3    0  502  0.38796486033E+01 -0.33747699974E+02  0.32291341025E+02  0.47054883190E+02  0.41800000000E+01 0. -1.
        -11    1    1    2    0    0 -0.50896652794E+02 -0.20180140479E+02  0.21568473446E+03  0.22252553116E+03  0.00000000000E+00 0. -1.
         11    1    1    2    0    0 -0.21287535303E+02 -0.53524428520E+02  0.47679657992E+02  0.74775486584E+02  0.00000000000E+00 0.  1.
</event>
<event>
 7    1  0.2564986E-009  0.8537404E+02  0.7561462E-02  0.1314457E+00
          1   -1    0    0  501    0  0.00000000000E+00  0.00000000000E+00  0.19390781107E+03  0.19390781107E+03  0.00000000000E+00 0. -1.
         -1   -1    0    0    0  501 -0.00000000000E+00 -0.00000000000E+00 -0.79215497461E+02  0.79215497461E+02  0.00000000000E+00 0.  1.
         25    2    1    2    0    0 -0.12098851855E+01  0.31514513712E+02  0.22155498845E+02  0.13088218264E+03  0.12507858012E+03 0.  0.
          5    1    3    3  502    0  0.30853550401E+02 -0.39872885508E+02  0.10185808774E+02  0.51604376476E+02  0.41800000000E+01 0. -1.
         -5    1    3    3    0  502 -0.32063435587E+02  0.71387399220E+02  0.11969690071E+02  0.79277806159E+02  0.41800000000E+01 0. -1.
        -11    1    1    2    0    0 -0.11630109160E+02 -0.24590432965E+02  0.11349302964E+03  0.11670739741E+03  0.00000000000E+00 0. -1.
         11    1    1    2    0    0  0.12839994345E+02 -0.69240807464E+01 -0.20956214873E+02  0.25533728493E+02  0.00000000000E+00 0.  1.
</event>
<event>
 7    1  0.2564986E-009  0.8844655E+02  0.7561462E-02  0.1306658E+00
          2   -1    0    0  501    0  0.00000000000E+00  0.00000000000E+00  0.35275445990E+03  0.35275445990E+03  0.00000000000E+00 0. -1.
         -2   -1    0    0    0  501 -0.00000000000E+00 -0.00000000000E+00 -0.45437440976E+02  0.45437440976E+02  0.00000000000E+00 0.  1.
         25    2    1    2    0    0 -0.18564123714E+02  0.33667687295E+02  0.89324498258E+02  0.15844228361E+03  0.12508777474E+03 0.  0.
          5    1    3    3  502    0 -0.45193722069E+02  0.42774829480E+02 -0.23930765276E+01  0.62412801305E+02  0.41800000000E+01 0.  1.
         -5    1    3    3    0  502  0.26629598355E+02 -0.91071421842E+01  0.91717574785E+02  0.96029482305E+02  0.41800000000E+01 0.  1.
        -11    1    1    2    0    0  0.10661350806E+02 -0.58784201530E+02  0.83309431786E+02  0.10251686776E+03  0.00000000000E+00 0.  1.
         11    1    1    2    0    0  0.79027729076E+01  0.25116514235E+02  0.13468308888E+03  0.13723274951E+03  0.00000000000E+00 0. -1.
</event>
<event>
 7    1  0.2564986E-009  0.1820932E+03  0.7561462E-02  0.1165792E+00
          2   -1    0    0  501    0  0.00000000000E+00  0.00000000000E+00  0.94940802575E+03  0.94940802575E+03  0.00000000000E+00 0. -1.
         -2   -1    0    0    0  501 -0.00000000000E+00 -0.00000000000E+00 -0.45508149323E+02  0.45508149323E+02  0.00000000000E+00 0.  1.
         25    2    1    2    0    0  0.99291718530E+02 -0.12545512070E+03  0.28604647508E+03  0.35081112150E+03  0.12509206363E+03 0.  0.
          5    1    3    3  502    0  0.30392481215E+02 -0.12979867784E+03  0.17584448678E+03  0.22070377345E+03  0.41800000000E+01 0.  1.
         -5    1    3    3    0  502  0.68899237316E+02  0.43435571439E+01  0.11020198831E+03  0.13010734806E+03  0.41800000000E+01 0.  1.
        -11    1    1    2    0    0 -0.17155473314E+02  0.37878382144E+02  0.57069433546E+02  0.70611630371E+02  0.00000000000E+00 0.  1.
         11    1    1    2    0    0 -0.82136245217E+02  0.87576738553E+02  0.56078396780E+03  0.57349342320E+03  0.00000000000E+00 0. -1.
</event>
<event>
 7    1  0.2564986E-009  0.1667231E+03  0.7561462E-02  0.1181309E+00
         -1   -1    0    0    0  501 -0.00000000000E+00  0.00000000000E+00  0.88325022158E+02  0.88325022158E+02  0.00000000000E+00 0.  1.
          1   -1    0    0  501    0  0.00000000000E+00 -0.00000000000E+00 -0.36918334966E+03  0.36918334966E+03  0.00000000000E+00 0. -1.
         25    2    1    2    0    0 -0.11823945189E+02 -0.14426811319E+03 -0.13059856675E+03  0.23163934991E+03  0.12509080153E+03 0.  0.
          5    1    3    3  502    0 -0.62133077399E+02 -0.59061401921E+02 -0.90686063060E+02  0.12486073417E+03  0.41800000000E+01 0. -1.
         -5    1    3    3    0  502  0.50309132210E+02 -0.85206711274E+02 -0.39912503686E+02  0.10677861574E+03  0.41800000000E+01 0. -1.
        -11    1    1    2    0    0  0.23470533319E+02  0.10659939603E+03 -0.15113663976E+03  0.18643116972E+03  0.00000000000E+00 0. -1.
         11    1    1    2    0    0 -0.11646588130E+02  0.37668717167E+02  0.87687899798E+00  0.39437852183E+02  0.00000000000E+00 0.  1.
</event>
<event>
 7    1  0.2564986E-009  0.1382963E+03  0.7561462E-02  0.1215640E+00
          2   -1    0    0  501    0  0.00000000000E+00  0.00000000000E+00  0.35263751648E+03  0.35263751648E+03  0.00000000000E+00 0. -1.
         -2   -1    0    0    0  501 -0.00000000000E+00 -0.00000000000E+00 -0.74497326595E+02  0.74497326595E+02  0.00000000000E+00 0.  1.
         25    2    1    2    0    0 -0.57733614446E+02 -0.87206867077E+02  0.23179375751E+03  0.28339872768E+03  0.12509310504E+03 0.  0.
          5    1    3    3  502    0 -0.72257587342E+02 -0.15334889919E+02  0.55716211071E+02  0.92617959131E+02  0.41800000000E+01 0. -1.
         -5    1    3    3    0  502  0.14523972896E+02 -0.71871977157E+02  0.17607754643E+03  0.19078076855E+03  0.41800000000E+01 0. -1.
        -11    1    1    2    0    0  0.60566371621E+02  0.99535210818E+02  0.54557879012E+02  0.12865498718E+03  0.00000000000E+00 0. -1.
         11    1    1    2    0    0 -0.28327571743E+01 -0.12328343742E+02 -0.82114466300E+01  0.15081128220E+02  0.00000000000E+00 0.  1.
</event>
<event>
 7    1  0.2564986E-009  0.9635945E+02  0.7561462E-02  0.1288143E+00
          2   -1    0    0  501    0  0.00000000000E+00  0.00000000000E+00  0.58371065507E+03  0.58371065507E+03  0.00000000000E+00 0. -1.
         -2   -1    0    0    0  501 -0.00000000000E+00 -0.00000000000E+00 -0.29984186741E+02  0.29984186741E+02  0.00000000000E+00 0.  1.
         25    2    1    2    0    0  0.26321035944E+01  0.73827894572E+02  0.35300919238E+03  0.38173328726E+03  0.12508927496E+03 0.  0.
          5    1    3    3  502    0  0.10743459251E+02 -0.74192510084E+01  0.24928212459E+03  0.24965880165E+03  0.41800000000E+01 0.  1.
         -5    1    3    3    0  502 -0.81113556566E+01  0.81247145581E+02  0.10372706779E+03  0.13207448561E+03  0.41800000000E+01 0.  1.
        -11    1    1    2    0    0 -0.15919285996E+02  0.54818887920E+01  0.12364423379E+01  0.16882048483E+02  0.00000000000E+00 0.  1.
         11    1    1    2    0    0  0.13287182401E+02 -0.79309783364E+02  0.19948083361E+03  0.21507950607E+03  0.00000000000E+00 0. -1.
</event>
<event>
 7    1  0.2564986E-009  0.2125647E+03  0.7561462E-02  0.1139551E+00
         -1   -1    0    0    0  501 -0.00000000000E+00  0.00000000000E+00  0.57163136160E+03  0.57163136160E+03  0.00000000000E+00 0.  1.
          1   -1    0    0  501    0  0.00000000000E+00 -0.00000000000E+00 -0.12312608068E+03  0.12312608068E+03  0.00000000000E+00 0. -1.
         25    2    1    2    0    0  0.13569608948E+03  0.14807873069E+03  0.40494977094E+03  0.46901498461E+03  0.12509995852E+03 0.  0.
          5    1    3    3  502    0  0.12939397063E+03  0.74189953109E+02  0.18995555194E+03  0.24155233985E+03  0.41800000000E+01 0. -1.
         -5    1    3    3    0  502  0.63021188525E+01  0.73888777584E+02  0.21499421900E+03  0.22746264475E+03  0.41800000000E+01 0. -1.
        -11    1    1    2    0    0 -0.97785660891E+02 -0.94326188403E+02 -0.16260577000E+02  0.13683519890E+03  0.00000000000E+00 0. -1.
         11    1    1    2    0    0 -0.37910428592E+02 -0.53752542290E+02  0.59816086990E+02  0.88907258767E+02  0.00000000000E+00 0.  1.
</event>
<event>
 7    1  0.2564986E-009  0.1220242E+03  0.7561462E-02  0.1239795E+00
         -2   -1    0    0    0  501 -0.00000000000E+00  0.00000000000E+00  0.80791877694E+02  0.80791877694E+02  0.00000000000E+00 0.  1.
          2   -1    0    0  501    0  0.00000000000E+00 -0.00000000000E+00 -0.21389811101E+03  0.21389811101E+03  0.00000000000E+00 0. -1.
         25    2    1    2    0    0 -0.21111868250E+01 -0.74763763084E+02 -0.72158265224E+02  0.16262990786E+03  0.12509034459E+03 0.  0.
          5    1    3    3  502    0  0.47482017589E+02  0.66443166749E+01 -0.11228034966E+02  0.49418924590E+02  0.41800000000E+01 0. -1.
         -5    1    3    3    0  502 -0.49593204414E+02 -0.81408079759E+02 -0.60930230258E+02  0.11321098327E+03  0.41800000000E+01 0. -1.
        -11    1    1    2    0    0 -0.25924365225E+01 -0.12676576302E+02  0.12333567267E+02  0.17875491473E+02  0.00000000000E+00 0.  1.
         11    1    1    2    0    0  0.47036233475E+01  0.87440339386E+02 -0.73281535357E+02  0.11418458937E+03  0.00000000000E+00 0. -1.
</event>
<event>
 7    1  0.2564986E-009  0.9090373E+02  0.7561462E-02  0.1300678E+00
          1   -1    0    0  501    0  0.00000000000E+00  0.00000000000E+00  0.54803002476E+03  0.54803002476E+03  0.00000000000E+00 0. -1.
         -1   -1    0    0    0  501 -0.00000000000E+00 -0.00000000000E+00 -0.34763899189E+02  0.34763899189E+02  0.00000000000E+00 0.  1.
         25    2    1    2    0    0 -0.48695111242E+02  0.69079179190E+02  0.30928892234E+03  0.34416603046E+03  0.12508985643E+03 0.  0.
          5    1    3    3  502    0 -0.50256622668E+02  0.43178367908E+02  0.48901650422E+02  0.82455705631E+02  0.41800000000E+01 0.  1.
         -5    1    3    3    0  502  0.15615114260E+01  0.25900811282E+02  0.26038727192E+03  0.26171032483E+03  0.41800000000E+01 0.  1.
        -11    1    1    2    0    0  0.12565569484E+02 -0.16987261654E+01 -0.68172920086E+01  0.14396342500E+02  0.00000000000E+00 0.  1.
         11    1    1    2    0    0  0.36129541757E+02 -0.67380453025E+02  0.21079449523E+03  0.22423155099E+03  0.00000000000E+00 0. -1.
</event>
<event>
 7    1  0.2564986E-009  0.1210185E+03  0.7561462E-02  0.1241426E+00
          1   -1    0    0  501    0  0.00000000000E+00  0.00000000000E+00  0.24700205666E+02  0.24700205666E+02  0.00000000000E+00 0. -1.
         -1   -1    0    0    0  501 -0.00000000000E+00 -0.00000000000E+00 -0.83889016391E+03  0.83889016391E+03  0.00000000000E+00 0.  1.
         25    2    1    2    0    0 -0.97552615589E+02  0.44515580424E+02 -0.50036169529E+03  0.52678966301E+03  0.12508946091E+03 0.  0.
          5    1    3    3  502    0 -0.33107294462E+02  0.57799012622E+02 -0.94996489564E+02  0.11609747730E+03  0.41800000000E+01 0.  1.
         -5    1    3    3    0  502 -0.64445321127E+02 -0.13283432198E+02 -0.40536520573E+03  0.41069218571E+03  0.41800000000E+01 0.  1.
        -11    1    1    2    0    0  0.19400015696E+02 -0.18992452388E+02 -0.26488068917E+02  0.37930089001E+02  0.00000000000E+00 0. -1.
         11    1    1    2    0    0  0.78152599893E+02 -0.25523128036E+02 -0.28734019403E+03  0.29887061756E+03  0.00000000000E+00 0.  1.
</event>
<event>
 7    1  0.2564986E-009  0.9697016E+02  0.7561462E-02  0.1286799E+00
         -2   -1    0    0    0  501 -0.00000000000E+00  0.00000000000E+00  0.16913550266E+04  0.16913550266E+04  0.00000000000E+00 0.  1.
          2   -1    0    0  501    0  0.00000000000E+00 -0.00000000000E+00 -0.14707168337E+02  0.14707168337E+02  0.00000000000E+00 0. -1.
         25    2    1    2    0    0  0.12751816172E+02 -0.33851650324E+02  0.14811615793E+04  0.14868747405E+04  0.12509327334E+03 0.  0.
          5    1    3    3  502    0  0.49017735363E+02 -0.33632082853E+02  0.13312111095E+04  0.13325443129E+04  0.41800000000E+01 0.  1.
         -5    1    3    3    0  502 -0.36265919190E+02 -0.21956747043E+00  0.14995046971E+03  0.15433042756E+03  0.41800000000E+01 0.  1.
        -11    1    1    2    0    0  0.72088053119E+01 -0.30045557211E+02  0.79130880665E+02  0.84949388797E+02  0.00000000000E+00 0.  1.
         11    1    1    2    0    0 -0.19960621484E+02  0.63897207535E+02  0.11635539829E+03  0.13423806559E+03  0.00000000000E+00 0. -1.
</event>
<event>
 7    1  0.2564986E-009  0.1007238E+03  0.7561462E-02  0.1278781E+00
          1   -1    0    0  501    0  0.00000000000E+00  0.00000000000E+00  0.66057711828E+02  0.66057711828E+02  0.00000000000E+00 0. -1.
         -1   -1    0    0    0  501 -0.00000000000E+00 -0.00000000000E+00 -0.21844569541E+03  0.21844569541E+03  0.00000000000E+00 0.  1.
         25    2    1    2    0    0  0.44907853845E+02 -0.21344202414E+01 -0.11254153321E+03  0.17416593065E+03  0.12508758377E+03 0.  0.
          5    1    3    3  502    0  0.73768985379E+02 -0.19473169337E+02 -0.25187429381E+02  0.80454624024E+02  0.41800000000E+01 0. -1.
         -5    1    3    3    0  502 -0.28861131534E+02  0.17338749096E+02 -0.87354103826E+02  0.93711306622E+02  0.41800000000E+01 0. -1.
        -11    1    1    2    0    0 -0.60859117372E+02  0.22812540549E+02 -0.50322956357E+02  0.82198808447E+02  0.00000000000E+00 0.  1.
         11    1    1    2    0    0  0.15951263527E+02 -0.20678120308E+02  0.10476505980E+02  0.28138668148E+02  0.00000000000E+00 0. -1.
</event>
<event>
 7    1  0.2564986E-009  0.1307158E+03  0.7561462E-02  0.1226397E+00
          2   -1    0    0  501    0  0.00000000000E+00  0.00000000000E+00  0.14325012317E+03  0.14325012317E+03  0.00000000000E+00 0. -1.
         -2   -1    0    0    0  501 -0.00000000000E+00 -0.00000000000E+00 -0.15229806061E+03  0.15229806061E+03  0.00000000000E+00 0.  1.
         25    2    1    2    0    0  0.83235639289E+02  0.23309239176E+01  0.60024338935E+02  0.16182295762E+03  0.12510053354E+03 0.  0.
          5    1    3    3  502    0 -0.16531596292E+02  0.39755630958E+02  0.22621575636E+02  0.48816103420E+02  0.41800000000E+01 0. -1.
         -5    1    3    3    0  502  0.99767235581E+02 -0.37424707041E+02  0.37402763299E+02  0.11300685419E+03  0.41800000000E+01 0. -1.
        -11    1    1    2    0    0 -0.54464985738E+02  0.34746889727E+02 -0.24781411990E+02  0.69194648618E+02  0.00000000000E+00 0.  1.
         11    1    1    2    0    0 -0.28770653551E+02 -0.37077813645E+02 -0.44290864388E+02  0.64530577548E+02  0.00000000000E+00 0. -1.
</event>
<event>
 7    1  0.2564986E-009  0.9696028E+02  0.7561462E-02  0.1286821E+00
         -1   -1    0    0    0  501 -0.00000000000E+00  0.00000000000E+00  0.15691044344E+03  0.15691044344E+03  0.00000000000E+00 0.  1.
          1   -1    0    0  501    0  0.00000000000E+00 -0.00000000000E+00 -0.83311270963E+02  0.83311270963E+02  0.00000000000E+00 0. -1.
         25    2    1    2    0    0 -0.26502347994E+02  0.21924575241E+01  0.80784537806E+02  0.15126938581E+03  0.12509637970E+03 0.  0.
          5    1    3    3  502    0 -0.42910191119E+02  0.53382157146E+02  0.66357271368E+02  0.95455220218E+02  0.41800000000E+01 0. -1.
         -5    1    3    3    0  502  0.16407843125E+02 -0.51189699622E+02  0.14427266438E+02  0.55814165588E+02  0.41800000000E+01 0. -1.
        -11    1    1    2    0    0  0.46858374803E+02  0.96407391606E+01  0.20983026048E+02  0.52239243131E+02  0.00000000000E+00 0.  1.
         11    1    1    2    0    0 -0.20356026809E+02 -0.11833196685E+02 -0.28168391381E+02  0.36713085463E+02  0.00000000000E+00 0. -1.
</event>
<event>
 7    1  0.2564986E-009  0.1298372E+03  0.7561462E-02  0.1227697E+00
         -1   -1    0    0    0  501 -0.00000000000E+00  0.00000000000E+00  0.53112987245E+02  0.53112987245E+02  0.00000000000E+00 0.  1.
          1   -1    0    0  501    0  0.00000000000E+00 -0.00000000000E+00 -0.35491639296E+03  0.35491639296E+03  0.00000000000E+00 0. -1.
         25    2    1    2    0    0 -0.74285261955E+02 -0.31839627091E+02 -0.13113516871E+03  0.19844206422E+03  0.12510299109E+03 0.  0.
          5    1    3    3  502    0 -0.64294547795E+02 -0.75319099801E+02 -0.11244147085E+03  0.14989100186E+03  0.41800000000E+01 0. -1.
         -5    1    3    3    0  502 -0.99907141606E+01  0.43479472709E+02 -0.18693697866E+02  0.48551062361E+02  0.41800000000E+01 0. -1.
        -11    1    1    2    0    0  0.15136922885E+02 -0.27862286161E+02 -0.79516479480E+02  0.85605513453E+02  0.00000000000E+00 0. -1.
         11    1    1    2    0    0  0.59148339071E+02  0.59701913252E+02 -0.91151757525E+02  0.12398180254E+03  0.00000000000E+00 0.  1.
</event>
<event>
 7    1  0.2564986E-009  0.1354259E+03  0.7561462E-02  0.1219620E+00
         -1   -1    0    0    0  501 -0.00000000000E+00  0.00000000000E+00  0.56046721058E+03  0.56046721058E+03  0.00000000000E+00 0.  1.
          1   -1    0    0  501    0  0.00000000000E+00 -0.00000000000E+00 -0.40127158491E+02  0.40127158491E+02  0.00000000000E+00 0. -1.
         25    2    1    2    0    0 -0.96412865702E+02 -0.53743322929E+02  0.29121145558E+03  0.33561285291E+03  0.12509232490E+03 0.  0.
          5    1    3    3  502    0 -0.38372545451E+02  0.35887563583E+02  0.54081850803E+02  0.75516146953E+02  0.41800000000E+01 0.  1.
         -5    1    3    3    0  502 -0.58040320252E+02 -0.89630886513E+02  0.23712960477E+03  0.26009670596E+03  0.41800000000E+01 0.  1.
        -11    1    1    2    0    0  0.25799490650E+02  0.21816436073E+02  0.15176113273E+03  0.15547672497E+03  0.00000000000E+00 0.  1.
         11    1    1    2    0    0  0.70613375052E+02  0.31926886857E+02  0.77367463790E+02  0.10950479119E+03  0.00000000000E+00 0. -1.
</event>
<event>
 7    1  0.3094088E-009  0.9194279E+02  0.7561462E-02  0.1298214E+00
         -2   -1    0    0    0  501 -0.00000000000E+00  0.00000000000E+00  0.53514846230E+02  0.53514846230E+02  0.00000000000E+00 0.  1.
          2   -1    0    0  501    0  0.00000000000E+00 -0.00000000000E+00 -0.34284695524E+03  0.34284695524E+03  0.00000000000E+00 0. -1.
         25    2    1    2    0    0  0.30557283869E+02 -0.58353626742E+02 -0.22797952451E+03  0.26824961862E+03  0.12507717993E+03 0.  0.
          5    1    3    3  502    0 -0.34219188862E+02 -0.76239501797E+01 -0.12326475917E+02  0.37396415754E+02  0.41800000000E+01 0.  1.
         -5    1    3    3    0  502  0.64776472731E+02 -0.50729676562E+02 -0.21565304860E+03  0.23085320286E+03  0.41800000000E+01 0.  1.
        -11    1    1    2    0    0 -0.14460681981E+02  0.20746850353E+02 -0.79452344427E+02  0.83379962568E+02  0.00000000000E+00 0. -1.
         11    1    1    2    0    0 -0.16096601888E+02  0.37606776388E+02  0.18099759926E+02  0.44732220290E+02  0.00000000000E+00 0.  1.
</event>
<event>
 7    1  0.2564986E-009  0.1174411E+03  0.7561462E-02  0.1247379E+00
         -2   -1    0    0    0  501 -0.00000000000E+00  0.00000000000E+00  0.29044810317E+02  0.29044810317E+02  0.00000000000E+00 0.  1.
          2   -1    0    0  501    0  0.00000000000E+00 -0.00000000000E+00 -0.68096935248E+03  0.68096935248E+03  0.00000000000E+00 0. -1.
         25    2    1    2    0    0  0.23661294295E+02 -0.81141926404E+02 -0.30389668094E+03  0.33933079430E+03  0.12509327003E+03 0.  0.
          5    1    3    3  502    0  0.20156787936E+02  0.68776780817E+01 -0.20768818549E+03  0.20881918817E+03  0.41800000000E+01 0.  1.
         -5    1    3    3    0  502  0.35045063591E+01 -0.88019604486E+02 -0.96208495450E+02  0.13051160613E+03  0.41800000000E+01 0.  1.
        -11    1    1    2    0    0 -0.51482614949E+02  0.15610963225E+02 -0.18775502212E+03  0.19531029196E+03  0.00000000000E+00 0.  1.
         11    1    1    2    0    0  0.27821320654E+02  0.65530963179E+02 -0.16027283910E+03  0.17537307653E+03  0.00000000000E+00 0. -1.
</event>
<event>
 7    1  0.2564986E-009  0.7510608E+02  0.7561462E-02  0.1343543E+00
          2   -1    0    0  501    0  0.00000000000E+00  0.00000000000E+00  0.62933209090E+03  0.62933209090E+03  0.00000000000E+00 0. -1.
         -2   -1    0    0    0  501 -0.00000000000E+00 -0.00000000000E+00 -0.18479822560E+02  0.18479822560E+02  0.00000000000E+00 0.  1.
         25    2    1    2    0    0  0.66098229732E+00  0.84040219215E+01  0.39216961252E+03  0.41172149323E+03  0.12508604447E+03 0.  0.
          5    1    3    3  502    0 -0.32295051075E+02  0.22923848900E+02  0.35914706485E+02  0.53626595214E+02  0.41800000000E+01 0.  1.
         -5    1    3    3    0  502  0.32956033373E+02 -0.14519826978E+02  0.35625490604E+03  0.35809489802E+03  0.41800000000E+01 0.  1.
        -11    1    1    2    0    0  0.32626343869E+02  0.12373572892E+02  0.17009040726E+03  0.17363274536E+03  0.00000000000E+00 0. -1.
         11    1    1    2    0    0 -0.33287326166E+02 -0.20777594814E+02  0.48592248558E+02  0.62457674864E+02  0.00000000000E+00 0.  1.
</event>
<event>
 7    1  0.2564986E-009  0.9835071E+02  0.7561462E-02  0.1283803E+00
         -1   -1    0    0    0  501 -0.00000000000E+00  0.00000000000E+00  0.19340789748E+02  0.19340789748E+02  0.00000000000E+00 0.  1.
          1   -1    0    0  501    0  0.00000000000E+00 -0.00000000000E+00 -0.66718167900E+03  0.66718167900E+03  0.00000000000E+00 0. -1.
         25    2    1    2    0    0 -0.19144163312E+01 -0.24965550873E+02 -0.30299851066E+03  0.32876056821E+03  0.12509384490E+03 0.  0.
          5    1    3    3  502    0 -0.50403617411E+02 -0.72819767249E+01 -0.53642526873E+02  0.74084714499E+02  0.41800000000E+01 0. -1.
         -5    1    3    3    0  502  0.48489201079E+02 -0.17683574148E+02 -0.24935598378E+03  0.25467585371E+03  0.41800000000E+01 0. -1.
        -11    1    1    2    0    0  0.24997259170E+02 -0.27099928654E+02 -0.10619811174E+03  0.11241578197E+03  0.00000000000E+00 0. -1.
         11    1    1    2    0    0 -0.23082842839E+02  0.52065479526E+02 -0.23864426685E+03  0.24534611856E+03  0.00000000000E+00 0.  1.
</event>
<event>
 7    1  0.2564986E-009  0.9949786E+02  0.7561462E-02  0.1281355E+00
         -1   -1    0    0    0  501 -0.00000000000E+00  0.00000000000E+00  0.30461230982E+02  0.30461230982E+02  0.00000000000E+00 0.  1.
          1   -1    0    0  501    0  0.00000000000E+00 -0.00000000000E+00 -0.42392023579E+03  0.42392023579E+03  0.00000000000E+00 0. -1.
         25    2    1    2    0    0  0.11168326395E+02 -0.24325769200E+01 -0.28387951948E+03  0.31042950906E+03  0.12509296371E+03 0.  0.
          5    1    3    3  502    0  0.78359065347E+01 -0.63279718513E+02 -0.16066306055E+03  0.17290406482E+03  0.41800000000E+01 0. -1.
         -5    1    3    3    0  502  0.33324198606E+01  0.60847141593E+02 -0.12321645892E+03  0.13752544423E+03  0.41800000000E+01 0. -1.
        -11    1    1    2    0    0  0.31072914875E+02  0.59107970884E+01 -0.93356186588E+02  0.98568966391E+02  0.00000000000E+00 0. -1.
         11    1    1    2    0    0 -0.42241241271E+02 -0.34782201684E+01 -0.16223298749E+02  0.45382991328E+02  0.00000000000E+00 0.  1.
</event>
<event>
 7    1  0.2564986E-009  0.9354055E+02  0.7561462E-02  0.1294497E+00
         -2   -1    0    0    0  501 -0.00000000000E+00  0.00000000000E+00  0.36371677570E+02  0.36371677570E+02  0.00000000000E+00 0.  1.
          2   -1    0    0  501    0  0.00000000000E+00 -0.00000000000E+00 -0.49401971586E+03  0.49401971586E+03  0.00000000000E+00 0. -1.
         25    2    1    2    0    0  0.27378121227E+02  0.41542513291E+02 -0.12749049190E+03  0.18540929212E+03  0.12508972039E+03 0.  0.
          5    1    3    3  502    0  0.35633614482E+02 -0.11105656074E+02 -0.12648652008E+03  0.13194469387E+03  0.41800000000E+01 0. -1.
         -5    1    3    3    0  502 -0.82554932547E+01  0.52648169365E+02 -0.10039718116E+01  0.53464598248E+02  0.41800000000E+01 0. -1.
        -11    1    1    2    0    0 -0.48669741370E+02  0.79762456560E+00 -0.21524712250E+03  0.22068235922E+03  0.00000000000E+00 0.  1.
         11    1    1    2    0    0  0.21291620142E+02 -0.42340137857E+02 -0.11491042390E+03  0.12429974208E+03  0.00000000000E+00 0. -1.
</event>
<event>
 7    1  0.2564986E-009  0.1008956E+03  0.7561462E-02  0.1278424E+00
         -2   -1    0    0    0  501 -0.00000000000E+00  0.00000000000E+00  0.30449393918E+02  0.30449393918E+02  0.00000000000E+00 0.  1.
          2   -1    0    0  501    0  0.00000000000E+00 -0.00000000000E+00 -0.47205155794E+03  0.47205155794E+03  0.00000000000E+00 0. -1.
         25    2    1    2    0    0 -0.29362365162E+01 -0.49295508368E+02 -0.27189625302E+03  0.30333508294E+03  0.12508369801E+03 0.  0.
          5    1    3    3  502    0 -0.25840751971E+02  0.36873170262E+02 -0.91168363869E+02  0.10176697951E+03  0.41800000000E+01 0.  1.
         -5    1    3    3    0  502  0.22904515455E+02 -0.86168678630E+02 -0.18072788915E+03  0.20156810343E+03  0.41800000000E+01 0.  1.
        -11    1    1    2    0    0  0.22046009613E+02  0.11280146588E+02 -0.58112143068E+00  0.24771070809E+02  0.00000000000E+00 0.  1.
         11    1    1    2    0    0 -0.19109773097E+02  0.38015361780E+02 -0.16912478958E+03  0.17439479811E+03  0.00000000000E+00 0. -1.
</event>
<event>
 7    1  0.2564986E-009  0.1122584E+03  0.7561462E-02  0.1256444E+00
          2   -1    0    0  501    0  0.00000000000E+00  0.00000000000E+00  0.47676106801E+03  0.47676106801E+03  0.00000000000E+00 0. -1.
         -2   -1    0    0    0  501 -0.00000000000E+00 -0.00000000000E+00 -0.48267806516E+02  0.48267806516E+02  0.00000000000E+00 0.  1.
         25    2    1    2    0    0  0.28461681023E+02 -0.59072112250E+02  0.37189586742E+03  0.39781209518E+03  0.12509334569E+03 0.  0.
          5    1    3    3  502    0  0.70638909609E+02 -0.60582108468E+02  0.19798841510E+03  0.21880798050E+03  0.41800000000E+01 0.  1.
         -5    1    3    3    0  502 -0.42177228586E+02  0.15099962189E+01  0.17390745232E+03  0.17900411468E+03  0.41800000000E+01 0.  1.
        -11    1    1    2    0    0 -0.47473593730E+02  0.41166059062E+02 -0.22056627385E+01  0.62874887423E+02  0.00000000000E+00 0.  1.
         11    1    1    2    0    0  0.19011912707E+02  0.17906053188E+02  0.58803056813E+02  0.64341891922E+02  0.00000000000E+00 0. -1.
</event>
<event>
 7    1  0.2564986E-009  0.1811754E+03  0.7561462E-02  0.1166670E+00
          2   -1    0    0  501    0  0.00000000000E+00  0.00000000000E+00  0.67460166970E+03  0.67460166970E+03  0.00000000000E+00 0. -1.
         -2   -1    0    0    0  501 -0.00000000000E+00 -0.00000000000E+00 -0.55513016496E+02  0.55513016496E+02  0.00000000000E+00 0.  1.
         25    2    1    2    0    0 -0.11931906797E+03  0.10581146238E+03  0.28870761636E+03  0.35275432596E+03  0.12510164343E+03 0.  0.
          5    1    3    3  502    0  0.13269109411E+02  0.59998208634E+02  0.10252370062E+03  0.11960115339E+03  0.41800000000E+01 0.  1.
         -5    1    3    3    0  502 -0.13258817738E+03  0.45813253748E+02  0.18618391575E+03  0.23315317258E+03  0.41800000000E+01 0.  1.
        -11    1    1    2    0    0  0.10383617436E+03 -0.83416632977E+02  0.32264616465E+03  0.34905706314E+03  0.00000000000E+00 0. -1.
         11    1    1    2    0    0  0.15482893604E+02 -0.22394829406E+02  0.77348721894E+01  0.28303297092E+02  0.00000000000E+00 0.  1.
</event>
<event>
 7    1  0.2564986E-009  0.1038645E+03  0.7561462E-02  0.1272373E+00
         -2   -1    0    0    0  501 -0.00000000000E+00  0.00000000000E+00  0.26961889860E+03  0.26961889860E+03  0.00000000000E+00 0.  1.
          2   -1    0    0  501    0  0.00000000000E+00 -0.00000000000E+00 -0.59128538114E+02  0.59128538114E+02  0.00000000000E+00 0. -1.
         25    2    1    2    0    0  0.52351230643E+02  0.30340952386E+02  0.12050735254E+03  0.18394511385E+03  0.12511018404E+03 0.  0.
          5    1    3    3  502    0  0.78346343715E+02  0.10104771968E+02  0.12746495920E+03  0.15001681310E+03  0.41800000000E+01 0. -1.
         -5    1    3    3    0  502 -0.25995113072E+02  0.20236180418E+02 -0.69576066532E+01  0.33928300751E+02  0.41800000000E+01 0. -1.
        -11    1    1    2    0    0 -0.46572857676E+02  0.15597588301E+02  0.85085002652E+02  0.98243440032E+02  0.00000000000E+00 0.  1.
         11    1    1    2    0    0 -0.57783729667E+01 -0.45938540687E+02  0.48980052907E+01  0.46558882831E+02  0.00000000000E+00 0. -1.
</event>
<event>
 7    1  0.2564986E-009  0.1353983E+03  0.7561462E-02  0.1219659E+00
         -2   -1    0    0    0  501 -0.00000000000E+00  0.00000000000E+00  0.11171319929E+03  0.11171319929E+03  0.00000000000E+00 0.  1.
          2   -1    0    0  501    0  0.00000000000E+00 -0.00000000000E+00 -0.26933374691E+03  0.26933374691E+03  0.00000000000E+00 0. -1.
         25    2    1    2    0    0  0.62702671476E+02  0.84372866048E+02  0.25186410249E+01  0.16340736611E+03  0.12508084670E+03 0.  0.
          5    1    3    3  502    0  0.15140504000E+02  0.98496945256E+02  0.32962260187E+02  0.10504697084E+03  0.41800000000E+01 0. -1.
         -5    1    3    3    0  502  0.47562167476E+02 -0.14124079208E+02 -0.30443619162E+02  0.58360395271E+02  0.41800000000E+01 0. -1.
        -11    1    1    2    0    0 -0.69462419829E+02 -0.48399447128E+02 -0.16002072511E+03  0.18103636849E+03  0.00000000000E+00 0.  1.
         11    1    1    2    0    0  0.67597483526E+01 -0.35973418921E+02 -0.11846353651E+00  0.36603211611E+02  0.00000000000E+00 0. -1.
</event>
<event>
 7    1  0.2564986E-009  0.1206546E+03  0.7561462E-02  0.1242021E+00
          2   -1    0    0  501    0  0.00000000000E+00  0.00000000000E+00  0.23168477734E+03  0.23168477734E+03  0.00000000000E+00 0. -1.
         -2   -1    0    0    0  501 -0.00000000000E+00 -0.00000000000E+00 -0.13291323718E+03  0.13291323718E+03  0.00000000000E+00 0.  1.
         25    2    1    2    0    0 -0.84755011525E+02 -0.51033961244E+02  0.15163267841E+03  0.22006426863E+03  0.12509171031E+03 0.  0.
          5    1    3    3  502    0 -0.22203248550E+02 -0.68906990104E+02  0.23375384928E+02  0.76190803592E+02  0.41800000000E+01 0.  1.
         -5    1    3    3    0  502 -0.62551762975E+02  0.17873028860E+02  0.12825729348E+03  0.14387346504E+03  0.41800000000E+01 0.  1.
        -11    1    1    2    0    0  0.22524071445E+01  0.12221448462E+02 -0.51884851656E+02  0.53352366132E+02  0.00000000000E+00 0.  1.
         11    1    1    2    0    0  0.82502604381E+02  0.38812512782E+02 -0.97628659472E+00  0.91181379753E+02  0.00000000000E+00 0. -1.
</event>
<event>
 7    1  0.2564986E-009  0.1202955E+03  0.7561462E-02  0.1242610E+00
          2   -1    0    0  501    0  0.00000000000E+00  0.00000000000E+00  0.13996468437E+04  0.13996468437E+04  0.00000000000E+00 0. -1.
         -2   -1    0    0    0  501 -0.00000000000E+00 -0.00000000000E+00 -0.16992165276E+02  0.16992165276E+02  0.00000000000E+00 0.  1.
         25    2    1    2    0    0 -0.60163468499E+02  0.56836889634E+02  0.10516301837E+04  0.10622729210E+04  0.12509052929E+03 0.  0.
          5    1    3    3  502    0  0.23860768421E+01  0.79675069596E+02  0.68355374466E+03  0.68819837570E+03  0.41800000000E+01 0. -1.
         -5    1    3    3    0  502 -0.62549545342E+02 -0.22838179962E+02  0.36807643901E+03  0.37407454530E+03  0.41800000000E+01 0. -1.
        -11    1    1    2    0    0  0.11291537264E+02  0.72778106151E+01 -0.23715253838E+00  0.13435832034E+02  0.00000000000E+00 0.  1.
         11    1    1    2    0    0  0.48871931236E+02 -0.64114700249E+02  0.33126164733E+03  0.34093025598E+03  0.00000000000E+00 0. -1.
</event>
<event>
 7    1  0.2564986E-009  0.1663679E+03  0.7561462E-02  0.1181689E+00
         -1   -1    0    0    0  501 -0.00000000000E+00  0.00000000000E+00  0.25066310523E+02  0.25066310523E+02  0.00000000000E+00 0.  1.
          1   -1    0    0  501    0  0.00000000000E+00 -0.00000000000E+00 -0.12224513752E+04  0.12224513752E+04  0.00000000000E+00 0. -1.
         25    2    1    2    0    0 -0.10918177871E+03 -0.14755145361E+02 -0.74654932902E+03  0.76493267459E+03  0.12509085050E+03 0.  0.
          5    1    3    3  502    0 -0.36001325439E+02 -0.67060263001E+02 -0.36930875172E+03  0.37709362340E+03  0.41800000000E+01 0. -1.
         -5    1    3    3    0  502 -0.73180453267E+02  0.52305117639E+02 -0.37724057730E+03  0.38783905119E+03  0.41800000000E+01 0. -1.
        -11    1    1    2    0    0  0.55547239918E+02  0.70067084679E+02 -0.30243946438E+03  0.31537996422E+03  0.00000000000E+00 0. -1.
         11    1    1    2    0    0  0.53634538788E+02 -0.55311939318E+02 -0.14839627125E+03  0.16720504688E+03  0.00000000000E+00 0.  1.
</event>
<event>
 7    1  0.2564986E-009  0.1118836E+03  0.7561462E-02  0.1257121E+00
         -2   -1    0    0    0  501 -0.00000000000E+00  0.00000000000E+00  0.13301559645E+02  0.13301559645E+02  0.00000000000E+00 0.  1.
          2   -1    0    0  501    0  0.00000000000E+00 -0.00000000000E+00 -0.96585234274E+03  0.96585234274E+03  0.00000000000E+00 0. -1.
         25    2    1    2    0    0  0.27984949637E+02 -0.17679210977E+02 -0.54809554907E+03  0.56316292375E+03  0.12509210954E+03 0.  0.
          5    1    3    3  502    0 -0.38725418512E+02 -0.40332691385E+02 -0.18658153526E+03  0.19482434584E+03  0.41800000000E+01 0. -1.
         -5    1    3    3    0  502  0.66710368149E+02  0.22653480408E+02 -0.36151401381E+03  0.36833857791E+03  0.41800000000E+01 0. -1.
        -11    1    1    2    0    0  0.33514059322E+02  0.10939109168E+02 -0.15861270899E+03  0.16248337680E+03  0.00000000000E+00 0.  1.
         11    1    1    2    0    0 -0.61499008959E+02  0.67401018093E+01 -0.24584252503E+03  0.25350760184E+03  0.00000000000E+00 0. -1.
</event>
<event>
 7    1  0.2564986E-009  0.1263130E+03  0.7561462E-02  0.1233031E+00
          1   -1    0    0  501    0  0.00000000000E+00  0.00000000000E+00  0.10763056323E+03  0.10763056323E+03  0.00000000000E+00 0. -1.
         -1   -1    0    0    0  501 -0.00000000000E+00 -0.00000000000E+00 -0.17294352883E+03  0.17294352883E+03  0.00000000000E+00 0.  1.
         25    2    1    2    0    0  0.66111961489E+02  0.41462872153E+02 -0.15052182023E+02  0.14820322542E+03  0.12509063363E+03 0.  0.
          5    1    3    3  502    0  0.99163045353E+02  0.33816101429E+02  0.10712746463E+02  0.10539959021E+03  0.41800000000E+01 0.  1.
         -5    1    3    3    0  502 -0.33051083864E+02  0.76467707241E+01 -0.25764928486E+02  0.42803635208E+02  0.41800000000E+01 0.  1.
        -11    1    1    2    0    0 -0.27040535534E+02  0.24784514053E+02  0.58810690013E+01  0.37149019791E+02  0.00000000000E+00 0.  1.
         11    1    1    2    0    0 -0.39071425955E+02 -0.66247386206E+02 -0.56141852580E+02  0.95221846844E+02  0.00000000000E+00 0. -1.
</event>
<event>
 7    1  0.2564986E-009  0.1159425E+03  0.7561462E-02  0.1249945E+00
         -2   -1    0    0    0  501 -0.00000000000E+00  0.00000000000E+00  0.34892782360E+02  0.34892782360E+02  0.00000000000E+00 0.  1.
          2   -1    0    0  501    0  0.00000000000E+00 -0.00000000000E+00 -0.45417472395E+03  0.45417472395E+03  0.00000000000E+00 0. -1.
         25    2    1    2    0    0 -0.30878721960E+02 -0.54157083446E+02 -0.24584595362E+03  0.28279960960E+03  0.12509556794E+03 0.  0.
          5    1    3    3  502    0  0.46509050496E+02 -0.10199296744E+02 -0.60098919843E+02  0.76788475687E+02  0.41800000000E+01 0.  1.
         -5    1    3    3    0  502 -0.77387772456E+02 -0.43957786702E+02 -0.18574703378E+03  0.20601113391E+03  0.41800000000E+01 0.  1.
        -11    1    1    2    0    0  0.11450155649E+02  0.69372583798E+02 -0.16634101598E+03  0.18059068372E+03  0.00000000000E+00 0. -1.
         11    1    1    2    0    0  0.19428566311E+02 -0.15215500352E+02 -0.70949719888E+01  0.25677212999E+02  0.00000000000E+00 0.  1.
</event>
<event>
 7    1  0.2564986E-009  0.4838757E+03  0.7561462E-02  0.1018075E+00
         -4   -1    0    0    0  501 -0.00000000000E+00  0.00000000000E+00  0.13845311580E+04  0.13845311580E+04  0.00000000000E+00 0.  1.
          4   -1    0    0  501    0  0.00000000000E+00 -0.00000000000E+00 -0.17582526456E+03  0.17582526456E+03  0.00000000000E+00 0. -1.
         25    2    1    2    0    0 -0.13867569517E+03 -0.45834911260E+03  0.68195791755E+03  0.84263179396E+03  0.12508749509E+03 0.  0.
          5    1    3    3  502    0 -0.11293632244E+03 -0.41723326238E+03  0.66061111397E+03  0.78946990092E+03  0.41800000000E+01 0.  1.
         -5    1    3    3    0  502 -0.25739372736E+02 -0.41115850221E+02  0.21346803584E+02  0.53161893039E+02  0.41800000000E+01 0.  1.
        -11    1    1    2    0    0  0.15081744151E+03  0.40740720321E+03  0.45741967562E+03  0.63084014578E+03  0.00000000000E+00 0. -1.
         11    1    1    2    0    0 -0.12141746337E+02  0.50941909389E+02  0.69328300249E+02  0.86884482802E+02  0.00000000000E+00 0.  1.
</event>
<event>
 7    1  0.2564986E-009  0.9717001E+02  0.7561462E-02  0.1286362E+00
          1   -1    0    0  501    0  0.00000000000E+00  0.00000000000E+00  0.63067097829E+03  0.63067097829E+03  0.00000000000E+00 0. -1.
         -1   -1    0    0    0  501 -0.00000000000E+00 -0.00000000000E+00 -0.27052078585E+02  0.27052078585E+02  0.00000000000E+00 0.  1.
         25    2    1    2    0    0  0.61145061517E+02 -0.13417279617E+02  0.24040230329E+03  0.27814008449E+03  0.12509954930E+03 0.  0.
          5    1    3    3  502    0  0.13692777389E+02 -0.38553859371E+02  0.11101278013E+02  0.42598157220E+02  0.41800000000E+01 0. -1.
         -5    1    3    3    0  502  0.47452284128E+02  0.25136579754E+02  0.22930102528E+03  0.23554192727E+03  0.41800000000E+01 0. -1.
        -11    1    1    2    0    0 -0.73103942728E+01 -0.29570300134E+02  0.47429103172E+02  0.56368114588E+02  0.00000000000E+00 0.  1.
         11    1    1    2    0    0 -0.53834667244E+02  0.42987579751E+02  0.31578749324E+03  0.32321485780E+03  0.00000000000E+00 0. -1.
</event>
<event>
 7    1  0.2564986E-009  0.1110978E+03  0.7561462E-02  0.1258550E+00
          1   -1    0    0  501    0  0.00000000000E+00  0.00000000000E+00  0.21790394792E+04  0.21790394792E+04  0.00000000000E+00 0. -1.
         -1   -1    0    0    0  501 -0.00000000000E+00 -0.00000000000E+00 -0.82028071517E+01  0.82028071517E+01  0.00000000000E+00 0.  1.
         25    2    1    2    0    0 -0.33880128574E+02  0.25256050952E+02  0.16937667419E+04  0.16989047934E+04  0.12508393125E+03 0.  0.
          5    1    3    3  502    0  0.22923248667E+02  0.50725568328E+02  0.43131661578E+03  0.43491384671E+03  0.41800000000E+01 0. -1.
         -5    1    3    3    0  502 -0.56803377241E+02 -0.25469517376E+02  0.12624501261E+04  0.12639909467E+04  0.41800000000E+01 0. -1.
        -11    1    1    2    0    0  0.55373025570E+02 -0.47569839800E+02  0.31699646584E+03  0.32529343826E+03  0.00000000000E+00 0.  1.
         11    1    1    2    0    0 -0.21492896996E+02  0.22313788847E+02  0.16007346428E+03  0.16304405466E+03  0.00000000000E+00 0. -1.
</event>
<event>
 7    1  0.2564986E-009  0.9165847E+02  0.7561462E-02  0.1298884E+00
          1   -1    0    0  501    0  0.00000000000E+00  0.00000000000E+00  0.28183903082E+02  0.28183903082E+02  0.00000000000E+00 0. -1.
         -1   -1    0    0    0  501 -0.00000000000E+00 -0.00000000000E+00 -0.52552491408E+03  0.52552491408E+03  0.00000000000E+00 0.  1.
         25    2    1    2    0    0 -0.28266226614E+02 -0.49682903783E+02 -0.30182307922E+03  0.33168073672E+03  0.12509024529E+03 0.  0.
          5    1    3    3  502    0 -0.51287276780E+02 -0.72378705021E+01 -0.40449143227E+02  0.65851173997E+02  0.41800000000E+01 0.  1.
         -5    1    3    3    0  502  0.23021050166E+02 -0.42445033281E+02 -0.26137393599E+03  0.26582956272E+03  0.41800000000E+01 0.  1.
        -11    1    1    2    0    0  0.26960433589E+02 -0.56433162596E+01 -0.14335624695E+03  0.14597851053E+03  0.00000000000E+00 0.  1.
         11    1    1    2    0    0  0.13057930254E+01  0.55326220043E+02 -0.52161684831E+02  0.76049569914E+02  0.00000000000E+00 0. -1.
</event>
<event>
 7    1  0.2564986E-009  0.1225977E+03  0.7561462E-02  0.1238872E+00
          2   -1    0    0  501    0  0.00000000000E+00  0.00000000000E+00  0.31505267790E+03  0.31505267790E+03  0.00000000000E+00 0. -1.
         -2   -1    0    0    0  501 -0.00000000000E+00 -0.00000000000E+00 -0.63827398721E+02  0.63827398721E+02  0.00000000000E+00 0.  1.
         25    2    1    2    0    0 -0.56009897462E+02 -0.69970319755E+02  0.11556114770E+03  0.19244337256E+03  0.12508844281E+03 0.  0.
          5    1    3    3  502    0  0.24268191753E+02 -0.65044762677E+02  0.32572214445E+02  0.76799660393E+02  0.41800000000E+01 0.  1.
         -5    1    3    3    0  502 -0.80278089215E+02 -0.49255570779E+01  0.82988933254E+02  0.11564371216E+03  0.41800000000E+01 0.  1.
        -11    1    1    2    0    0  0.25557512660E+02  0.92521183467E+01  0.11082720360E+03  0.11411159979E+03  0.00000000000E+00 0. -1.
         11    1    1    2    0    0  0.30452384802E+02  0.60718201408E+02  0.24836927876E+02  0.72325104277E+02  0.00000000000E+00 0.  1.
</event>
<event>
 7    1  0.2564986E-009  0.1707098E+03  0.7561462E-02  0.1177110E+00
          2   -1    0    0  501    0  0.00000000000E+00  0.00000000000E+00  0.51631944111E+03  0.51631944111E+03  0.00000000000E+00 0. -1.
         -2   -1    0    0    0  501 -0.00000000000E+00 -0.00000000000E+00 -0.75162937535E+02  0.75162937535E+02  0.00000000000E+00 0.  1.
         25    2    1    2    0    0  0.11136771735E+02 -0.13508241454E+03  0.97669632845E+02  0.20870673009E+03  0.12509138900E+03 0.  0.
          5    1    3    3  502    0  0.50946072232E+02 -0.12453478622E+03  0.99301244478E+02  0.16728007893E+03  0.41800000000E+01 0.  1.
         -5    1    3    3    0  502 -0.39809300497E+02 -0.10547628324E+02 -0.16316116336E+01  0.41426651154E+02  0.41800000000E+01 0. -1.
        -11    1    1    2    0    0  0.21316272229E+02  0.13097194525E+03  0.23998953664E+03  0.27423167505E+03  0.00000000000E+00 0.  1.
         11    1    1    2    0    0 -0.32453043965E+02  0.41104692850E+01  0.10349733409E+03  0.10854397350E+03  0.00000000000E+00 0. -1.
</event>
<event>
 7    1  0.2564986E-009  0.1069370E+03  0.7561462E-02  0.1266350E+00
         -1   -1    0    0    0  501 -0.00000000000E+00  0.00000000000E+00  0.33069816296E+02  0.33069816296E+02  0.00000000000E+00 0.  1.
          1   -1    0    0  501    0  0.00000000000E+00 -0.00000000000E+00 -0.60263494388E+03  0.60263494388E+03  0.00000000000E+00 0. -1.
         25    2    1    2    0    0  0.32234816485E+01 -0.88623001502E+02 -0.26084319735E+03  0.30257368106E+03  0.12508889496E+03 0.  0.
          5    1    3    3  502    0 -0.26084607505E+02 -0.91675839075E+02 -0.25497374276E+03  0.27223877041E+03  0.41800000000E+01 0. -1.
         -5    1    3    3    0  502  0.29308089153E+02  0.30528375725E+01 -0.58694545860E+01  0.30334910651E+02  0.41800000000E+01 0. -1.
        -11    1    1    2    0    0 -0.35128038117E+01  0.77837684341E+02 -0.31221486242E+03  0.32179056110E+03  0.00000000000E+00 0. -1.
         11    1    1    2    0    0  0.28932216314E+00  0.10785317161E+02  0.34929321844E+01  0.11340518014E+02  0.00000000000E+00 0.  1.
</event>
<event>
 7    1  0.2564986E-009  0.7627896E+02  0.7561462E-02  0.1339956E+00
          1   -1    0    0  501    0  0.00000000000E+00  0.00000000000E+00  0.29034383190E+03  0.29034383190E+03  0.00000000000E+00 0. -1.
         -1   -1    0    0    0  501 -0.00000000000E+00 -0.00000000000E+00 -0.51381052534E+02  0.51381052534E+02  0.00000000000E+00 0.  1.
         25    2    1    2    0    0 -0.69317345492E+01 -0.45423724900E+02  0.17862703383E+03  0.22285946914E+03  0.12508941619E+03 0.  0.
          5    1    3    3  502    0 -0.25162401306E+02 -0.67743263116E+02  0.43114381483E+02  0.84253299210E+02  0.41800000000E+01 0. -1.
         -5    1    3    3    0  502  0.18230666757E+02  0.22319538216E+02  0.13551265234E+03  0.13860616993E+03  0.41800000000E+01 0. -1.
        -11    1    1    2    0    0 -0.81788351930E+01  0.15194964441E+02 -0.23106600826E+02  0.28839127782E+02  0.00000000000E+00 0.  1.
         11    1    1    2    0    0  0.15110569742E+02  0.30228760459E+02  0.83442346369E+02  0.90026287518E+02  0.00000000000E+00 0. -1.
</event>
<event>
 7    1  0.2564986E-009  0.6683986E+02  0.7561462E-02  0.1371181E+00
         -1   -1    0    0    0  501 -0.00000000000E+00  0.00000000000E+00  0.51125735594E+02  0.51125735594E+02  0.00000000000E+00 0.  1.
          1   -1    0    0  501    0  0.00000000000E+00 -0.00000000000E+00 -0.25158659687E+03  0.25158659687E+03  0.00000000000E+00 0. -1.
         25    2    1    2    0    0  0.21994494821E+02  0.49662625767E+00 -0.15403067881E+03  0.19964280970E+03  0.12509115482E+03 0.  0.
          5    1    3    3  502    0 -0.10538194711E+02 -0.19523073243E+02 -0.15926836998E+03  0.16086046752E+03  0.41800000000E+01 0. -1.
         -5    1    3    3    0  502  0.32532689532E+02  0.20019699501E+02  0.52376911705E+01  0.38782342182E+02  0.41800000000E+01 0. -1.
        -11    1    1    2    0    0 -0.65300316351E+01 -0.34610585461E+02  0.88305231426E+01  0.36311321624E+02  0.00000000000E+00 0.  1.
         11    1    1    2    0    0 -0.15464463186E+02  0.34113959203E+02 -0.55260705609E+02  0.66758201133E+02  0.00000000000E+00 0. -1.
</event>
<event>
 7    1  0.2564986E-009  0.8179937E+02  0.7561462E-02  0.1324021E+00
          1   -1    0    0  501    0  0.00000000000E+00  0.00000000000E+00  0.15131658315E+03  0.15131658315E+03  0.00000000000E+00 0. -1.
         -1   -1    0    0    0  501 -0.00000000000E+00 -0.00000000000E+00 -0.87230295139E+02  0.87230295139E+02  0.00000000000E+00 0.  1.
         25    2    1    2    0    0 -0.14996992815E+02  0.24217697843E+02  0.10481838875E+02  0.12872042060E+03  0.12509065133E+03 0.  0.
          5    1    3    3  502    0 -0.17539650413E+02  0.60286540498E+02  0.45935851912E+02  0.77908158704E+02  0.41800000000E+01 0. -1.
         -5    1    3    3    0  502  0.25426575984E+01 -0.36068842654E+02 -0.35454013037E+02  0.50812261891E+02  0.41800000000E+01 0. -1.
        -11    1    1    2    0    0  0.57727072481E+01 -0.42980662304E+02  0.70618153422E+02  0.82870894009E+02  0.00000000000E+00 0. -1.
         11    1    1    2    0    0  0.92242855670E+01  0.18762964461E+02 -0.17013704292E+02  0.26955563680E+02  0.00000000000E+00 0.  1.
</event>
<event>
 7    1  0.2564986E-009  0.1347435E+03  0.7561462E-02  0.1220582E+00
         -3   -1    0    0    0  501 -0.00000000000E+00  0.00000000000E+00  0.55616993927E+02  0.55616993927E+02  0.00000000000E+00 0.  1.
          3   -1    0    0  501    0  0.00000000000E+00 -0.00000000000E+00 -0.35329857370E+03  0.35329857370E+03  0.00000000000E+00 0. -1.
         25    2    1    2    0    0 -0.70694291976E+02  0.52243224590E+02 -0.17654135573E+03  0.23354995014E+03  0.12510672042E+03 0.  0.
          5    1    3    3  502    0 -0.89307364180E+01 -0.39808873714E+02 -0.36553760143E+02  0.54937730750E+02  0.41800000000E+01 0. -1.
         -5    1    3    3    0  502 -0.61763555558E+02  0.92052098304E+02 -0.13998759558E+03  0.17861221939E+03  0.41800000000E+01 0. -1.
        -11    1    1    2    0    0 -0.16788928235E+02 -0.14811932971E+02 -0.14164726845E+01  0.22433632441E+02  0.00000000000E+00 0.  1.
         11    1    1    2    0    0  0.87483220211E+02 -0.37431291618E+02 -0.11972375136E+03  0.15293198505E+03  0.00000000000E+00 0. -1.
</event>
<event>
 7    1  0.2564986E-009  0.6556396E+02  0.7561462E-02  0.1375863E+00
          1   -1    0    0  501    0  0.00000000000E+00  0.00000000000E+00  0.33957791744E+02  0.33957791744E+02  0.00000000000E+00 0. -1.
         -1   -1    0    0    0  501 -0.00000000000E+00 -0.00000000000E+00 -0.43798701159E+03  0.43798701159E+03  0.00000000000E+00 0.  1.
         25    2    1    2    0    0  0.28934455496E+02 -0.16913793955E+02 -0.14288415251E+03  0.19284747466E+03  0.12510391003E+03 0.  0.
          5    1    3    3  502    0  0.21612772734E+02 -0.13458149065E+02  0.18156414019E+02  0.31549350097E+02  0.41800000000E+01 0. -1.
         -5    1    3    3    0  502  0.73216827618E+01 -0.34556448896E+01 -0.16104056653E+03  0.16129812457E+03  0.41800000000E+01 0. -1.
        -11    1    1    2    0    0 -0.87422833422E+01  0.53616514699E+02 -0.17620587553E+03  0.18438999088E+03  0.00000000000E+00 0.  1.
         11    1    1    2    0    0 -0.20192172154E+02 -0.36702720744E+02 -0.84939191798E+02  0.94707337781E+02  0.00000000000E+00 0. -1.
</event>
<event>
 7    1  0.2564986E-009  0.1565764E+03  0.7561462E-02  0.1192617E+00
         -1   -1    0    0    0  501 -0.00000000000E+00  0.00000000000E+00  0.10243707276E+03  0.10243707276E+03  0.00000000000E+00 0.  1.
          1   -1    0    0  501    0  0.00000000000E+00 -0.00000000000E+00 -0.28893012566E+03  0.28893012566E+03  0.00000000000E+00 0. -1.
         25    2    1    2    0    0 -0.10164744746E+03 -0.48659221970E+02 -0.18600816579E+02  0.16938490633E+03  0.12508130419E+03 0.  0.
          5    1    3    3  502    0 -0.20577778632E+02 -0.78949036594E+02 -0.10409123102E+02  0.82354220270E+02  0.41800000000E+01 0.  1.
         -5    1    3    3    0  502 -0.81069668832E+02  0.30289814624E+02 -0.81916934772E+01  0.87030686063E+02  0.41800000000E+01 0.  1.
        -11    1    1    2    0    0 -0.44381361618E+01  0.37929030936E+02 -0.51786585538E+02  0.64344066409E+02  0.00000000000E+00 0.  1.
         11    1    1    2    0    0  0.10608558363E+03  0.10730191034E+02 -0.11610565078E+03  0.15763822568E+03  0.00000000000E+00 0. -1.
</event>
<event>
 7    1  0.2564986E-009  0.1399262E+03  0.7561462E-02  0.1213428E+00
         -2   -1    0    0    0  501 -0.00000000000E+00  0.00000000000E+00  0.97198178805E+02  0.97198178805E+02  0.00000000000E+00 0.  1.
          2   -1    0    0  501    0  0.00000000000E+00 -0.00000000000E+00 -0.29712647699E+03  0.29712647699E+03  0.00000000000E+00 0. -1.
         25    2    1    2    0    0  0.12236858327E+01 -0.12331093457E+03 -0.58505194562E+02  0.18514055059E+03  0.12508829558E+03 0.  0.
          5    1    3    3  502    0 -0.15949315000E+02 -0.11963074191E+03 -0.88785105207E+02  0.14988716544E+03  0.41800000000E+01 0. -1.
         -5    1    3    3    0  502  0.17173000833E+02 -0.36801926627E+01  0.30279910645E+02  0.35253385147E+02  0.41800000000E+01 0. -1.
        -11    1    1    2    0    0 -0.18998182139E+02  0.12171777181E+03 -0.14573309747E+03  0.19082526719E+03  0.00000000000E+00 0. -1.
         11    1    1    2    0    0  0.17774496307E+02  0.15931627595E+01  0.43099938424E+01  0.18358838020E+02  0.00000000000E+00 0.  1.
</event>
<event>
 7    1  0.2564986E-009  0.1493781E+03  0.7561462E-02  0.1201239E+00
          1   -1    0    0  501    0  0.00000000000E+00  0.00000000000E+00  0.11921377355E+04  0.11921377355E+04  0.00000000000E+00 0. -1.
         -1   -1    0    0    0  501 -0.00000000000E+00 -0.00000000000E+00 -0.26069348624E+02  0.26069348624E+02  0.00000000000E+00 0.  1.
         25    2    1    2    0    0  0.39010674807E+02 -0.13020599660E+03  0.50489068570E+03  0.53762224544E+03  0.12509052717E+03 0.  0.
          5    1    3    3  502    0  0.43381958861E+01 -0.44056109115E+01 -0.64580384024E+01  0.98695496886E+01  0.41800000000E+01 0. -1.
         -5    1    3    3    0  502  0.34672478921E+02 -0.12580038569E+03  0.51134872410E+03  0.52775269576E+03  0.41800000000E+01 0. -1.
        -11    1    1    2    0    0  0.27186910030E+02  0.28538034005E+02  0.18940878303E+03  0.19346636543E+03  0.00000000000E+00 0.  1.
         11    1    1    2    0    0 -0.66197584837E+02  0.10166796260E+03  0.47176891814E+03  0.48711847325E+03  0.00000000000E+00 0. -1.
</event>
<event>
 7    1  0.2564986E-009  0.1909381E+03  0.7561462E-02  0.1157618E+00
          1   -1    0    0  501    0  0.00000000000E+00  0.00000000000E+00  0.85629949863E+03  0.85629949863E+03  0.00000000000E+00 0. -1.
         -1   -1    0    0    0  501 -0.00000000000E+00 -0.00000000000E+00 -0.44601302158E+02  0.44601302158E+02  0.00000000000E+00 0.  1.
         25    2    1    2    0    0  0.15038604201E+03 -0.71621468929E+02  0.40859949463E+03  0.45863661452E+03  0.12509356787E+03 0.  0.
          5    1    3    3  502    0  0.92331428699E+02 -0.10513698913E+03  0.29796890829E+03  0.32921394550E+03  0.41800000000E+01 0. -1.
         -5    1    3    3    0  502  0.58054613310E+02  0.33515520196E+02  0.11063058634E+03  0.12942266902E+03  0.41800000000E+01 0. -1.
        -11    1    1    2    0    0 -0.11621664045E+02 -0.85841607336E+01  0.83364679226E+02  0.84607450222E+02  0.00000000000E+00 0. -1.
         11    1    1    2    0    0 -0.13876437796E+03  0.80205629663E+02  0.31973402261E+03  0.35765673604E+03  0.00000000000E+00 0.  1.
</event>
<event>
 7    1  0.2564986E-009  0.1287704E+03  0.7561462E-02  0.1229292E+00
          2   -1    0    0  501    0  0.00000000000E+00  0.00000000000E+00  0.13203842472E+04  0.13203842472E+04  0.00000000000E+00 0. -1.
         -2   -1    0    0    0  501 -0.00000000000E+00 -0.00000000000E+00 -0.22935519535E+02  0.22935519535E+02  0.00000000000E+00 0.  1.
         25    2    1    2    0    0 -0.13331258226E+02  0.10716002453E+03  0.10086636670E+04  0.10221111182E+04  0.12509097338E+03 0.  0.
          5    1    3    3  502    0 -0.26165689821E+02  0.10533656231E+02  0.43398995286E+02  0.51928281593E+02  0.41800000000E+01 0. -1.
         -5    1    3    3    0  502  0.12834431595E+02  0.96626368304E+02  0.96526467168E+03  0.97018283662E+03  0.41800000000E+01 0. -1.
        -11    1    1    2    0    0  0.27866588845E+02 -0.50476644925E+01  0.12089163427E+03  0.12416445919E+03  0.00000000000E+00 0. -1.
         11    1    1    2    0    0 -0.14535330618E+02 -0.10211236004E+03  0.16789342646E+03  0.19704418935E+03  0.00000000000E+00 0.  1.
</event>
<event>
 7    1  0.2564986E-009  0.1265728E+03  0.7561462E-02  0.1232632E+00
          1   -1    0    0  501    0  0.00000000000E+00  0.00000000000E+00  0.74887659638E+03  0.74887659638E+03  0.00000000000E+00 0. -1.
         -1   -1    0    0    0  501 -0.00000000000E+00 -0.00000000000E+00 -0.25024136778E+02  0.25024136778E+02  0.00000000000E+00 0.  1.
         25    2    1    2    0    0 -0.17878516687E+02  0.76666025260E+02  0.44290646806E+03  0.46691667008E+03  0.12509083322E+03 0.  0.
          5    1    3    3  502    0  0.44660156417E+02  0.31080669216E+02  0.87224705423E+02  0.10288906262E+03  0.41800000000E+01 0. -1.
         -5    1    3    3    0  502 -0.62538673104E+02  0.45585356045E+02  0.35568176264E+03  0.36402760746E+03  0.41800000000E+01 0. -1.
        -11    1    1    2    0    0  0.12736578995E+02 -0.98154400962E+02  0.20110502110E+03  0.22414222357E+03  0.00000000000E+00 0. -1.
         11    1    1    2    0    0  0.51419376921E+01  0.21488375702E+02  0.79840970435E+02  0.82841839511E+02  0.00000000000E+00 0.  1.
</event>
<event>
 7    1  0.2564986E-009  0.1001477E+03  0.7561462E-02  0.1279986E+00
         -1   -1    0    0    0  501 -0.00000000000E+00  0.00000000000E+00  0.19414423719E+02  0.19414423719E+02  0.00000000000E+00 0.  1.
          1   -1    0    0  501    0  0.00000000000E+00 -0.00000000000E+00 -0.17253335387E+04  0.17253335387E+04  0.00000000000E+00 0. -1.
         25    2    1    2    0    0  0.27211334919E+01 -0.43411738809E+02 -0.15808574013E+04  0.15863956328E+04  0.12509595098E+03 0.  0.
          5    1    3    3  502    0 -0.37104938171E+02 -0.52231831461E+02 -0.13747720104E+04  0.13762705016E+04  0.41800000000E+01 0. -1.
         -5    1    3    3    0  502  0.39826071663E+02  0.88200926520E+01 -0.20608539087E+03  0.21012513116E+03  0.41800000000E+01 0. -1.
        -11    1    1    2    0    0 -0.24130163138E+02 -0.17963695437E+02 -0.25428909698E+02  0.39390209129E+02  0.00000000000E+00 0.  1.
         11    1    1    2    0    0  0.21409029646E+02  0.61375434246E+02 -0.99632804032E+02  0.11896212052E+03  0.00000000000E+00 0. -1.
</event>
<event>
 7    1  0.2564986E-009  0.8207120E+02  0.7561462E-02  0.1323274E+00
          3   -1    0    0  501    0  0.00000000000E+00  0.00000000000E+00  0.31640022068E+03  0.31640022068E+03  0.00000000000E+00 0. -1.
         -3   -1    0    0    0  501 -0.00000000000E+00 -0.00000000000E+00 -0.39849552050E+02  0.39849552050E+02  0.00000000000E+00 0.  1.
         25    2    1    2    0    0 -0.28578780598E+02  0.99274677582E+01  0.17104325001E+03  0.21405091868E+03  0.12508677428E+03 0.  0.
          5    1    3    3  502    0 -0.64032124523E+02  0.34748906589E+02  0.14759966731E+03  0.16465337430E+03  0.41800000000E+01 0.  1.
         -5    1    3    3    0  502  0.35453343925E+02 -0.24821438830E+02  0.23443582702E+02  0.49397544383E+02  0.41800000000E+01 0.  1.
        -11    1    1    2    0    0  0.56856618135E+01 -0.21357507509E+02  0.11331190346E+03  0.11544720587E+03  0.00000000000E+00 0. -1.
         11    1    1    2    0    0  0.22893118784E+02  0.11430039751E+02 -0.78044848412E+01  0.26751648174E+02  0.00000000000E+00 0.  1.
</event>
<event>
 7    1  0.2564986E-009  0.1028926E+03  0.7561462E-02  0.1274328E+00
         -3   -1    0    0    0  501 -0.00000000000E+00  0.00000000000E+00  0.93857608391E+02  0.93857608391E+02  0.00000000000E+00 0.  1.
          3   -1    0    0  501    0  0.00000000000E+00 -0.00000000000E+00 -0.14975247762E+03  0.14975247762E+03  0.00000000000E+00 0. -1.
         25    2    1    2    0    0 -0.44540360119E+02  0.25376331604E+02  0.10948072220E+02  0.13563036516E+03  0.12509170150E+03 0.  0.
          5    1    3    3  502    0 -0.74262644427E+02  0.51585130611E+02 -0.91912838405E+01  0.90983065216E+02  0.41800000000E+01 0.  1.
         -5    1    3    3    0  502  0.29722284308E+02 -0.26208799007E+02  0.20139356061E+02  0.44647299946E+02  0.41800000000E+01 0.  1.
        -11    1    1    2    0    0  0.43871063307E+02 -0.40842582174E+02 -0.70025036708E+02  0.92175335531E+02  0.00000000000E+00 0. -1.
         11    1    1    2    0    0  0.66929681199E+00  0.15466250570E+02  0.31820952612E+01  0.15804385315E+02  0.00000000000E+00 0.  1.
</event>
<event>
 7    1  0.2564986E-009  0.7926104E+02  0.7561462E-02  0.1331162E+00
         -1   -1    0    0    0  501 -0.00000000000E+00  0.00000000000E+00  0.47230865313E+02  0.47230865313E+02  0.00000000000E+00 0.  1.
          1   -1    0    0  501    0  0.00000000000E+00 -0.00000000000E+00 -0.47106769410E+03  0.47106769410E+03  0.00000000000E+00 0. -1.
         25    2    1    2    0    0  0.74542352511E+01 -0.44525993822E+02 -0.38995012159E+03  0.41200245961E+03  0.12508716820E+03 0.  0.
          5    1    3    3  502    0 -0.31268854858E+02 -0.17882877053E+02 -0.34477103170E+03  0.34667286492E+03  0.41800000000E+01 0. -1.
         -5    1    3    3    0  502  0.38723090109E+02 -0.26643116768E+02 -0.45179089895E+02  0.65329594691E+02  0.41800000000E+01 0. -1.
        -11    1    1    2    0    0 -0.18712868950E+02  0.55970525379E+02  0.97355373336E+01  0.59813475595E+02  0.00000000000E+00 0.  1.
         11    1    1    2    0    0  0.11258633699E+02 -0.11444531557E+02 -0.43622244528E+02  0.46482624206E+02  0.00000000000E+00 0. -1.
</event>
<event>
 7    1  0.2564986E-009  0.1535869E+03  0.7561462E-02  0.1196134E+00
          2   -1    0    0  501    0  0.00000000000E+00  0.00000000000E+00  0.18430025156E+04  0.18430025156E+04  0.00000000000E+00 0. -1.
         -2   -1    0    0    0  501 -0.00000000000E+00 -0.00000000000E+00 -0.15059009053E+02  0.15059009053E+02  0.00000000000E+00 0.  1.
         25    2    1    2    0    0  0.11158108199E+03  0.70697336936E+01  0.12962647724E+04  0.13070768449E+04  0.12508876509E+03 0.  0.
          5    1    3    3  502    0  0.12187799082E+03 -0.30280129606E+02  0.86877617210E+03  0.87781583519E+03  0.41800000000E+01 0. -1.
         -5    1    3    3    0  502 -0.10296908827E+02  0.37349863300E+02  0.42748860035E+03  0.42926100970E+03  0.41800000000E+01 0. -1.
        -11    1    1    2    0    0  0.15389106114E+02 -0.56763888380E-01  0.92305448511E+02  0.93579504347E+02  0.00000000000E+00 0. -1.
         11    1    1    2    0    0 -0.12697018811E+03 -0.70129698053E+01  0.43937328561E+03  0.45740517544E+03  0.00000000000E+00 0.  1.
</event>
<event>
 7    1  0.2564986E-009  0.9807615E+02  0.7561462E-02  0.1284394E+00
          2   -1    0    0  501    0  0.00000000000E+00  0.00000000000E+00  0.20080893448E+03  0.20080893448E+03  0.00000000000E+00 0. -1.
         -2   -1    0    0    0  501 -0.00000000000E+00 -0.00000000000E+00 -0.74204292195E+02  0.74204292195E+02  0.00000000000E+00 0.  1.
         25    2    1    2    0    0  0.27892227874E+02 -0.34941237309E+02  0.10527752314E+03  0.16949671819E+03  0.12508762592E+03 0.  0.
          5    1    3    3  502    0 -0.39220480165E+02 -0.24271025608E+01  0.82391308255E+02  0.91377989511E+02  0.41800000000E+01 0. -1.
         -5    1    3    3    0  502  0.67112708040E+02 -0.32514134748E+02  0.22886214886E+02  0.78118728681E+02  0.41800000000E+01 0. -1.
        -11    1    1    2    0    0 -0.38690355616E+01  0.52213149025E+02 -0.18827295225E+02  0.55638560484E+02  0.00000000000E+00 0.  1.
         11    1    1    2    0    0 -0.24023192313E+02 -0.17271911716E+02  0.40154414369E+02  0.49877947999E+02  0.00000000000E+00 0. -1.
</event>
<event>
 7    1  0.2564986E-009  0.1817864E+03  0.7561462E-02  0.1166085E+00
          1   -1    0    0  501    0  0.00000000000E+00  0.00000000000E+00  0.17696663601E+03  0.17696663601E+03  0.00000000000E+00 0. -1.
         -1   -1    0    0    0  501 -0.00000000000E+00 -0.00000000000E+00 -0.22216816680E+03  0.22216816680E+03  0.00000000000E+00 0.  1.
         25    2    1    2    0    0 -0.16129165809E+03 -0.35108610797E+02 -0.11764846819E+02  0.20744680054E+03  0.12509256537E+03 0.  0.
          5    1    3    3  502    0 -0.69020081069E+02 -0.50563433064E+02  0.46183241657E+02  0.97318017674E+02  0.41800000000E+01 0.  1.
         -5    1    3    3    0  502 -0.92271577019E+02  0.15454822267E+02 -0.57948088476E+02  0.11012878286E+03  0.41800000000E+01 0.  1.
        -11    1    1    2    0    0  0.16175964430E+03  0.13145441498E+02 -0.14956599091E+02  0.16298062772E+03  0.00000000000E+00 0.  1.
         11    1    1    2    0    0 -0.46798620773E+00  0.21963169299E+02 -0.18480084879E+02  0.28707374556E+02  0.00000000000E+00 0. -1.
</event>
<event>
 7    1  0.2564986E-009  0.1132511E+03  0.7561462E-02  0.1254665E+00
          4   -1    0    0  501    0  0.00000000000E+00  0.00000000000E+00  0.22922455768E+03  0.22922455768E+03  0.00000000000E+00 0.  1.
         -4   -1    0    0    0  501 -0.00000000000E+00 -0.00000000000E+00 -0.62309086656E+02  0.62309086656E+02  0.00000000000E+00 0. -1.
         25    2    1    2    0    0  0.48074527995E+02  0.91332597865E+01  0.10291931070E+03  0.16921691796E+03  0.12508958443E+03 0.  0.
          5    1    3    3  502    0  0.33217226206E+02  0.60220609299E+02  0.91669211358E+02  0.11467616410E+03  0.41800000000E+01 0. -1.
         -5    1    3    3    0  502  0.14857301789E+02 -0.51087349513E+02  0.11250099344E+02  0.54540753863E+02  0.41800000000E+01 0. -1.
        -11    1    1    2    0    0  0.23062924087E+02 -0.22078475237E+02  0.18978784736E+02  0.37142318268E+02  0.00000000000E+00 0. -1.
         11    1    1    2    0    0 -0.71137452082E+02  0.12945215451E+02  0.45017375586E+02  0.85174408107E+02  0.00000000000E+00 0.  1.
</event>
<event>
 7    1  0.2564986E-009  0.1062216E+03  0.7561462E-02  0.1267731E+00
          2   -1    0    0  501    0  0.00000000000E+00  0.00000000000E+00  0.63701855698E+03  0.63701855698E+03  0.00000000000E+00 0.  1.
         -2   -1    0    0    0  501 -0.00000000000E+00 -0.00000000000E+00 -0.20243068277E+02  0.20243068277E+02  0.00000000000E+00 0. -1.
         25    2    1    2    0    0 -0.22390983535E+02 -0.24635359560E+02  0.35609681803E+03  0.37889430509E+03  0.12509074120E+03 0.  0.
          5    1    3    3  502    0 -0.72749126688E+02 -0.26882999162E-01  0.18669513323E+03  0.20041202890E+03  0.41800000000E+01 0. -1.
         -5    1    3    3    0  502  0.50358143153E+02 -0.24608476561E+02  0.16940168480E+03  0.17848227619E+03  0.41800000000E+01 0. -1.
        -11    1    1    2    0    0 -0.19507932150E+02  0.35123559819E+02  0.54474471460E+02  0.67688196253E+02  0.00000000000E+00 0. -1.
         11    1    1    2    0    0  0.41898915684E+02 -0.10488200260E+02  0.20620419921E+03  0.21067912391E+03  0.00000000000E+00 0.  1.
</event>
<event>
 7    1  0.2564986E-009  0.7934366E+02  0.7561462E-02  0.1330924E+00
         -1   -1    0    0    0  501 -0.00000000000E+00  0.00000000000E+00  0.63538861386E+02  0.63538861386E+02  0.00000000000E+00 0.  1.
          1   -1    0    0  501    0  0.00000000000E+00 -0.00000000000E+00 -0.33195384172E+03  0.33195384172E+03  0.00000000000E+00 0. -1.
         25    2    1    2    0    0 -0.12552996296E+01 -0.29702379785E+02 -0.27090535999E+03  0.29986638181E+03  0.12508527383E+03 0.  0.
          5    1    3    3  502    0 -0.30843032710E+02  0.77878738291E+01 -0.24150631496E+03  0.24362823361E+03  0.41800000000E+01 0.  1.
         -5    1    3    3    0  502  0.29587733080E+02 -0.37490253614E+02 -0.29399045026E+02  0.56238148203E+02  0.41800000000E+01 0.  1.
        -11    1    1    2    0    0  0.33389674529E+02 -0.20928636459E+01 -0.25843893933E+02  0.42274783228E+02  0.00000000000E+00 0. -1.
         11    1    1    2    0    0 -0.32134374899E+02  0.31795243430E+02  0.28334273582E+02  0.53351538070E+02  0.00000000000E+00 0.  1.
</event>
<event>
 7    1  0.2564986E-009  0.1565608E+03  0.7561462E-02  0.1192635E+00
         -1   -1    0    0    0  501 -0.00000000000E+00  0.00000000000E+00  0.45194553141E+03  0.45194553141E+03  0.00000000000E+00 0.  1.
          1   -1    0    0  501    0  0.00000000000E+00 -0.00000000000E+00 -0.77804402630E+02  0.77804402630E+02  0.00000000000E+00 0. -1.
         25    2    1    2    0    0 -0.20273502605E+02 -0.14381342293E+03  0.25276385693E+03  0.31722455002E+03  0.12509409356E+03 0.  0.
          5    1    3    3  502    0 -0.47507885107E+02 -0.90044639018E+02  0.67165051274E+02  0.12203955374E+03  0.41800000000E+01 0. -1.
         -5    1    3    3    0  502  0.27234382502E+02 -0.53768783913E+02  0.18559880566E+03  0.19518499629E+03  0.41800000000E+01 0. -1.
        -11    1    1    2    0    0 -0.64732724534E+01  0.94401006460E+02  0.20141554901E+02  0.96742625098E+02  0.00000000000E+00 0. -1.
         11    1    1    2    0    0  0.26746775058E+02  0.49412416471E+02  0.10123571695E+03  0.11578275892E+03  0.00000000000E+00 0.  1.
</event>
<event>
 7    1  0.2564986E-009  0.7380085E+02  0.7561462E-02  0.1347625E+00
          3   -1    0    0  501    0  0.00000000000E+00  0.00000000000E+00  0.45934327448E+02  0.45934327448E+02  0.00000000000E+00 0. -1.
         -3   -1    0    0    0  501 -0.00000000000E+00 -0.00000000000E+00 -0.32128817152E+03  0.32128817152E+03  0.00000000000E+00 0.  1.
         25    2    1    2    0    0 -0.18783266681E+02 -0.35992367169E+02 -0.21382510473E+03  0.25103002855E+03  0.12508652294E+03 0.  0.
          5    1    3    3  502    0 -0.26739657630E+02 -0.41126808988E+02 -0.22812494828E+03  0.23337713713E+03  0.41800000000E+01 0.  1.
         -5    1    3    3    0  502  0.79563909493E+01  0.51344418193E+01  0.14299843553E+02  0.17652891417E+02  0.41800000000E+01 0.  1.
        -11    1    1    2    0    0 -0.21486065478E+02 -0.12600031951E+02 -0.44219393086E+02  0.50752010205E+02  0.00000000000E+00 0.  1.
         11    1    1    2    0    0  0.40269332159E+02  0.48592399120E+02 -0.17309346255E+02  0.65440460210E+02  0.00000000000E+00 0. -1.
</event>
<event>
 7    1  0.2564986E-009  0.6953193E+02  0.7561462E-02  0.1361692E+00
         -1   -1    0    0    0  501 -0.00000000000E+00  0.00000000000E+00  0.11365547132E+03  0.11365547132E+03  0.00000000000E+00 0.  1.
          1   -1    0    0  501    0  0.00000000000E+00 -0.00000000000E+00 -0.11371836316E+03  0.11371836316E+03  0.00000000000E+00 0. -1.
         25    2    1    2    0    0 -0.52423051394E+01 -0.22559165150E+02 -0.18187690295E+02  0.12851609025E+03  0.12509674528E+03 0.  0.
          5    1    3    3  502    0  0.43039607923E+02 -0.51050404316E+01 -0.51295183304E+02  0.67284006407E+02  0.41800000000E+01 0. -1.
         -5    1    3    3    0  502 -0.48281913062E+02 -0.17454124718E+02  0.33107493009E+02  0.61232083845E+02  0.41800000000E+01 0. -1.
        -11    1    1    2    0    0 -0.47338837341E+01  0.30744737458E+02  0.53120606801E+02  0.61558487664E+02  0.00000000000E+00 0.  1.
         11    1    1    2    0    0  0.99761888735E+01 -0.81855723081E+01 -0.34995808342E+02  0.37299256560E+02  0.00000000000E+00 0. -1.
</event>
<event>
 7    1  0.2564986E-009  0.8712630E+02  0.7561462E-02  0.1309964E+00
         -1   -1    0    0    0  501 -0.00000000000E+00  0.00000000000E+00  0.10075513630E+03  0.10075513630E+03  0.00000000000E+00 0.  1.
          1   -1    0    0  501    0  0.00000000000E+00 -0.00000000000E+00 -0.15698182493E+03  0.15698182493E+03  0.00000000000E+00 0. -1.
         25    2    1    2    0    0 -0.36882749099E+02 -0.47160339954E+02 -0.53206420700E+02  0.14853852571E+03  0.12509330746E+03 0.  0.
          5    1    3    3  502    0 -0.69263981504E+02 -0.25212394662E+02 -0.73581072567E+02  0.10423440228E+03  0.41800000000E+01 0. -1.
         -5    1    3    3    0  502  0.32381232404E+02 -0.21947945292E+02  0.20374651867E+02  0.44304123434E+02  0.41800000000E+01 0. -1.
        -11    1    1    2    0    0  0.15104266294E+02  0.29115408994E+02 -0.46756511675E+02  0.57114072567E+02  0.00000000000E+00 0. -1.
         11    1    1    2    0    0  0.21778482806E+02  0.18044930960E+02  0.43736243745E+02  0.52084362947E+02  0.00000000000E+00 0.  1.
</event>
<event>
 7    1  0.2564986E-009  0.1283582E+03  0.7561462E-02  0.1229912E+00
          2   -1    0    0  501    0  0.00000000000E+00  0.00000000000E+00  0.29737200025E+03  0.29737200025E+03  0.00000000000E+00 0.  1.
         -2   -1    0    0    0  501 -0.00000000000E+00 -0.00000000000E+00 -0.11491818516E+03  0.11491818516E+03  0.00000000000E+00 0. -1.
         25    2    1    2    0    0  0.56417097344E+02 -0.66828176044E+02 -0.38189260060E+02  0.15733968017E+03  0.12509381034E+03 0.  0.
          5    1    3    3  502    0 -0.10138248387E+02  0.19066839452E+02 -0.43204350023E+02  0.48481096398E+02  0.41800000000E+01 0. -1.
         -5    1    3    3    0  502  0.66555345731E+02 -0.85895015496E+02  0.50150899628E+01  0.10885858377E+03  0.41800000000E+01 0. -1.
        -11    1    1    2    0    0  0.59131032872E+01  0.63270486702E+02  0.90196622476E+02  0.11033381161E+03  0.00000000000E+00 0.  1.
         11    1    1    2    0    0 -0.62330200631E+02  0.35576893422E+01  0.13044645267E+03  0.14461669363E+03  0.00000000000E+00 0. -1.
</event>
<event>
 7    1  0.2564986E-009  0.1401257E+03  0.7561462E-02  0.1213160E+00
          1   -1    0    0  501    0  0.00000000000E+00  0.00000000000E+00  0.70982439735E+03  0.70982439735E+03  0.00000000000E+00 0. -1.
         -1   -1    0    0    0  501 -0.00000000000E+00 -0.00000000000E+00 -0.31930094910E+02  0.31930094910E+02  0.00000000000E+00 0.  1.
         25    2    1    2    0    0  0.43467756971E+02 -0.82019945445E+02  0.49131325420E+03  0.51541930590E+03  0.12510647382E+03 0.  0.
          5    1    3    3  502    0 -0.15254763527E+01  0.31896275107E+02  0.80063100519E+02  0.86297577652E+02  0.41800000000E+01 0.  1.
         -5    1    3    3    0  502  0.44993233324E+02 -0.11391622055E+03  0.41125015368E+03  0.42912172825E+03  0.41800000000E+01 0.  1.
        -11    1    1    2    0    0  0.10698785378E+02 -0.12562146856E+02  0.11547859306E+02  0.20140124050E+02  0.00000000000E+00 0.  1.
         11    1    1    2    0    0 -0.54166542349E+02  0.94582092301E+02  0.17503318893E+03  0.20619506231E+03  0.00000000000E+00 0. -1.
</event>
<event>
 7    1  0.2564986E-009  0.1196592E+03  0.7561462E-02  0.1243660E+00
          2   -1    0    0  501    0  0.00000000000E+00  0.00000000000E+00  0.54062219383E+03  0.54062219383E+03  0.00000000000E+00 0. -1.
         -2   -1    0    0    0  501 -0.00000000000E+00 -0.00000000000E+00 -0.34196786180E+02  0.34196786180E+02  0.00000000000E+00 0.  1.
         25    2    1    2    0    0  0.73915656763E+02  0.33592359735E+02  0.31519081106E+03  0.34868985395E+03  0.12508955161E+03 0.  0.
          5    1    3    3  502    0 -0.22639549418E+02 -0.18555067956E+02  0.13057657743E+03  0.13388261544E+03  0.41800000000E+01 0.  1.
         -5    1    3    3    0  502  0.96555206182E+02  0.52147427691E+02  0.18461423364E+03  0.21480723851E+03  0.41800000000E+01 0.  1.
        -11    1    1    2    0    0 -0.41978465400E+02  0.12551442597E+02  0.24490070624E+02  0.50194559743E+02  0.00000000000E+00 0.  1.
         11    1    1    2    0    0 -0.31937191363E+02 -0.46143802332E+02  0.16674452596E+03  0.17593456631E+03  0.00000000000E+00 0. -1.
</event>
<event>
 7    1  0.2564986E-009  0.9857118E+02  0.7561462E-02  0.1283330E+00
          1   -1    0    0  501    0  0.00000000000E+00  0.00000000000E+00  0.27191644906E+03  0.27191644906E+03  0.00000000000E+00 0. -1.
         -1   -1    0    0    0  501 -0.00000000000E+00 -0.00000000000E+00 -0.14548397224E+03  0.14548397224E+03  0.00000000000E+00 0.  1.
         25    2    1    2    0    0  0.83030119853E+02 -0.34509082385E+02 -0.80582424765E+02  0.17385860728E+03  0.12509360725E+03 0.  0.
          5    1    3    3  502    0  0.33939229446E+02 -0.44913325704E+02  0.21201575190E+02  0.60299728952E+02  0.41800000000E+01 0. -1.
         -5    1    3    3    0  502  0.49090890407E+02  0.10404243319E+02 -0.10178399996E+03  0.11355887833E+03  0.41800000000E+01 0. -1.
        -11    1    1    2    0    0 -0.55160017654E+02  0.27322094156E+02  0.20571870272E+03  0.21473078267E+03  0.00000000000E+00 0. -1.
         11    1    1    2    0    0 -0.27870102199E+02  0.71869882289E+01  0.12961988741E+01  0.28811031357E+02  0.00000000000E+00 0.  1.
</event>
<event>
 7    1  0.2564986E-009  0.5790119E+02  0.7561462E-02  0.1406857E+00
          2   -1    0    0  501    0  0.00000000000E+00  0.00000000000E+00  0.85533860083E+02  0.85533860083E+02  0.00000000000E+00 0. -1.
         -2   -1    0    0    0  501 -0.00000000000E+00 -0.00000000000E+00 -0.14694125775E+03  0.14694125775E+03  0.00000000000E+00 0.  1.
         25    2    1    2    0    0 -0.59581471606E+01 -0.10093075376E+02 -0.51569024653E+01  0.12574176009E+03  0.12508807657E+03 0.  0.
          5    1    3    3  502    0 -0.26086438156E+01 -0.40886258296E+02 -0.53903929791E+02  0.67835073427E+02  0.41800000000E+01 0. -1.
         -5    1    3    3    0  502 -0.33495033449E+01  0.30793182920E+02  0.48747027325E+02  0.57906686661E+02  0.41800000000E+01 0. -1.
        -11    1    1    2    0    0  0.19282878647E+02 -0.80151636451E+01 -0.74753871633E+02  0.77615807548E+02  0.00000000000E+00 0.  1.
         11    1    1    2    0    0 -0.13324731487E+02  0.18108239021E+02  0.18503376436E+02  0.29117550192E+02  0.00000000000E+00 0. -1.
</event>
<event>
 7    1  0.2564986E-009  0.1248919E+03  0.7561462E-02  0.1235238E+00
          3   -1    0    0  501    0  0.00000000000E+00  0.00000000000E+00  0.13643406165E+02  0.13643406165E+02  0.00000000000E+00 0. -1.
         -3   -1    0    0    0  501 -0.00000000000E+00 -0.00000000000E+00 -0.13959657533E+04  0.13959657533E+04  0.00000000000E+00 0.  1.
         25    2    1    2    0    0 -0.62555269355E+02  0.16119830417E+02 -0.10348944635E+04  0.10444267614E+04  0.12509076168E+03 0.  0.
          5    1    3    3  502    0  0.94099640310E+00  0.61483512382E+02 -0.39531148965E+03  0.40008718302E+03  0.41800000000E+01 0. -1.
         -5    1    3    3    0  502 -0.63496265758E+02 -0.45363681966E+02 -0.63958297386E+03  0.64433957837E+03  0.41800000000E+01 0. -1.
        -11    1    1    2    0    0  0.91555917608E+01  0.34940637759E+02 -0.15258247310E+03  0.15679950294E+03  0.00000000000E+00 0. -1.
         11    1    1    2    0    0  0.53399677594E+02 -0.51060468176E+02 -0.19484541056E+03  0.20838289516E+03  0.00000000000E+00 0.  1.
</event>
<event>
 7    1  0.2564986E-009  0.1876175E+03  0.7561462E-02  0.1160628E+00
          1   -1    0    0  501    0  0.00000000000E+00  0.00000000000E+00  0.32067924572E+03  0.32067924572E+03  0.00000000000E+00 0. -1.
         -1   -1    0    0    0  501 -0.00000000000E+00 -0.00000000000E+00 -0.13912421524E+03  0.13912421524E+03  0.00000000000E+00 0.  1.
         25    2    1    2    0    0  0.15878342711E+03 -0.77264366740E+02  0.11526790252E+03  0.24518158421E+03  0.12508141666E+03 0.  0.
          5    1    3    3  502    0  0.40548879509E+02 -0.18631062839E+02 -0.25998420220E+02  0.51814268169E+02  0.41800000000E+01 0.  1.
         -5    1    3    3    0  502  0.11823454760E+03 -0.58633303901E+02  0.14126632274E+03  0.19336731604E+03  0.41800000000E+01 0.  1.
        -11    1    1    2    0    0 -0.11854544016E+03  0.86862230792E+01  0.14527670839E+02  0.11974775603E+03  0.00000000000E+00 0.  1.
         11    1    1    2    0    0 -0.40237986947E+02  0.68578143661E+02  0.51759457117E+02  0.94874120721E+02  0.00000000000E+00 0. -1.
</event>
<event>
 7    1  0.2564986E-009  0.9079366E+02  0.7561462E-02  0.1300941E+00
          2   -1    0    0  501    0  0.00000000000E+00  0.00000000000E+00  0.57552527804E+03  0.57552527804E+03  0.00000000000E+00 0. -1.
         -2   -1    0    0    0  501 -0.00000000000E+00 -0.00000000000E+00 -0.40189268001E+02  0.40189268001E+02  0.00000000000E+00 0.  1.
         25    2    1    2    0    0  0.29128963431E+02  0.27492707579E+02  0.48330878320E+03  0.50083850193E+03  0.12508988616E+03 0.  0.
          5    1    3    3  502    0 -0.59400372268E+01  0.56569306669E+02  0.10256200448E+03  0.11735334534E+03  0.41800000000E+01 0.  1.
         -5    1    3    3    0  502  0.35069000658E+02 -0.29076599090E+02  0.38074677872E+03  0.38348515659E+03  0.41800000000E+01 0.  1.
        -11    1    1    2    0    0  0.21958765611E+02 -0.13730099856E+02 -0.14652177090E+02  0.29755492311E+02  0.00000000000E+00 0.  1.
         11    1    1    2    0    0 -0.51087729041E+02 -0.13762607723E+02  0.66679403927E+02  0.85120551796E+02  0.00000000000E+00 0. -1.
</event>
<event>
 7    1  0.2564986E-009  0.9831210E+02  0.7561462E-02  0.1283886E+00
         -2   -1    0    0    0  501 -0.00000000000E+00  0.00000000000E+00  0.17728475576E+03  0.17728475576E+03  0.00000000000E+00 0.  1.
          2   -1    0    0  501    0  0.00000000000E+00 -0.00000000000E+00 -0.99859185565E+02  0.99859185565E+02  0.00000000000E+00 0. -1.
         25    2    1    2    0    0  0.66462664390E+02 -0.37713032275E+02  0.35452135831E+02  0.15080717149E+03  0.12508553265E+03 0.  0.
          5    1    3    3  502    0  0.28117317395E+02 -0.21446542814E+02  0.81279713109E+02  0.88737826766E+02  0.41800000000E+01 0.  1.
         -5    1    3    3    0  502  0.38345346995E+02 -0.16266489461E+02 -0.45827577278E+02  0.62069344726E+02  0.41800000000E+01 0.  1.
        -11    1    1    2    0    0 -0.78965608634E+02 -0.47836434098E+00  0.27147088766E+02  0.83503057476E+02  0.00000000000E+00 0.  1.
         11    1    1    2    0    0  0.12502944244E+02  0.38191396616E+02  0.14826345593E+02  0.42833712353E+02  0.00000000000E+00 0. -1.
</event>
<event>
 7    1  0.2564986E-009  0.1549153E+03  0.7561462E-02  0.1194560E+00
         -1   -1    0    0    0  501 -0.00000000000E+00  0.00000000000E+00  0.41224887440E+02  0.41224887440E+02  0.00000000000E+00 0.  1.
          1   -1    0    0  501    0  0.00000000000E+00 -0.00000000000E+00 -0.74595167934E+03  0.74595167934E+03  0.00000000000E+00 0. -1.
         25    2    1    2    0    0  0.54218700813E+02 -0.12478097834E+03 -0.39656589417E+03  0.43751645494E+03  0.12508469070E+03 0.  0.
          5    1    3    3  502    0  0.16258840126E+02 -0.11342936612E+03 -0.37515427905E+03  0.39228659992E+03  0.41800000000E+01 0.  1.
         -5    1    3    3    0  502  0.37959860687E+02 -0.11351612218E+02 -0.21411615117E+02  0.45229855021E+02  0.41800000000E+01 0.  1.
        -11    1    1    2    0    0 -0.70663322894E+02  0.75669402753E+02 -0.25604934668E+03  0.27618912298E+03  0.00000000000E+00 0.  1.
         11    1    1    2    0    0  0.16444622081E+02  0.49111575588E+02 -0.52111551045E+02  0.73470988862E+02  0.00000000000E+00 0. -1.
</event>
<event>
 7    1  0.2564986E-009  0.1129085E+03  0.7561462E-02  0.1255277E+00
         -2   -1    0    0    0  501 -0.00000000000E+00  0.00000000000E+00  0.49603904997E+02  0.49603904997E+02  0.00000000000E+00 0.  1.
          2   -1    0    0  501    0  0.00000000000E+00 -0.00000000000E+00 -0.59409589525E+03  0.59409589525E+03  0.00000000000E+00 0. -1.
         25    2    1    2    0    0 -0.34126513861E+02  0.91213031679E+02 -0.11979704623E+03  0.19870377987E+03  0.12508966285E+03 0.  0.
          5    1    3    3  502    0 -0.26260229545E+02  0.43977728002E+02  0.16662722395E+02  0.54025539642E+02  0.41800000000E+01 0.  1.
         -5    1    3    3    0  502 -0.78662843158E+01  0.47235303677E+02 -0.13645976863E+03  0.14467824023E+03  0.41800000000E+01 0.  1.
        -11    1    1    2    0    0  0.53182540896E+02 -0.27532521235E+02 -0.13359900924E+03  0.14640736884E+03  0.00000000000E+00 0.  1.
         11    1    1    2    0    0 -0.19056027035E+02 -0.63680510444E+02 -0.29109593478E+03  0.29858865153E+03  0.00000000000E+00 0. -1.
</event>
<event>
 7    1  0.2564986E-009  0.1161906E+03  0.7561462E-02  0.1249517E+00
         -2   -1    0    0    0  501 -0.00000000000E+00  0.00000000000E+00  0.16853605831E+03  0.16853605831E+03  0.00000000000E+00 0. -1.
          2   -1    0    0  501    0  0.00000000000E+00 -0.00000000000E+00 -0.14038807555E+03  0.14038807555E+03  0.00000000000E+00 0.  1.
         25    2    1    2    0    0 -0.64726776849E+02 -0.10237522548E+02  0.10212385420E+03  0.17428300887E+03  0.12510364932E+03 0.  0.
          5    1    3    3  502    0  0.27014964232E+02  0.95522027444E+01 -0.74990286850E+01  0.29912550893E+02  0.41800000000E+01 0. -1.
         -5    1    3    3    0  502 -0.91741741082E+02 -0.19789725292E+02  0.10962288288E+03  0.14437045797E+03  0.41800000000E+01 0. -1.
        -11    1    1    2    0    0  0.11083406164E+02 -0.36614967059E+02 -0.41250577542E+02  0.56259291254E+02  0.00000000000E+00 0.  1.
         11    1    1    2    0    0  0.53643370685E+02  0.46852489607E+02 -0.32725293894E+02  0.78381833745E+02  0.00000000000E+00 0. -1.
</event>
<event>
 7    1  0.2586857E-009  0.9653666E+02  0.7561462E-02  0.1287752E+00
         -3   -1    0    0    0  501 -0.00000000000E+00  0.00000000000E+00  0.41298681726E+03  0.41298681726E+03  0.00000000000E+00 0.  1.
          3   -1    0    0  501    0  0.00000000000E+00 -0.00000000000E+00 -0.38040414295E+02  0.38040414295E+02  0.00000000000E+00 0. -1.
         25    2    1    2    0    0  0.32695082673E+02 -0.48997817265E+02  0.17035356108E+03  0.21940721504E+03  0.12509770467E+03 0.  0.
          5    1    3    3  502    0  0.71253873410E+02 -0.51995688750E+01  0.55686754422E+02  0.90678757217E+02  0.41800000000E+01 0. -1.
         -5    1    3    3    0  502 -0.38558790737E+02 -0.43798248390E+02  0.11466680666E+03  0.12872845782E+03  0.41800000000E+01 0. -1.
        -11    1    1    2    0    0 -0.19005510932E+02  0.44834922158E+02  0.21055948747E+03  0.21611727709E+03  0.00000000000E+00 0.  1.
         11    1    1    2    0    0 -0.13689571742E+02  0.41628951067E+01 -0.59666455876E+01  0.15502739426E+02  0.00000000000E+00 0. -1.
</event>
<event>
 7    1  0.3061256E-009  0.1731636E+03  0.7561462E-02  0.1174588E+00
          1   -1    0    0  501    0  0.00000000000E+00  0.00000000000E+00  0.59254953458E+03  0.59254953458E+03  0.00000000000E+00 0. -1.
         -1   -1    0    0    0  501 -0.00000000000E+00 -0.00000000000E+00 -0.61674323494E+02  0.61674323494E+02  0.00000000000E+00 0.  1.
         25    2    1    2    0    0 -0.37234946820E+02  0.14036568747E+03  0.38081392376E+03  0.42632876604E+03  0.12509198512E+03 0.  0.
          5    1    3    3  502    0 -0.76318515708E+02  0.11417252064E+03  0.32719679797E+03  0.35487335390E+03  0.41800000000E+01 0. -1.
         -5    1    3    3    0  502  0.39083568888E+02  0.26193166836E+02  0.53617125785E+02  0.71455412135E+02  0.41800000000E+01 0. -1.
        -11    1    1    2    0    0  0.55248782537E+02 -0.70621524165E+02  0.44504439274E+02  0.10010231147E+03  0.00000000000E+00 0.  1.
         11    1    1    2    0    0 -0.18013835717E+02 -0.69744163307E+02  0.10555684806E+03  0.12779278056E+03  0.00000000000E+00 0. -1.
</event>
<event>
 7    1  0.2564986E-009  0.1001751E+03  0.7561462E-02  0.1279928E+00
         -3   -1    0    0    0  501 -0.00000000000E+00  0.00000000000E+00  0.45027529030E+03  0.45027529030E+03  0.00000000000E+00 0.  1.
          3   -1    0    0  501    0  0.00000000000E+00 -0.00000000000E+00 -0.29153493394E+02  0.29153493394E+02  0.00000000000E+00 0. -1.
         25    2    1    2    0    0 -0.26370078395E+02 -0.96859754148E+01  0.30941388664E+03  0.33492325765E+03  0.12508971225E+03 0.  0.
          5    1    3    3  502    0  0.37629297775E+02 -0.22401014745E+02  0.46542988496E+02  0.64042889464E+02  0.41800000000E+01 0. -1.
         -5    1    3    3    0  502 -0.63999376171E+02  0.12715039331E+02  0.26287089814E+03  0.27088036818E+03  0.41800000000E+01 0. -1.
        -11    1    1    2    0    0  0.47051393008E+02 -0.22940382081E+02  0.72922725930E+02  0.89765353400E+02  0.00000000000E+00 0.  1.
         11    1    1    2    0    0 -0.20681314613E+02  0.32626357496E+02  0.38785184338E+02  0.54740172649E+02  0.00000000000E+00 0. -1.
</event>
<event>
 7    1  0.2564986E-009  0.1093863E+03  0.7561462E-02  0.1261711E+00
          1   -1    0    0  501    0  0.00000000000E+00  0.00000000000E+00  0.60899315172E+02  0.60899315172E+02  0.00000000000E+00 0. -1.
         -1   -1    0    0    0  501 -0.00000000000E+00 -0.00000000000E+00 -0.25303320722E+03  0.25303320722E+03  0.00000000000E+00 0.  1.
         25    2    1    2    0    0 -0.37786880508E+02  0.33666545401E+02 -0.63241463485E+02  0.14902395212E+03  0.12508945192E+03 0.  0.
          5    1    3    3  502    0 -0.81751466528E+02  0.34121480113E+02 -0.54221131592E+02  0.10394701148E+03  0.41800000000E+01 0.  1.
         -5    1    3    3    0  502  0.43964586020E+02 -0.45493471239E+00 -0.90203318930E+01  0.45076940635E+02  0.41800000000E+01 0.  1.
        -11    1    1    2    0    0  0.32532886157E+02 -0.55027329282E+02 -0.44988035905E+02  0.78168529628E+02  0.00000000000E+00 0. -1.
         11    1    1    2    0    0  0.52539943513E+01  0.21360783881E+02 -0.83904392657E+02  0.86740040649E+02  0.00000000000E+00 0.  1.
</event>
<event>
 7    1  0.2564986E-009  0.2270000E+03  0.7561462E-02  0.1128769E+00
         -2   -1    0    0    0  501 -0.00000000000E+00  0.00000000000E+00  0.57967838498E+02  0.57967838498E+02  0.00000000000E+00 0.  1.
          2   -1    0    0  501    0  0.00000000000E+00 -0.00000000000E+00 -0.99485260424E+03  0.99485260424E+03  0.00000000000E+00 0. -1.
         25    2    1    2    0    0  0.20657437732E+03 -0.39769895449E+02 -0.56366669660E+03  0.61450984461E+03  0.12509031265E+03 0.  0.
          5    1    3    3  502    0  0.15617924462E+03  0.28357910601E+02 -0.33863922457E+03  0.37401888236E+03  0.41800000000E+01 0. -1.
         -5    1    3    3    0  502  0.50395132702E+02 -0.68127806050E+02 -0.22502747203E+03  0.24049096225E+03  0.41800000000E+01 0. -1.
        -11    1    1    2    0    0 -0.99338147921E+02  0.19098791577E+02 -0.92407183452E+02  0.13701065296E+03  0.00000000000E+00 0.  1.
         11    1    1    2    0    0 -0.10723622940E+03  0.20671103873E+02 -0.28081088569E+03  0.30129994516E+03  0.00000000000E+00 0. -1.
</event>
<event>
 7    1  0.2564986E-009  0.9394025E+02  0.7561462E-02  0.1293581E+00
          1   -1    0    0  501    0  0.00000000000E+00  0.00000000000E+00  0.22557032781E+03  0.22557032781E+03  0.00000000000E+00 0. -1.
         -1   -1    0    0    0  501 -0.00000000000E+00 -0.00000000000E+00 -0.73594882068E+02  0.73594882068E+02  0.00000000000E+00 0.  1.
         25    2    1    2    0    0 -0.40251322025E+02 -0.18626812949E+02  0.14652990271E+03  0.19769966073E+03  0.12508803452E+03 0.  0.
          5    1    3    3  502    0 -0.63736868430E+02 -0.25426948365E+02  0.24205320541E+02  0.72885444657E+02  0.41800000000E+01 0.  1.
         -5    1    3    3    0  502  0.23485546405E+02  0.68001354157E+01  0.12232458217E+03  0.12481421607E+03  0.41800000000E+01 0.  1.
        -11    1    1    2    0    0 -0.32190930641E+01  0.43917095037E+02 -0.15918727416E+02  0.46823922082E+02  0.00000000000E+00 0.  1.
         11    1    1    2    0    0  0.43470415090E+02 -0.25290282088E+02  0.21364270443E+02  0.54641627060E+02  0.00000000000E+00 0. -1.
</event>
<event>
 7    1  0.2564986E-009  0.8341496E+02  0.7561462E-02  0.1319630E+00
          1   -1    0    0  501    0  0.00000000000E+00  0.00000000000E+00  0.22928972907E+03  0.22928972907E+03  0.00000000000E+00 0. -1.
         -1   -1    0    0    0  501 -0.00000000000E+00 -0.00000000000E+00 -0.60840598968E+02  0.60840598968E+02  0.00000000000E+00 0.  1.
         25    2    1    2    0    0 -0.36148550338E+02  0.93326965513E+01  0.13038359261E+03  0.18450314471E+03  0.12509081609E+03 0.  0.
          5    1    3    3  502    0 -0.50659689875E+02  0.16653812564E+02  0.14966767500E+03  0.15893910466E+03  0.41800000000E+01 0. -1.
         -5    1    3    3    0  502  0.14511139537E+02 -0.73211160129E+01 -0.19284082387E+02  0.25564040054E+02  0.41800000000E+01 0. -1.
        -11    1    1    2    0    0 -0.29785472743E+02  0.10852025933E+01  0.22910425490E+01  0.29893158534E+02  0.00000000000E+00 0. -1.
         11    1    1    2    0    0  0.65934023081E+02 -0.10417899145E+02  0.35774494942E+02  0.75734024788E+02  0.00000000000E+00 0.  1.
</event>
<event>
 7    1  0.3546526E-009  0.1765252E+03  0.7561462E-02  0.1171209E+00
          1   -1    0    0  501    0  0.00000000000E+00  0.00000000000E+00  0.64458337162E+03  0.64458337162E+03  0.00000000000E+00 0. -1.
         -1   -1    0    0    0  501 -0.00000000000E+00 -0.00000000000E+00 -0.55023621129E+02  0.55023621129E+02  0.00000000000E+00 0.  1.
         25    2    1    2    0    0 -0.29124919768E+02  0.14781881668E+03  0.25515853828E+03  0.32163789549E+03  0.12508554129E+03 0.  0.
          5    1    3    3  502    0  0.32344382386E+02  0.10711754490E+03  0.10137618269E+03  0.15104611982E+03  0.41800000000E+01 0.  1.
         -5    1    3    3    0  502 -0.61469302155E+02  0.40701271778E+02  0.15378235559E+03  0.17059177566E+03  0.41800000000E+01 0.  1.
        -11    1    1    2    0    0 -0.23833865203E+02 -0.61626312998E+02  0.77358037946E+02  0.10173554747E+03  0.00000000000E+00 0.  1.
         11    1    1    2    0    0  0.52958784972E+02 -0.86192503678E+02  0.25704317426E+03  0.27623354979E+03  0.00000000000E+00 0. -1.
</event>
<event>
 7    1  0.2564986E-009  0.2653316E+03  0.7561462E-02  0.1103982E+00
         -1   -1    0    0    0  501 -0.00000000000E+00  0.00000000000E+00  0.23724103932E+03  0.23724103932E+03  0.00000000000E+00 0.  1.
          1   -1    0    0  501    0  0.00000000000E+00 -0.00000000000E+00 -0.42732339030E+03  0.42732339030E+03  0.00000000000E+00 0. -1.
         25    2    1    2    0    0  0.23573256860E+03 -0.75885525883E+02  0.78961808856E+02  0.28845878246E+03  0.12508015423E+03 0.  0.
          5    1    3    3  502    0  0.10916865113E+03 -0.89334522074E+02  0.50407970916E+01  0.14121378566E+03  0.41800000000E+01 0.  1.
         -5    1    3    3    0  502  0.12656391747E+03  0.13448996191E+02  0.73921011765E+02  0.14724499680E+03  0.41800000000E+01 0.  1.
        -11    1    1    2    0    0 -0.12721064544E+03 -0.42662534906E+01 -0.14351565702E+03  0.19182672661E+03  0.00000000000E+00 0.  1.
         11    1    1    2    0    0 -0.10852192316E+03  0.80151779374E+02 -0.12552850281E+03  0.18427892056E+03  0.00000000000E+00 0. -1.
</event>
<event>
 7    1  0.2564986E-009  0.1132464E+03  0.7561462E-02  0.1254673E+00
          3   -1    0    0  501    0  0.00000000000E+00  0.00000000000E+00  0.90162769426E+02  0.90162769426E+02  0.00000000000E+00 0. -1.
         -3   -1    0    0    0  501 -0.00000000000E+00 -0.00000000000E+00 -0.16724561789E+03  0.16724561789E+03  0.00000000000E+00 0.  1.
         25    2    1    2    0    0  0.49452064034E+02  0.28741476320E+02 -0.42108140753E+02  0.14384239978E+03  0.12508381733E+03 0.  0.
          5    1    3    3  502    0  0.94415253770E+01  0.65914797662E+02 -0.56256634045E+02  0.87270752411E+02  0.41800000000E+01 0.  1.
         -5    1    3    3    0  502  0.40010538657E+02 -0.37173321342E+02  0.14148493292E+02  0.56571647366E+02  0.41800000000E+01 0.  1.
        -11    1    1    2    0    0 -0.38203762916E+02  0.27865595192E+02 -0.29172458176E+02  0.55561238398E+02  0.00000000000E+00 0.  1.
         11    1    1    2    0    0 -0.11248301118E+02 -0.56607071513E+02 -0.58022495366E+01  0.58004749142E+02  0.00000000000E+00 0. -1.
</event>
<event>
 7    1  0.2564986E-009  0.5997707E+02  0.7561462E-02  0.1397928E+00
          1   -1    0    0  501    0  0.00000000000E+00  0.00000000000E+00  0.40565889016E+03  0.40565889016E+03  0.00000000000E+00 0. -1.
         -1   -1    0    0    0  501 -0.00000000000E+00 -0.00000000000E+00 -0.31948353412E+02  0.31948353412E+02  0.00000000000E+00 0.  1.
         25    2    1    2    0    0  0.34337090514E+01 -0.29416166064E+02  0.17357317656E+03  0.21599282614E+03  0.12509257429E+03 0.  0.
          5    1    3    3  502    0 -0.18995784229E+02  0.12325440452E+02  0.16628007898E+03  0.16786689181E+03  0.41800000000E+01 0.  1.
         -5    1    3    3    0  502  0.22429493280E+02 -0.41741606517E+02  0.72930975810E+01  0.48125934336E+02  0.41800000000E+01 0.  1.
        -11    1    1    2    0    0 -0.86868842049E+01 -0.78586864208E+01 -0.52278326804E+01  0.12827748983E+02  0.00000000000E+00 0.  1.
         11    1    1    2    0    0  0.52531751535E+01  0.37274852485E+02  0.20536519287E+03  0.20878666844E+03  0.00000000000E+00 0. -1.
</event>
<event>
 7    1  0.2564986E-009  0.1076116E+03  0.7561462E-02  0.1265058E+00
         -2   -1    0    0    0  501 -0.00000000000E+00  0.00000000000E+00  0.20871699343E+02  0.20871699343E+02  0.00000000000E+00 0.  1.
          2   -1    0    0  501    0  0.00000000000E+00 -0.00000000000E+00 -0.71430543735E+03  0.71430543735E+03  0.00000000000E+00 0. -1.
         25    2    1    2    0    0  0.39924545640E+02 -0.68938298142E+01 -0.27141873837E+03  0.30159244803E+03  0.12509348079E+03 0.  0.
          5    1    3    3  502    0  0.36861643952E+02 -0.56529925752E+02 -0.85023395054E+02  0.10863177899E+03  0.41800000000E+01 0.  1.
         -5    1    3    3    0  502  0.30629016885E+01  0.49636095937E+02 -0.18639534332E+03  0.19296066904E+03  0.41800000000E+01 0.  1.
        -11    1    1    2    0    0  0.28744124139E+02  0.67608639167E+00 -0.89821496669E+02  0.94311097063E+02  0.00000000000E+00 0.  1.
         11    1    1    2    0    0 -0.68668669779E+02  0.62177434226E+01 -0.33219350297E+03  0.33927359160E+03  0.00000000000E+00 0. -1.
</event>
<event>
 7    1  0.2564986E-009  0.5084453E+02  0.7561462E-02  0.1440839E+00
          3   -1    0    0  501    0  0.00000000000E+00  0.00000000000E+00  0.15941103661E+03  0.15941103661E+03  0.00000000000E+00 0. -1.
         -3   -1    0    0    0  501 -0.00000000000E+00 -0.00000000000E+00 -0.81098164705E+02  0.81098164705E+02  0.00000000000E+00 0.  1.
         25    2    1    2    0    0  0.18871483014E+02  0.16805170419E+02  0.32430107758E+02  0.13167298474E+03  0.12509003317E+03 0.  0.
          5    1    3    3  502    0 -0.26429423153E+01 -0.19549988400E+01 -0.46930758538E+02  0.47231087872E+02  0.41800000000E+01 0. -1.
         -5    1    3    3    0  502  0.21514425329E+02  0.18760169259E+02  0.79360866297E+02  0.84441896872E+02  0.41800000000E+01 0. -1.
        -11    1    1    2    0    0 -0.41595305036E+02 -0.16632256531E+02  0.65134910259E+02  0.79052880357E+02  0.00000000000E+00 0. -1.
         11    1    1    2    0    0  0.22723822021E+02 -0.17291388743E+00 -0.19252146109E+02  0.29783336218E+02  0.00000000000E+00 0.  1.
</event>
<event>
 7    1  0.2564986E-009  0.1614150E+03  0.7561462E-02  0.1187108E+00
         -1   -1    0    0    0  501 -0.00000000000E+00  0.00000000000E+00  0.24319335844E+03  0.24319335844E+03  0.00000000000E+00 0.  1.
          1   -1    0    0  501    0  0.00000000000E+00 -0.00000000000E+00 -0.12973139120E+03  0.12973139120E+03  0.00000000000E+00 0. -1.
         25    2    1    2    0    0  0.13115151363E+03 -0.16544776330E+02  0.13919182592E+02  0.18252692420E+03  0.12509150756E+03 0.  0.
          5    1    3    3  502    0  0.13298003793E+03 -0.51991013931E+02  0.25202018361E+02  0.14504954377E+03  0.41800000000E+01 0. -1.
         -5    1    3    3    0  502 -0.18285243067E+01  0.35446237601E+02 -0.11282835769E+02  0.37477380434E+02  0.41800000000E+01 0. -1.
        -11    1    1    2    0    0 -0.24766000265E+02 -0.19923764085E+02  0.65648635897E+02  0.72938703989E+02  0.00000000000E+00 0.  1.
         11    1    1    2    0    0 -0.10638551336E+03  0.36468540415E+02  0.33894148752E+02  0.11745912145E+03  0.00000000000E+00 0. -1.
</event>
<event>
 7    1  0.2564986E-009  0.7751922E+02  0.7561462E-02  0.1336243E+00
         -1   -1    0    0    0  501 -0.00000000000E+00  0.00000000000E+00  0.45164450313E+02  0.45164450313E+02  0.00000000000E+00 0.  1.
          1   -1    0    0  501    0  0.00000000000E+00 -0.00000000000E+00 -0.28626233159E+03  0.28626233159E+03  0.00000000000E+00 0. -1.
         25    2    1    2    0    0  0.86050330348E+01  0.20603168269E+02 -0.16094168377E+03  0.20505706379E+03  0.12509051402E+03 0.  0.
          5    1    3    3  502    0  0.52707311175E+02  0.40797479192E+02 -0.13324571790E+03  0.14904492175E+03  0.41800000000E+01 0.  1.
         -5    1    3    3    0  502 -0.44102278141E+02 -0.20194310923E+02 -0.27695965873E+02  0.56012142045E+02  0.41800000000E+01 0.  1.
        -11    1    1    2    0    0  0.11561646535E+02 -0.14407391227E+02 -0.97391228420E+02  0.99127675074E+02  0.00000000000E+00 0. -1.
         11    1    1    2    0    0 -0.20166679570E+02 -0.61957770425E+01  0.17235030918E+02  0.27242043036E+02  0.00000000000E+00 0.  1.
</event>
<event>
 7    1  0.2564986E-009  0.1239802E+03  0.7561462E-02  0.1236672E+00
         -3   -1    0    0    0  501 -0.00000000000E+00  0.00000000000E+00  0.79972510989E+02  0.79972510989E+02  0.00000000000E+00 0.  1.
          3   -1    0    0  501    0  0.00000000000E+00 -0.00000000000E+00 -0.26058706083E+03  0.26058706083E+03  0.00000000000E+00 0. -1.
         25    2    1    2    0    0 -0.15480448365E+02 -0.79894548871E+02 -0.15354649619E+03  0.21411875124E+03  0.12509008721E+03 0.  0.
          5    1    3    3  502    0 -0.70629468999E+01  0.21831471617E+02 -0.91871906649E+02  0.94786169894E+02  0.41800000000E+01 0.  1.
         -5    1    3    3    0  502 -0.84175014646E+01 -0.10172602049E+03 -0.61674589544E+02  0.11933258135E+03  0.41800000000E+01 0.  1.
        -11    1    1    2    0    0  0.53071468317E+02  0.59430191284E+02 -0.25322751535E+02  0.83604845138E+02  0.00000000000E+00 0. -1.
         11    1    1    2    0    0 -0.37591019952E+02  0.20464357587E+02 -0.17453021119E+01  0.42835975441E+02  0.00000000000E+00 0.  1.
</event>
<event>
 7    1  0.2564986E-009  0.1225979E+03  0.7561462E-02  0.1238872E+00
          2   -1    0    0  501    0  0.00000000000E+00  0.00000000000E+00  0.58968606722E+03  0.58968606722E+03  0.00000000000E+00 0. -1.
         -2   -1    0    0    0  501 -0.00000000000E+00 -0.00000000000E+00 -0.25573048181E+02  0.25573048181E+02  0.00000000000E+00 0.  1.
         25    2    1    2    0    0  0.23812259800E+02  0.43440695148E+02  0.30773975461E+03  0.33586443215E+03  0.12508813892E+03 0.  0.
          5    1    3    3  502    0  0.65194047894E+02  0.60890886006E+02  0.19738595704E+03  0.21664868409E+03  0.41800000000E+01 0.  1.
         -5    1    3    3    0  502 -0.41381788094E+02 -0.17450190858E+02  0.11035379757E+03  0.11921574806E+03  0.41800000000E+01 0.  1.
        -11    1    1    2    0    0 -0.60993804766E+02 -0.12155365798E+02  0.13412438258E+03  0.14784230497E+03  0.00000000000E+00 0.  1.
         11    1    1    2    0    0  0.37181544966E+02 -0.31285329350E+02  0.12224888184E+03  0.13155237828E+03  0.00000000000E+00 0. -1.
</event>
<event>
 7    1  0.2564986E-009  0.2173468E+03  0.7561462E-02  0.1135877E+00
         -2   -1    0    0    0  501 -0.00000000000E+00  0.00000000000E+00  0.24223527076E+02  0.24223527076E+02  0.00000000000E+00 0.  1.
          2   -1    0    0  501    0  0.00000000000E+00 -0.00000000000E+00 -0.22368059003E+04  0.22368059003E+04  0.00000000000E+00 0. -1.
         25    2    1    2    0    0  0.18886800250E+03 -0.74214291986E+02 -0.13039394848E+04  0.13255494828E+04  0.12507744645E+03 0.  0.
          5    1    3    3  502    0  0.19308483113E+03 -0.63988321172E+02 -0.12945774938E+04  0.13104673278E+04  0.41800000000E+01 0. -1.
         -5    1    3    3    0  502 -0.42168286352E+01 -0.10225970814E+02 -0.93619909996E+01  0.15082154962E+02  0.41800000000E+01 0. -1.
        -11    1    1    2    0    0 -0.11897131172E+03  0.21066017470E+01 -0.56864592758E+03  0.58096196238E+03  0.00000000000E+00 0. -1.
         11    1    1    2    0    0 -0.69896690774E+02  0.72107690239E+02 -0.33999696082E+03  0.35451798225E+03  0.00000000000E+00 0.  1.
</event>
<event>
 7    1  0.2564986E-009  0.2264799E+03  0.7561462E-02  0.1129142E+00
         -2   -1    0    0    0  501 -0.00000000000E+00  0.00000000000E+00  0.13408082929E+03  0.13408082929E+03  0.00000000000E+00 0. -1.
          2   -1    0    0  501    0  0.00000000000E+00 -0.00000000000E+00 -0.43287934596E+03  0.43287934596E+03  0.00000000000E+00 0.  1.
         25    2    1    2    0    0  0.70369496408E+02  0.19011905727E+03 -0.73589600320E+02  0.24932004284E+03  0.12509169647E+03 0.  0.
          5    1    3    3  502    0 -0.26058912233E+02  0.25491381508E+01 -0.21371071651E+01  0.26600839068E+02  0.41800000000E+01 0. -1.
         -5    1    3    3    0  502  0.96428408642E+02  0.18756991912E+03 -0.71452493154E+02  0.22271920378E+03  0.41800000000E+01 0. -1.
        -11    1    1    2    0    0 -0.19228928584E+02 -0.14800644672E+03 -0.11249055054E+03  0.18689511477E+03  0.00000000000E+00 0. -1.
         11    1    1    2    0    0 -0.51140567825E+02 -0.42112610557E+02 -0.11271836581E+03  0.13074501763E+03  0.00000000000E+00 0.  1.
</event>
<event>
 7    1  0.2564986E-009  0.9142771E+02  0.7561462E-02  0.1299431E+00
         -2   -1    0    0    0  501 -0.00000000000E+00  0.00000000000E+00  0.24271295576E+02  0.24271295576E+02  0.00000000000E+00 0. -1.
          2   -1    0    0  501    0  0.00000000000E+00 -0.00000000000E+00 -0.49979197121E+03  0.49979197121E+03  0.00000000000E+00 0.  1.
         25    2    1    2    0    0 -0.21942886656E+02  0.34917485232E+02 -0.31432873049E+03  0.34080873643E+03  0.12508925999E+03 0.  0.
          5    1    3    3  502    0 -0.26854840380E+02 -0.32150847147E+02 -0.22507608163E+03  0.22897941905E+03  0.41800000000E+01 0. -1.
         -5    1    3    3    0  502  0.49119537233E+01  0.67068332380E+02 -0.89252648859E+02  0.11182931738E+03  0.41800000000E+01 0. -1.
        -11    1    1    2    0    0 -0.13199186084E+02 -0.35872293996E+02 -0.33547254072E+02  0.50857233955E+02  0.00000000000E+00 0. -1.
         11    1    1    2    0    0  0.35142072740E+02  0.95480876375E+00 -0.12764469107E+03  0.13239729640E+03  0.00000000000E+00 0.  1.
</event>
<event>
 7    1  0.2564986E-009  0.7790061E+02  0.7561462E-02  0.1335117E+00
         -2   -1    0    0    0  501 -0.00000000000E+00  0.00000000000E+00  0.92773738828E+02  0.92773738828E+02  0.00000000000E+00 0. -1.
          2   -1    0    0  501    0  0.00000000000E+00 -0.00000000000E+00 -0.14034359206E+03  0.14034359206E+03  0.00000000000E+00 0.  1.
         25    2    1    2    0    0 -0.94206028513E+01 -0.24026582105E+02 -0.34009296221E+01  0.12777053469E+03  0.12509084221E+03 0.  0.
          5    1    3    3  502    0  0.24255965256E+02  0.18101657480E+02  0.45527803388E+02  0.54829509713E+02  0.41800000000E+01 0. -1.
         -5    1    3    3    0  502 -0.33676568108E+02 -0.42128239585E+02 -0.48928733010E+02  0.72941024972E+02  0.41800000000E+01 0. -1.
        -11    1    1    2    0    0  0.11719896112E+01 -0.23190436377E+02 -0.51841826985E+02  0.56804444581E+02  0.00000000000E+00 0.  1.
         11    1    1    2    0    0  0.82486132401E+01  0.47217018482E+02  0.76729033755E+01  0.48542351621E+02  0.00000000000E+00 0. -1.
</event>
<event>
 7    1  0.2564986E-009  0.8802894E+02  0.7561462E-02  0.1307696E+00
          2   -1    0    0  501    0  0.00000000000E+00  0.00000000000E+00  0.54948369348E+03  0.54948369348E+03  0.00000000000E+00 0. -1.
         -2   -1    0    0    0  501 -0.00000000000E+00 -0.00000000000E+00 -0.33923613331E+02  0.33923613331E+02  0.00000000000E+00 0.  1.
         25    2    1    2    0    0  0.32696195509E+02  0.48134471538E+02  0.40604337947E+03  0.42884213468E+03  0.12509349268E+03 0.  0.
          5    1    3    3  502    0  0.17366538809E+02  0.17401061306E+01 -0.18218716586E+01  0.18039297544E+02  0.41800000000E+01 0. -1.
         -5    1    3    3    0  502  0.15329656700E+02  0.46394365408E+02  0.40786525113E+03  0.41080283713E+03  0.41800000000E+01 0. -1.
        -11    1    1    2    0    0 -0.22647200440E+02 -0.76077016456E+02  0.79630409863E+02  0.11243491582E+03  0.00000000000E+00 0. -1.
         11    1    1    2    0    0 -0.10048995068E+02  0.27942544917E+02  0.29886290807E+02  0.42130256307E+02  0.00000000000E+00 0.  1.
</event>
<event>
 7    1  0.2564986E-009  0.6033593E+02  0.7561462E-02  0.1396427E+00
          2   -1    0    0  501    0  0.00000000000E+00  0.00000000000E+00  0.10945499623E+03  0.10945499623E+03  0.00000000000E+00 0. -1.
         -2   -1    0    0    0  501 -0.00000000000E+00 -0.00000000000E+00 -0.12161360523E+03  0.12161360523E+03  0.00000000000E+00 0.  1.
         25    2    1    2    0    0 -0.13335636497E+02  0.14868714849E+02 -0.41156949939E+02  0.13319219700E+03  0.12508936378E+03 0.  0.
          5    1    3    3  502    0  0.22522880675E+02  0.21640026078E+01  0.38480954864E+02  0.44835469759E+02  0.41800000000E+01 0.  1.
         -5    1    3    3    0  502 -0.35858517172E+02  0.12704712241E+02 -0.79637904804E+02  0.88356727240E+02  0.41800000000E+01 0.  1.
        -11    1    1    2    0    0 -0.18322495059E+02 -0.20216592032E+02  0.51766208254E+02  0.58516362973E+02  0.00000000000E+00 0. -1.
         11    1    1    2    0    0  0.31658131556E+02  0.53478771825E+01 -0.22767867321E+02  0.39360041493E+02  0.00000000000E+00 0.  1.
</event>
<event>
 7    1  0.2564986E-009  0.1040303E+03  0.7561462E-02  0.1272042E+00
          3   -1    0    0  501    0  0.00000000000E+00  0.00000000000E+00  0.12076003785E+03  0.12076003785E+03  0.00000000000E+00 0. -1.
         -3   -1    0    0    0  501 -0.00000000000E+00 -0.00000000000E+00 -0.10622582573E+03  0.10622582573E+03  0.00000000000E+00 0.  1.
         25    2    1    2    0    0  0.36358609844E+02 -0.15702010491E+02 -0.67393187834E+01  0.13138256714E+03  0.12508980330E+03 0.  0.
          5    1    3    3  502    0 -0.37141041896E+02  0.65571911644E+01 -0.32820350324E+02  0.50170723978E+02  0.41800000000E+01 0.  1.
         -5    1    3    3    0  502  0.73499651740E+02 -0.22259201655E+02  0.26081031541E+02  0.81211843166E+02  0.41800000000E+01 0.  1.
        -11    1    1    2    0    0 -0.62879450633E+02  0.10136361722E+01  0.14649397980E+02  0.64571337537E+02  0.00000000000E+00 0.  1.
         11    1    1    2    0    0  0.26520840789E+02  0.14688374319E+02  0.66241329174E+01  0.31031958900E+02  0.00000000000E+00 0. -1.
</event>
<event>
 7    1  0.2564986E-009  0.1034382E+03  0.7561462E-02  0.1273228E+00
          1   -1    0    0  501    0  0.00000000000E+00  0.00000000000E+00  0.19925900898E+02  0.19925900898E+02  0.00000000000E+00 0. -1.
         -1   -1    0    0    0  501 -0.00000000000E+00 -0.00000000000E+00 -0.59766569414E+03  0.59766569414E+03  0.00000000000E+00 0.  1.
         25    2    1    2    0    0  0.59387180307E+01  0.15944080821E+02 -0.31776379456E+03  0.34192245704E+03  0.12509058881E+03 0.  0.
          5    1    3    3  502    0  0.24469559773E+02 -0.47853835872E+02 -0.19450492899E+03  0.20183753061E+03  0.41800000000E+01 0.  1.
         -5    1    3    3    0  502 -0.18530841742E+02  0.63797916693E+02 -0.12325886558E+03  0.14008492643E+03  0.41800000000E+01 0.  1.
        -11    1    1    2    0    0  0.34729117046E+02 -0.27303129850E+02 -0.17869822884E+03  0.18407778101E+03  0.00000000000E+00 0. -1.
         11    1    1    2    0    0 -0.40667835077E+02  0.11359049029E+02 -0.81277769842E+02  0.91591356990E+02  0.00000000000E+00 0.  1.
</event>
<event>
 7    1  0.2564986E-009  0.7465167E+02  0.7561462E-02  0.1344953E+00
          4   -1    0    0  501    0  0.00000000000E+00  0.00000000000E+00  0.19733283825E+03  0.19733283825E+03  0.00000000000E+00 0. -1.
         -4   -1    0    0    0  501 -0.00000000000E+00 -0.00000000000E+00 -0.63223453934E+02  0.63223453934E+02  0.00000000000E+00 0.  1.
         25    2    1    2    0    0 -0.15578450225E+02  0.25590638813E+02  0.81543089653E+02  0.15229464655E+03  0.12508722953E+03 0.  0.
          5    1    3    3  502    0 -0.31555574743E+02  0.14952237721E+02 -0.25515100636E+02  0.43449010008E+02  0.41800000000E+01 0.  1.
         -5    1    3    3    0  502  0.15977124518E+02  0.10638401092E+02  0.10705819029E+03  0.10884563654E+03  0.41800000000E+01 0.  1.
        -11    1    1    2    0    0  0.50157514335E+02  0.20836387662E+01  0.24852323594E+02  0.56015674438E+02  0.00000000000E+00 0.  1.
         11    1    1    2    0    0 -0.34579064110E+02 -0.27674277580E+02  0.27713971074E+02  0.52245971204E+02  0.00000000000E+00 0. -1.
</event>
<event>
 7    1  0.2564986E-009  0.2021963E+03  0.7561462E-02  0.1147899E+00
          1   -1    0    0  501    0  0.00000000000E+00  0.00000000000E+00  0.55644166940E+03  0.55644166940E+03  0.00000000000E+00 0. -1.
         -1   -1    0    0    0  501 -0.00000000000E+00 -0.00000000000E+00 -0.90267483659E+02  0.90267483659E+02  0.00000000000E+00 0.  1.
         25    2    1    2    0    0  0.19276521526E+03 -0.25497984933E+02  0.28476446811E+03  0.36680621910E+03  0.12508966633E+03 0.  0.
          5    1    3    3  502    0  0.11199526486E+03 -0.44813391321E+02  0.24815364124E+03  0.27595086783E+03  0.41800000000E+01 0. -1.
         -5    1    3    3    0  502  0.80769950395E+02  0.19315406387E+02  0.36610826872E+02  0.90855351273E+02  0.41800000000E+01 0. -1.
        -11    1    1    2    0    0 -0.18129513396E+03  0.10419703790E+02  0.18648030826E+03  0.26029099330E+03  0.00000000000E+00 0.  1.
         11    1    1    2    0    0 -0.11470081301E+02  0.15078281144E+02 -0.50705906297E+01  0.19611940664E+02  0.00000000000E+00 0. -1.
</event>
<event>
 7    1  0.2564986E-009  0.9754046E+02  0.7561462E-02  0.1285555E+00
         -2   -1    0    0    0  501 -0.00000000000E+00  0.00000000000E+00  0.23348352358E+03  0.23348352358E+03  0.00000000000E+00 0.  1.
          2   -1    0    0  501    0  0.00000000000E+00 -0.00000000000E+00 -0.53799522948E+02  0.53799522948E+02  0.00000000000E+00 0. -1.
         25    2    1    2    0    0  0.10190514215E+02 -0.30252521468E+02  0.11546826816E+03  0.17319849418E+03  0.12508291569E+03 0.  0.
          5    1    3    3  502    0 -0.33706967718E+02  0.35131828148E+02  0.56662467349E+02  0.74823209152E+02  0.41800000000E+01 0. -1.
         -5    1    3    3    0  502  0.43897481932E+02 -0.65384349616E+02  0.58805800815E+02  0.98375285027E+02  0.41800000000E+01 0. -1.
        -11    1    1    2    0    0 -0.95217734985E+01 -0.17324648825E+02  0.63490664161E+02  0.66497158308E+02  0.00000000000E+00 0.  1.
         11    1    1    2    0    0 -0.66874071631E+00  0.47577170292E+02  0.72506830265E+00  0.47587394037E+02  0.00000000000E+00 0. -1.
</event>
<event>
 7    1  0.2564986E-009  0.1130697E+03  0.7561462E-02  0.1254989E+00
         -2   -1    0    0    0  501 -0.00000000000E+00  0.00000000000E+00  0.16978109266E+02  0.16978109266E+02  0.00000000000E+00 0.  1.
          2   -1    0    0  501    0  0.00000000000E+00 -0.00000000000E+00 -0.84552356524E+03  0.84552356524E+03  0.00000000000E+00 0. -1.
         25    2    1    2    0    0  0.49537083503E+02  0.13327076541E+02 -0.51399490205E+03  0.53147780522E+03  0.12508542877E+03 0.  0.
          5    1    3    3  502    0  0.91804209535E+02  0.64890151442E+01 -0.35687099125E+03  0.36857088464E+03  0.41800000000E+01 0.  1.
         -5    1    3    3    0  502 -0.42267126032E+02  0.68380613971E+01 -0.15712391081E+03  0.16290692058E+03  0.41800000000E+01 0.  1.
        -11    1    1    2    0    0 -0.23029097100E+02 -0.44479099665E+02 -0.92049742724E+02  0.10479448819E+03  0.00000000000E+00 0.  1.
         11    1    1    2    0    0 -0.26507986404E+02  0.31152023124E+02 -0.22250081120E+03  0.22622938110E+03  0.00000000000E+00 0. -1.
</event>
<event>
 7    1  0.2564986E-009  0.1239584E+03  0.7561462E-02  0.1236706E+00
         -4   -1    0    0    0  501 -0.00000000000E+00  0.00000000000E+00  0.29841328162E+03  0.29841328162E+03  0.00000000000E+00 0.  1.
          4   -1    0    0  501    0  0.00000000000E+00 -0.00000000000E+00 -0.58256595782E+02  0.58256595782E+02  0.00000000000E+00 0. -1.
         25    2    1    2    0    0  0.69196498498E+02  0.28457451431E+02  0.12189932867E+03  0.19001357681E+03  0.12509089134E+03 0.  0.
          5    1    3    3  502    0 -0.31448610223E+02  0.31813146875E+02  0.35469603106E+02  0.57242087169E+02  0.41800000000E+01 0.  1.
         -5    1    3    3    0  502  0.10064510872E+03 -0.33556954444E+01  0.86429725563E+02  0.13277148964E+03  0.41800000000E+01 0.  1.
        -11    1    1    2    0    0 -0.50352694790E+02  0.16876979852E+02  0.19872345274E+02  0.56702173046E+02  0.00000000000E+00 0. -1.
         11    1    1    2    0    0 -0.18843803709E+02 -0.45334431283E+02  0.98385011899E+02  0.10995412755E+03  0.00000000000E+00 0.  1.
</event>
<event>
 7    1  0.2564986E-009  0.8989671E+02  0.7561462E-02  0.1303102E+00
         -1   -1    0    0    0  501 -0.00000000000E+00  0.00000000000E+00  0.15502255950E+04  0.15502255950E+04  0.00000000000E+00 0.  1.
          1   -1    0    0  501    0  0.00000000000E+00 -0.00000000000E+00 -0.86989086325E+01  0.86989086325E+01  0.00000000000E+00 0. -1.
         25    2    1    2    0    0  0.18122851791E+02  0.33681308133E+02  0.98840167858E+03  0.99702016560E+03  0.12509382127E+03 0.  0.
          5    1    3    3  502    0  0.19161427155E+02  0.55395740129E+02  0.95584701286E+03  0.95765172830E+03  0.41800000000E+01 0.  1.
         -5    1    3    3    0  502 -0.10385753637E+01 -0.21714431996E+02  0.32554665723E+02  0.39368437307E+02  0.41800000000E+01 0.  1.
        -11    1    1    2    0    0  0.35543020904E+02 -0.22156979601E-01  0.20740351351E+03  0.21042700454E+03  0.00000000000E+00 0.  1.
         11    1    1    2    0    0 -0.53665872695E+02 -0.33659151153E+02  0.34572149426E+03  0.35147733347E+03  0.00000000000E+00 0. -1.
</event>
<event>
 7    1  0.2564986E-009  0.1400861E+03  0.7561462E-02  0.1213213E+00
         -2   -1    0    0    0  501 -0.00000000000E+00  0.00000000000E+00  0.36741442305E+02  0.36741442305E+02  0.00000000000E+00 0.  1.
          2   -1    0    0  501    0  0.00000000000E+00 -0.00000000000E+00 -0.78067305292E+03  0.78067305292E+03  0.00000000000E+00 0. -1.
         25    2    1    2    0    0  0.60626230849E+02 -0.11479104737E+03 -0.39245293650E+03  0.43187908616E+03  0.12509082011E+03 0.  0.
          5    1    3    3  502    0 -0.14844877518E+02 -0.69892277239E+01 -0.18761303794E+03  0.18837554007E+03  0.41800000000E+01 0.  1.
         -5    1    3    3    0  502  0.75471108367E+02 -0.10780181965E+03 -0.20483989856E+03  0.24350354609E+03  0.41800000000E+01 0.  1.
        -11    1    1    2    0    0 -0.13694858781E+02  0.48229869101E+02 -0.25215151591E+03  0.25708764343E+03  0.00000000000E+00 0. -1.
         11    1    1    2    0    0 -0.46931372068E+02  0.66561178272E+02 -0.99327158206E+02  0.12844776563E+03  0.00000000000E+00 0.  1.
</event>
<event>
 7    1  0.2564986E-009  0.2045363E+03  0.7561462E-02  0.1145967E+00
         -2   -1    0    0    0  501 -0.00000000000E+00  0.00000000000E+00  0.28869193543E+02  0.28869193543E+02  0.00000000000E+00 0.  1.
          2   -1    0    0  501    0  0.00000000000E+00 -0.00000000000E+00 -0.16564597711E+04  0.16564597711E+04  0.00000000000E+00 0. -1.
         25    2    1    2    0    0 -0.15612109275E+03 -0.10346577992E+03 -0.94324159633E+03  0.96975812465E+03  0.12508856085E+03 0.  0.
          5    1    3    3  502    0 -0.14000105301E+03 -0.52402127910E+02 -0.46370136747E+03  0.48721936378E+03  0.41800000000E+01 0. -1.
         -5    1    3    3    0  502 -0.16120039734E+02 -0.51063652008E+02 -0.47954022887E+03  0.48253876087E+03  0.41800000000E+01 0. -1.
        -11    1    1    2    0    0  0.11145638401E+02  0.50110207380E+02 -0.12133327184E+03  0.13174604736E+03  0.00000000000E+00 0.  1.
         11    1    1    2    0    0  0.14497545435E+03  0.53355572538E+02 -0.56301570940E+03  0.58382479265E+03  0.00000000000E+00 0. -1.
</event>
<event>
 7    1  0.2564986E-009  0.1173012E+03  0.7561462E-02  0.1247617E+00
          2   -1    0    0  501    0  0.00000000000E+00  0.00000000000E+00  0.18895601584E+04  0.18895601584E+04  0.00000000000E+00 0. -1.
         -2   -1    0    0    0  501 -0.00000000000E+00 -0.00000000000E+00 -0.12884343605E+02  0.12884343605E+02  0.00000000000E+00 0.  1.
         25    2    1    2    0    0 -0.81747092672E+02 -0.50545923715E+02  0.13821094131E+04  0.13910830666E+04  0.12509272906E+03 0.  0.
          5    1    3    3  502    0 -0.94513411961E+02 -0.39349882885E+02  0.13547061099E+04  0.13585754726E+04  0.41800000000E+01 0. -1.
         -5    1    3    3    0  502  0.12766319289E+02 -0.11196040830E+02  0.27403303260E+02  0.32507594005E+02  0.41800000000E+01 0. -1.
        -11    1    1    2    0    0  0.89924105764E+02  0.33891687638E+02  0.47408199621E+03  0.48372381626E+03  0.00000000000E+00 0. -1.
         11    1    1    2    0    0 -0.81770130917E+01  0.16654236077E+02  0.20484405425E+02  0.27637619074E+02  0.00000000000E+00 0.  1.
</event>
<event>
 7    1  0.2564986E-009  0.1311362E+03  0.7561462E-02  0.1225779E+00
         -2   -1    0    0    0  501 -0.00000000000E+00  0.00000000000E+00  0.14305240990E+02  0.14305240990E+02  0.00000000000E+00 0.  1.
          2   -1    0    0  501    0  0.00000000000E+00 -0.00000000000E+00 -0.18061047947E+04  0.18061047947E+04  0.00000000000E+00 0. -1.
         25    2    1    2    0    0  0.40282636057E+02  0.82188592820E+02 -0.13648019006E+04  0.13735748981E+04  0.12508444003E+03 0.  0.
          5    1    3    3  502    0  0.14174558259E+02  0.10072141547E+03 -0.12550514893E+04  0.12591733141E+04  0.41800000000E+01 0.  1.
         -5    1    3    3    0  502  0.26108077798E+02 -0.18532822653E+02 -0.10975041130E+03  0.11440158400E+03  0.41800000000E+01 0.  1.
        -11    1    1    2    0    0 -0.45305102571E+02  0.53466540952E+00 -0.20307650583E+03  0.20806947254E+03  0.00000000000E+00 0. -1.
         11    1    1    2    0    0  0.50224665141E+01 -0.82723258229E+02 -0.22392114722E+03  0.23876566502E+03  0.00000000000E+00 0.  1.
</event>
<event>
 7    1  0.2564986E-009  0.1128280E+03  0.7561462E-02  0.1255421E+00
         -2   -1    0    0    0  501 -0.00000000000E+00  0.00000000000E+00  0.16942864038E+02  0.16942864038E+02  0.00000000000E+00 0.  1.
          2   -1    0    0  501    0  0.00000000000E+00 -0.00000000000E+00 -0.84426031361E+03  0.84426031361E+03  0.00000000000E+00 0. -1.
         25    2    1    2    0    0 -0.35897343891E+02 -0.31382876347E+02 -0.52558119697E+03  0.54236163497E+03  0.12508814592E+03 0.  0.
          5    1    3    3  502    0 -0.42369053575E+02 -0.73041849670E+02 -0.25939124828E+03  0.27282144452E+03  0.41800000000E+01 0.  1.
         -5    1    3    3    0  502  0.64717096845E+01  0.41658973322E+02 -0.26618994869E+03  0.26954019045E+03  0.41800000000E+01 0.  1.
        -11    1    1    2    0    0  0.64703049175E+02  0.23989278205E+02 -0.24803394465E+03  0.25745447702E+03  0.00000000000E+00 0.  1.
         11    1    1    2    0    0 -0.28805705284E+02  0.73935981428E+01 -0.53702307951E+02  0.61387065655E+02  0.00000000000E+00 0. -1.
</event>
<event>
 7    1  0.2564986E-009  0.1319338E+03  0.7561462E-02  0.1224614E+00
         -1   -1    0    0    0  501 -0.00000000000E+00  0.00000000000E+00  0.11751068957E+02  0.11751068957E+02  0.00000000000E+00 0.  1.
          1   -1    0    0  501    0  0.00000000000E+00 -0.00000000000E+00 -0.15395468676E+04  0.15395468676E+04  0.00000000000E+00 0. -1.
         25    2    1    2    0    0  0.70489385860E+02 -0.79860509871E+01 -0.96255118844E+03  0.97323434419E+03  0.12509103817E+03 0.  0.
          5    1    3    3  502    0  0.92645212896E+02  0.31770100474E+02 -0.64200659615E+03  0.64944777824E+03  0.41800000000E+01 0.  1.
         -5    1    3    3    0  502 -0.22155827036E+02 -0.39756151461E+02 -0.32054459228E+03  0.32378656595E+03  0.41800000000E+01 0.  1.
        -11    1    1    2    0    0 -0.83741448675E+01  0.46366408906E+02 -0.18770398349E+03  0.19352714434E+03  0.00000000000E+00 0.  1.
         11    1    1    2    0    0 -0.62115240993E+02 -0.38380357918E+02 -0.37754062667E+03  0.38453644798E+03  0.00000000000E+00 0. -1.
</event>
<event>
 7    1  0.2564986E-009  0.1338420E+03  0.7561462E-02  0.1221864E+00
         -2   -1    0    0    0  501 -0.00000000000E+00  0.00000000000E+00  0.14751406749E+03  0.14751406749E+03  0.00000000000E+00 0.  1.
          2   -1    0    0  501    0  0.00000000000E+00 -0.00000000000E+00 -0.16771415125E+03  0.16771415125E+03  0.00000000000E+00 0. -1.
         25    2    1    2    0    0 -0.27594865566E+02 -0.10377083165E+03  0.26180503369E+02  0.16692250922E+03  0.12509133951E+03 0.  0.
          5    1    3    3  502    0 -0.36962418664E+02  0.12605736890E+02 -0.16419936615E+02  0.42570080038E+02  0.41800000000E+01 0.  1.
         -5    1    3    3    0  502  0.93675530976E+01 -0.11637656854E+03  0.42600439984E+02  0.12435242918E+03  0.41800000000E+01 0.  1.
        -11    1    1    2    0    0 -0.46420832639E+01  0.38540234591E+02  0.25164562756E+02  0.46261796745E+02  0.00000000000E+00 0.  1.
         11    1    1    2    0    0  0.32236948830E+02  0.65230597057E+02 -0.71545149893E+02  0.10204391278E+03  0.00000000000E+00 0. -1.
</event>
<event>
 7    1  0.2564986E-009  0.1224005E+03  0.7561462E-02  0.1239189E+00
         -4   -1    0    0    0  501 -0.00000000000E+00  0.00000000000E+00  0.12729385308E+03  0.12729385308E+03  0.00000000000E+00 0.  1.
          4   -1    0    0  501    0  0.00000000000E+00 -0.00000000000E+00 -0.15929936131E+03  0.15929936131E+03  0.00000000000E+00 0. -1.
         25    2    1    2    0    0 -0.65618289389E+02 -0.70509918102E+02 -0.84521973185E+01  0.15809345864E+03  0.12507874949E+03 0.  0.
          5    1    3    3  502    0  0.31266979894E+02 -0.29285165054E+02 -0.27407072148E+02  0.51028079796E+02  0.41800000000E+01 0.  1.
         -5    1    3    3    0  502 -0.96885269283E+02 -0.41224753048E+02  0.18954874830E+02  0.10706537885E+03  0.41800000000E+01 0.  1.
        -11    1    1    2    0    0  0.21181527684E+02  0.20379704756E+02 -0.48751660778E+02  0.56927268595E+02  0.00000000000E+00 0. -1.
         11    1    1    2    0    0  0.44436761705E+02  0.50130213346E+02  0.25198349875E+02  0.71572487154E+02  0.00000000000E+00 0.  1.
</event>
<event>
 7    1  0.2564986E-009  0.7344457E+02  0.7561462E-02  0.1348756E+00
          2   -1    0    0  501    0  0.00000000000E+00  0.00000000000E+00  0.21701313532E+03  0.21701313532E+03  0.00000000000E+00 0.  1.
         -2   -1    0    0    0  501 -0.00000000000E+00 -0.00000000000E+00 -0.56925365059E+02  0.56925365059E+02  0.00000000000E+00 0. -1.
         25    2    1    2    0    0  0.17829325870E+02  0.31171594634E+02  0.79759811363E+02  0.15264015436E+03  0.12509131081E+03 0.  0.
          5    1    3    3  502    0  0.27129596486E+02 -0.99608538977E+01  0.10107173952E+03  0.10520552526E+03  0.41800000000E+01 0.  1.
         -5    1    3    3    0  502 -0.93002706155E+01  0.41132448532E+02 -0.21311928158E+02  0.47434629097E+02  0.41800000000E+01 0.  1.
        -11    1    1    2    0    0 -0.15501075373E+01  0.20795574676E+02 -0.36881362656E+01  0.21176900354E+02  0.00000000000E+00 0.  1.
         11    1    1    2    0    0 -0.16279218333E+02 -0.51967169311E+02  0.84016095167E+02  0.10012144567E+03  0.00000000000E+00 0. -1.
</event>
<event>
 7    1  0.2564986E-009  0.9913724E+02  0.7561462E-02  0.1282121E+00
         -4   -1    0    0    0  501 -0.00000000000E+00  0.00000000000E+00  0.26536178033E+02  0.26536178033E+02  0.00000000000E+00 0.  1.
          4   -1    0    0  501    0  0.00000000000E+00 -0.00000000000E+00 -0.44711111616E+03  0.44711111616E+03  0.00000000000E+00 0. -1.
         25    2    1    2    0    0  0.11728557125E+02  0.13012419563E+02 -0.23235411188E+03  0.26446870897E+03  0.12509349543E+03 0.  0.
          5    1    3    3  502    0  0.34960418380E+02 -0.48756912190E+02 -0.10706406663E+03  0.12279924309E+03  0.41800000000E+01 0. -1.
         -5    1    3    3    0  502 -0.23231861254E+02  0.61769331754E+02 -0.12529004525E+03  0.14166946588E+03  0.41800000000E+01 0. -1.
        -11    1    1    2    0    0  0.19641292245E+02 -0.30360790233E+02 -0.15861986896E+03  0.16268933823E+03  0.00000000000E+00 0. -1.
         11    1    1    2    0    0 -0.31369849371E+02  0.17348370669E+02 -0.29600957288E+02  0.46489247002E+02  0.00000000000E+00 0.  1.
</event>
<event>
 7    1  0.2564986E-009  0.1258256E+03  0.7561462E-02  0.1233785E+00
          3   -1    0    0  501    0  0.00000000000E+00  0.00000000000E+00  0.62703087679E+03  0.62703087679E+03  0.00000000000E+00 0. -1.
         -3   -1    0    0    0  501 -0.00000000000E+00 -0.00000000000E+00 -0.28816392975E+02  0.28816392975E+02  0.00000000000E+00 0.  1.
         25    2    1    2    0    0 -0.69981309150E+02  0.33404450768E+02  0.37521908538E+03  0.40305091700E+03  0.12508972259E+03 0.  0.
          5    1    3    3  502    0  0.32745194028E+02 -0.11162124434E+02  0.78919773274E+02  0.86270758472E+02  0.41800000000E+01 0.  1.
         -5    1    3    3    0  502 -0.10272650318E+03  0.44566575202E+02  0.29629931211E+03  0.31678015852E+03  0.41800000000E+01 0.  1.
        -11    1    1    2    0    0 -0.10043450589E+02 -0.21649041007E+02  0.11760973877E+02  0.26605871209E+02  0.00000000000E+00 0.  1.
         11    1    1    2    0    0  0.80024759738E+02 -0.11755409761E+02  0.21123442456E+03  0.22619048156E+03  0.00000000000E+00 0. -1.
</event>
<event>
 7    1  0.2564986E-009  0.1206625E+03  0.7561462E-02  0.1242008E+00
         -1   -1    0    0    0  501 -0.00000000000E+00  0.00000000000E+00  0.54052017484E+02  0.54052017484E+02  0.00000000000E+00 0.  1.
          1   -1    0    0  501    0  0.00000000000E+00 -0.00000000000E+00 -0.72216886491E+03  0.72216886491E+03  0.00000000000E+00 0. -1.
         25    2    1    2    0    0  0.73569483759E+02  0.52261710343E+01 -0.63258061142E+03  0.64903185991E+03  0.12507734981E+03 0.  0.
          5    1    3    3  502    0  0.98915590899E+01  0.59122191103E+02 -0.31298062436E+03  0.31869675249E+03  0.41800000000E+01 0. -1.
         -5    1    3    3    0  502  0.63677924670E+02 -0.53896020069E+02 -0.31959998706E+03  0.33033510743E+03  0.41800000000E+01 0. -1.
        -11    1    1    2    0    0 -0.27772415333E+02  0.29286367510E+02  0.21989900604E+02  0.45962529347E+02  0.00000000000E+00 0.  1.
         11    1    1    2    0    0 -0.45797068426E+02 -0.34512538544E+02 -0.57526136608E+02  0.81226493130E+02  0.00000000000E+00 0. -1.
</event>
<event>
 7    1  0.2774300E-009  0.1937725E+03  0.7561462E-02  0.1155102E+00
          2   -1    0    0  501    0  0.00000000000E+00  0.00000000000E+00  0.51491793326E+03  0.51491793326E+03  0.00000000000E+00 0. -1.
         -2   -1    0    0    0  501 -0.00000000000E+00 -0.00000000000E+00 -0.10607676004E+03  0.10607676004E+03  0.00000000000E+00 0.  1.
         25    2    1    2    0    0 -0.17534006822E+03  0.61326231476E+02  0.91049312023E+02  0.24174534372E+03  0.12508312358E+03 0.  0.
          5    1    3    3  502    0 -0.58712959926E+02  0.46566361701E+02  0.98548823143E+02  0.12387485882E+03  0.41800000000E+01 0.  1.
         -5    1    3    3    0  502 -0.11662710829E+03  0.14759869775E+02 -0.74995111205E+01  0.11787048490E+03  0.41800000000E+01 0.  1.
        -11    1    1    2    0    0  0.81414123703E+02  0.22403510578E+01  0.72632211671E+02  0.10912706760E+03  0.00000000000E+00 0.  1.
         11    1    1    2    0    0  0.93925944513E+02 -0.63566582533E+02  0.24515964952E+03  0.27012228197E+03  0.00000000000E+00 0. -1.
</event>
<event>
 7    1  0.2564986E-009  0.4619512E+03  0.7561462E-02  0.1024217E+00
         -2   -1    0    0    0  501 -0.00000000000E+00  0.00000000000E+00  0.17509748500E+03  0.17509748500E+03  0.00000000000E+00 0.  1.
          2   -1    0    0  501    0  0.00000000000E+00 -0.00000000000E+00 -0.15386852243E+04  0.15386852243E+04  0.00000000000E+00 0. -1.
         25    2    1    2    0    0  0.40153873144E+03 -0.22637108004E+03 -0.10263464744E+04  0.11320407036E+04  0.12510735605E+03 0.  0.
          5    1    3    3  502    0  0.32014987617E+03 -0.16059473637E+03 -0.65899708382E+03  0.75005415901E+03  0.41800000000E+01 0. -1.
         -5    1    3    3    0  502  0.81388855271E+02 -0.65776343665E+02 -0.36734939055E+03  0.38198654464E+03  0.41800000000E+01 0. -1.
        -11    1    1    2    0    0 -0.25166943086E+03  0.13919448062E+03 -0.14237568056E+03  0.32091033059E+03  0.00000000000E+00 0.  1.
         11    1    1    2    0    0 -0.14986930058E+03  0.87176599416E+02 -0.19486558437E+03  0.26083167506E+03  0.00000000000E+00 0. -1.
</event>
<event>
 7    1  0.2564986E-009  0.8770458E+02  0.7561462E-02  0.1308508E+00
          3   -1    0    0  501    0  0.00000000000E+00  0.00000000000E+00  0.25135786335E+02  0.25135786335E+02  0.00000000000E+00 0. -1.
         -3   -1    0    0    0  501 -0.00000000000E+00 -0.00000000000E+00 -0.46394749601E+03  0.46394749601E+03  0.00000000000E+00 0.  1.
         25    2    1    2    0    0 -0.32029943843E+02  0.39057105281E+01 -0.20895365337E+03  0.24566433199E+03  0.12509261719E+03 0.  0.
          5    1    3    3  502    0 -0.34104741595E+02 -0.52002535585E+02 -0.60080927779E+02  0.86571285016E+02  0.41800000000E+01 0.  1.
         -5    1    3    3    0  502  0.20747977520E+01  0.55908246113E+02 -0.14887272559E+03  0.15909304697E+03  0.41800000000E+01 0.  1.
        -11    1    1    2    0    0  0.32856850157E+02  0.16353540265E+02 -0.21542863670E+03  0.21853262546E+03  0.00000000000E+00 0.  1.
         11    1    1    2    0    0 -0.82690631403E+00 -0.20259250793E+02 -0.14429419604E+02  0.24886324896E+02  0.00000000000E+00 0. -1.
</event>
<event>
 7    1  0.2564986E-009  0.1060206E+03  0.7561462E-02  0.1268122E+00
          2   -1    0    0  501    0  0.00000000000E+00  0.00000000000E+00  0.18581783417E+03  0.18581783417E+03  0.00000000000E+00 0. -1.
         -2   -1    0    0    0  501 -0.00000000000E+00 -0.00000000000E+00 -0.12845607255E+03  0.12845607255E+03  0.00000000000E+00 0.  1.
         25    2    1    2    0    0 -0.29453080272E+01 -0.93088679934E+02 -0.27393977056E+02  0.15834266925E+03  0.12509114180E+03 0.  0.
          5    1    3    3  502    0  0.14481852604E+01 -0.16845872330E+02  0.47929342521E+02  0.50995832473E+02  0.41800000000E+01 0.  1.
         -5    1    3    3    0  502 -0.43934932876E+01 -0.76242807604E+02 -0.75323319578E+02  0.10734683678E+03  0.41800000000E+01 0.  1.
        -11    1    1    2    0    0 -0.32658886187E+02  0.24381279987E+02 -0.54453834083E+00  0.40759614605E+02  0.00000000000E+00 0.  1.
         11    1    1    2    0    0  0.35604194214E+02  0.68707399947E+02  0.85300277022E+02  0.11517162286E+03  0.00000000000E+00 0. -1.
</event>
<event>
 7    1  0.2564986E-009  0.8879344E+02  0.7561462E-02  0.1305800E+00
         -1   -1    0    0    0  501 -0.00000000000E+00  0.00000000000E+00  0.23192534238E+02  0.23192534238E+02  0.00000000000E+00 0.  1.
          1   -1    0    0  501    0  0.00000000000E+00 -0.00000000000E+00 -0.64946988676E+03  0.64946988676E+03  0.00000000000E+00 0. -1.
         25    2    1    2    0    0 -0.54191612036E+02  0.10531415824E+02 -0.36122421422E+03  0.38623586856E+03  0.12509025416E+03 0.  0.
          5    1    3    3  502    0  0.95154138935E+01  0.14076784223E+02  0.18305436534E+01  0.17593244320E+02  0.41800000000E+01 0. -1.
         -5    1    3    3    0  502 -0.63707025930E+02 -0.35453683991E+01 -0.36305475787E+03  0.36864262424E+03  0.41800000000E+01 0. -1.
        -11    1    1    2    0    0 -0.41540208718E+01  0.26642906627E+02 -0.25606106372E+02  0.37185656461E+02  0.00000000000E+00 0.  1.
         11    1    1    2    0    0  0.58345632908E+02 -0.37174322451E+02 -0.23944703193E+03  0.24924089598E+03  0.00000000000E+00 0. -1.
</event>
<event>
 7    1  0.2564986E-009  0.1518134E+03  0.7561462E-02  0.1198262E+00
         -3   -1    0    0    0  501 -0.00000000000E+00  0.00000000000E+00  0.49039658278E+02  0.49039658278E+02  0.00000000000E+00 0.  1.
          3   -1    0    0  501    0  0.00000000000E+00 -0.00000000000E+00 -0.49638798444E+03  0.49638798444E+03  0.00000000000E+00 0. -1.
         25    2    1    2    0    0  0.15553132045E+02 -0.10441197469E+03 -0.30184742780E+03  0.34336997035E+03  0.12508919414E+03 0.  0.
          5    1    3    3  502    0  0.70238964250E+02 -0.50786158485E+02 -0.15178573552E+03  0.17484029255E+03  0.41800000000E+01 0. -1.
         -5    1    3    3    0  502 -0.54685832205E+02 -0.53625816210E+02 -0.15006169228E+03  0.16852967780E+03  0.41800000000E+01 0. -1.
        -11    1    1    2    0    0 -0.54189418069E+02  0.52666673096E+02 -0.81351078851E+02  0.11103274074E+03  0.00000000000E+00 0.  1.
         11    1    1    2    0    0  0.38636286024E+02  0.51745301599E+02 -0.64149819510E+02  0.91024931631E+02  0.00000000000E+00 0. -1.
</event>
<event>
 7    1  0.2564986E-009  0.9649965E+02  0.7561462E-02  0.1287834E+00
         -1   -1    0    0    0  501 -0.00000000000E+00  0.00000000000E+00  0.39690786302E+03  0.39690786302E+03  0.00000000000E+00 0.  1.
          1   -1    0    0  501    0  0.00000000000E+00 -0.00000000000E+00 -0.33608512730E+02  0.33608512730E+02  0.00000000000E+00 0. -1.
         25    2    1    2    0    0 -0.23445272392E+02  0.41814457581E+01  0.16639878115E+03  0.20952969934E+03  0.12508787012E+03 0.  0.
          5    1    3    3  502    0  0.33072441157E+02  0.24184544791E+02  0.10578421179E+02  0.42521217827E+02  0.41800000000E+01 0. -1.
         -5    1    3    3    0  502 -0.56517713549E+02 -0.20003099033E+02  0.15582035997E+03  0.16700848151E+03  0.41800000000E+01 0. -1.
        -11    1    1    2    0    0  0.46281736301E+02  0.26605739733E+02  0.67677286018E+02  0.86197909166E+02  0.00000000000E+00 0. -1.
         11    1    1    2    0    0 -0.22836463909E+02 -0.30787185491E+02  0.12922328312E+03  0.13478876725E+03  0.00000000000E+00 0.  1.
</event>
<event>
 7    1  0.2564986E-009  0.1100044E+03  0.7561462E-02  0.1260562E+00
          3   -1    0    0  501    0  0.00000000000E+00  0.00000000000E+00  0.24331885697E+03  0.24331885697E+03  0.00000000000E+00 0. -1.
         -3   -1    0    0    0  501 -0.00000000000E+00 -0.00000000000E+00 -0.70332976042E+02  0.70332976042E+02  0.00000000000E+00 0.  1.
         25    2    1    2    0    0  0.46361131039E+02 -0.54109595724E+02  0.10551676600E+03  0.17848891845E+03  0.12508918132E+03 0.  0.
          5    1    3    3  502    0  0.79508257446E+02 -0.46497905904E+02  0.11044329547E+03  0.14387081765E+03  0.41800000000E+01 0.  1.
         -5    1    3    3    0  502 -0.33147126407E+02 -0.76116898205E+01 -0.49265294713E+01  0.34618100809E+02  0.41800000000E+01 0.  1.
        -11    1    1    2    0    0 -0.26392091601E+02 -0.85773929912E+01 -0.13478651356E+02  0.30851065005E+02  0.00000000000E+00 0.  1.
         11    1    1    2    0    0 -0.19969039438E+02  0.62686988715E+02  0.80947766280E+02  0.10431184955E+03  0.00000000000E+00 0. -1.
</event>
<event>
 7    1  0.2564986E-009  0.1447443E+03  0.7561462E-02  0.1207084E+00
          1   -1    0    0  501    0  0.00000000000E+00  0.00000000000E+00  0.18930594012E+03  0.18930594012E+03  0.00000000000E+00 0. -1.
         -1   -1    0    0    0  501 -0.00000000000E+00 -0.00000000000E+00 -0.16189918136E+03  0.16189918136E+03  0.00000000000E+00 0.  1.
         25    2    1    2    0    0  0.22060127859E+02 -0.12396629185E+03  0.79573777128E+02  0.19450991564E+03  0.12509128875E+03 0.  0.
          5    1    3    3  502    0  0.41154197044E+02 -0.12361290220E+03  0.10144597320E+03  0.16517437877E+03  0.41800000000E+01 0.  1.
         -5    1    3    3    0  502 -0.19094069186E+02 -0.35338965248E+00 -0.21872196075E+02  0.29335536870E+02  0.41800000000E+01 0.  1.
        -11    1    1    2    0    0  0.17999604450E+02  0.70607648925E+02 -0.52774214535E+02  0.89969681376E+02  0.00000000000E+00 0. -1.
         11    1    1    2    0    0 -0.40059732308E+02  0.53358642924E+02  0.60719617381E+00  0.66725524460E+02  0.00000000000E+00 0.  1.
</event>
<event>
 7    1  0.2564986E-009  0.3181133E+03  0.7561462E-02  0.1076521E+00
         -1   -1    0    0    0  501 -0.00000000000E+00  0.00000000000E+00  0.18733354975E+03  0.18733354975E+03  0.00000000000E+00 0.  1.
          1   -1    0    0  501    0  0.00000000000E+00 -0.00000000000E+00 -0.59722865724E+03  0.59722865724E+03  0.00000000000E+00 0. -1.
         25    2    1    2    0    0 -0.26623339954E+03 -0.16973486786E+03 -0.21786514925E+03  0.40348657349E+03  0.12508414500E+03 0.  0.
          5    1    3    3  502    0 -0.13644340707E+03 -0.11890654722E+03 -0.18776767526E+03  0.26082511876E+03  0.41800000000E+01 0. -1.
         -5    1    3    3    0  502 -0.12978999247E+03 -0.50828320638E+02 -0.30097473993E+02  0.14266145473E+03  0.41800000000E+01 0. -1.
        -11    1    1    2    0    0  0.22021051072E+03  0.13956325057E+03 -0.19559913409E+03  0.32592881309E+03  0.00000000000E+00 0. -1.
         11    1    1    2    0    0  0.46022888820E+02  0.30171617286E+02  0.35691758518E+01  0.55146820409E+02  0.00000000000E+00 0.  1.
</event>
<event>
 7    1  0.2564986E-009  0.8782739E+02  0.7561462E-02  0.1308200E+00
         -2   -1    0    0    0  501 -0.00000000000E+00  0.00000000000E+00  0.19277981459E+02  0.19277981459E+02  0.00000000000E+00 0.  1.
          2   -1    0    0  501    0  0.00000000000E+00 -0.00000000000E+00 -0.77368348280E+03  0.77368348280E+03  0.00000000000E+00 0. -1.
         25    2    1    2    0    0 -0.51478385862E+02 -0.53887804746E+01 -0.46923590052E+03  0.48837280399E+03  0.12508637884E+03 0.  0.
          5    1    3    3  502    0 -0.26309385453E+01 -0.23659531222E+02 -0.99843582473E+01  0.26150622648E+02  0.41800000000E+01 0.  1.
         -5    1    3    3    0  502 -0.48847447316E+02  0.18270750748E+02 -0.45925154228E+03  0.46222218134E+03  0.41800000000E+01 0.  1.
        -11    1    1    2    0    0 -0.19023477803E+02  0.19525065178E+02 -0.35429265137E+02  0.44702949635E+02  0.00000000000E+00 0.  1.
         11    1    1    2    0    0  0.70501863664E+02 -0.14136284703E+02 -0.24974033568E+03  0.25988571063E+03  0.00000000000E+00 0. -1.
</event>
<event>
 7    1  0.2564986E-009  0.1113123E+03  0.7561462E-02  0.1258159E+00
         -4   -1    0    0    0  501 -0.00000000000E+00  0.00000000000E+00  0.11297047341E+03  0.11297047341E+03  0.00000000000E+00 0. -1.
          4   -1    0    0  501    0  0.00000000000E+00 -0.00000000000E+00 -0.16147191680E+03  0.16147191680E+03  0.00000000000E+00 0.  1.
         25    2    1    2    0    0  0.10728308852E+02  0.72816205161E+02 -0.46642986448E+02  0.15244110477E+03  0.12508167689E+03 0.  0.
          5    1    3    3  502    0  0.28053389734E+02 -0.41240554583E+01  0.30630268330E+02  0.41948614363E+02  0.41800000000E+01 0. -1.
         -5    1    3    3    0  502 -0.17325080882E+02  0.76940260619E+02 -0.77273254778E+02  0.11049249040E+03  0.41800000000E+01 0. -1.
        -11    1    1    2    0    0 -0.34954480685E+02  0.32975207227E+01 -0.19555129117E+02  0.40188212670E+02  0.00000000000E+00 0.  1.
         11    1    1    2    0    0  0.24226171832E+02 -0.76113725884E+02  0.17696672181E+02  0.81813072769E+02  0.00000000000E+00 0. -1.
</event>
<event>
 7    1  0.2564986E-009  0.5992639E+02  0.7561462E-02  0.1398141E+00
         -2   -1    0    0    0  501 -0.00000000000E+00  0.00000000000E+00  0.10848509899E+03  0.10848509899E+03  0.00000000000E+00 0.  1.
          2   -1    0    0  501    0  0.00000000000E+00 -0.00000000000E+00 -0.13618486046E+03  0.13618486046E+03  0.00000000000E+00 0. -1.
         25    2    1    2    0    0  0.25906857418E+02  0.20334828060E+02 -0.60181332199E+02  0.14266735541E+03  0.12509001183E+03 0.  0.
          5    1    3    3  502    0  0.26431220377E+02 -0.13972240043E+02 -0.91298137313E+02  0.96159529841E+02  0.41800000000E+01 0. -1.
         -5    1    3    3    0  502 -0.52436295922E+00  0.34307068103E+02  0.31116805114E+02  0.46507825565E+02  0.41800000000E+01 0. -1.
        -11    1    1    2    0    0  0.19180954139E+01 -0.26525597148E+02 -0.25844202345E+02  0.37083813031E+02  0.00000000000E+00 0. -1.
         11    1    1    2    0    0 -0.27824952832E+02  0.61907690879E+01  0.58325773076E+02  0.64918791016E+02  0.00000000000E+00 0.  1.
</event>
<event>
 7    1  0.2564986E-009  0.1061315E+03  0.7561462E-02  0.1267906E+00
          2   -1    0    0  501    0  0.00000000000E+00  0.00000000000E+00  0.63539630347E+03  0.63539630347E+03  0.00000000000E+00 0.  1.
         -2   -1    0    0    0  501 -0.00000000000E+00 -0.00000000000E+00 -0.20140174932E+02  0.20140174932E+02  0.00000000000E+00 0. -1.
         25    2    1    2    0    0  0.27475362430E+02  0.10654653151E+02  0.30054620549E+03  0.32687126052E+03  0.12509349361E+03 0.  0.
          5    1    3    3  502    0 -0.60463535809E+01 -0.48807041825E+02  0.65108402609E+02  0.81702277898E+02  0.41800000000E+01 0.  1.
         -5    1    3    3    0  502  0.33521716011E+02  0.59461694977E+02  0.23543780288E+03  0.24516898262E+03  0.41800000000E+01 0.  1.
        -11    1    1    2    0    0  0.18129584975E+02  0.28922168607E+02  0.12503539939E+03  0.12961105195E+03  0.00000000000E+00 0.  1.
         11    1    1    2    0    0 -0.45604947405E+02 -0.39576821759E+02  0.18967452366E+03  0.19905416593E+03  0.00000000000E+00 0. -1.
</event>
<event>
 7    1  0.2564986E-009  0.1025130E+03  0.7561462E-02  0.1275099E+00
          1   -1    0    0  501    0  0.00000000000E+00  0.00000000000E+00  0.13788692032E+03  0.13788692032E+03  0.00000000000E+00 0. -1.
         -1   -1    0    0    0  501 -0.00000000000E+00 -0.00000000000E+00 -0.98854639243E+02  0.98854639243E+02  0.00000000000E+00 0.  1.
         25    2    1    2    0    0 -0.45235335114E+02 -0.77018336227E+01  0.21426920679E+02  0.13495335514E+03  0.12509093233E+03 0.  0.
          5    1    3    3  502    0 -0.66492946818E+02 -0.48855514291E+02  0.29546705659E+02  0.87741970963E+02  0.41800000000E+01 0. -1.
         -5    1    3    3    0  502  0.21257611704E+02  0.41153680669E+02 -0.81197849804E+01  0.47211384179E+02  0.41800000000E+01 0. -1.
        -11    1    1    2    0    0  0.22657369112E+01  0.28200939636E+02 -0.25108462010E+02  0.37826728971E+02  0.00000000000E+00 0.  1.
         11    1    1    2    0    0  0.42969598203E+02 -0.20499106014E+02  0.42713822408E+02  0.63961475450E+02  0.00000000000E+00 0. -1.
</event>
<event>
 7    1  0.2564986E-009  0.1179818E+03  0.7561462E-02  0.1246464E+00
          2   -1    0    0  501    0  0.00000000000E+00  0.00000000000E+00  0.12672919555E+03  0.12672919555E+03  0.00000000000E+00 0. -1.
         -2   -1    0    0    0  501 -0.00000000000E+00 -0.00000000000E+00 -0.14959267826E+03  0.14959267826E+03  0.00000000000E+00 0.  1.
         25    2    1    2    0    0 -0.79605713539E+02  0.25633100541E+02  0.24721238924E+01  0.15049244465E+03  0.12509092304E+03 0.  0.
          5    1    3    3  502    0 -0.31715416343E+02  0.52031299918E+02 -0.46658260051E+02  0.76860844622E+02  0.41800000000E+01 0.  1.
         -5    1    3    3    0  502 -0.47890297196E+02 -0.26398199377E+02  0.49130383944E+02  0.73631600025E+02  0.41800000000E+01 0.  1.
        -11    1    1    2    0    0  0.32701203623E+02 -0.55512547626E+02 -0.27780946882E+02  0.70162615915E+02  0.00000000000E+00 0.  1.
         11    1    1    2    0    0  0.46904509916E+02  0.29879447086E+02  0.24453402780E+01  0.55666813253E+02  0.00000000000E+00 0. -1.
</event>
<event>
 7    1  0.2564986E-009  0.1867427E+03  0.7561462E-02  0.1161432E+00
          1   -1    0    0  501    0  0.00000000000E+00  0.00000000000E+00  0.85521191974E+03  0.85521191974E+03  0.00000000000E+00 0. -1.
         -1   -1    0    0    0  501 -0.00000000000E+00 -0.00000000000E+00 -0.63395209358E+02  0.63395209358E+02  0.00000000000E+00 0.  1.
         25    2    1    2    0    0  0.16604184146E+03 -0.50528565197E+02  0.19066930877E+03  0.28657581721E+03  0.12509150525E+03 0.  0.
          5    1    3    3  502    0  0.93197053674E+02  0.14608899965E+02  0.15685719886E+03  0.18308676633E+03  0.41800000000E+01 0. -1.
         -5    1    3    3    0  502  0.72844787784E+02 -0.65137465162E+02  0.33812109914E+02  0.10348905088E+03  0.41800000000E+01 0. -1.
        -11    1    1    2    0    0 -0.91511915487E+02  0.54678317823E+02  0.46186165273E+03  0.47400457316E+03  0.00000000000E+00 0.  1.
         11    1    1    2    0    0 -0.74529925971E+02 -0.41497526261E+01  0.13928574889E+03  0.15802673873E+03  0.00000000000E+00 0. -1.
</event>
<event>
 7    1  0.2564986E-009  0.1065881E+03  0.7561462E-02  0.1267022E+00
          1   -1    0    0  501    0  0.00000000000E+00  0.00000000000E+00  0.10095931496E+03  0.10095931496E+03  0.00000000000E+00 0. -1.
         -1   -1    0    0    0  501 -0.00000000000E+00 -0.00000000000E+00 -0.27402402130E+03  0.27402402130E+03  0.00000000000E+00 0.  1.
         25    2    1    2    0    0 -0.96039338414E+02 -0.42980168791E+01 -0.14003149819E+01  0.15777332485E+03  0.12509369960E+03 0.  0.
          5    1    3    3  502    0  0.50949311623E+01 -0.13378224231E+02  0.44005641373E+02  0.46464008434E+02  0.41800000000E+01 0. -1.
         -5    1    3    3    0  502 -0.10113426958E+03  0.90802073518E+01 -0.45405956355E+02  0.11130931641E+03  0.41800000000E+01 0. -1.
        -11    1    1    2    0    0  0.26394427876E+02  0.55857055031E+01 -0.13657509396E+03  0.13921430322E+03  0.00000000000E+00 0.  1.
         11    1    1    2    0    0  0.69644910538E+02 -0.12876886240E+01 -0.35089297390E+02  0.77995708197E+02  0.00000000000E+00 0. -1.
</event>
<event>
 7    1  0.2564986E-009  0.1658639E+03  0.7561462E-02  0.1182231E+00
         -1   -1    0    0    0  501 -0.00000000000E+00  0.00000000000E+00  0.47522934439E+03  0.47522934439E+03  0.00000000000E+00 0.  1.
          1   -1    0    0  501    0  0.00000000000E+00 -0.00000000000E+00 -0.76392070018E+02  0.76392070018E+02  0.00000000000E+00 0. -1.
         25    2    1    2    0    0  0.12841746971E+03 -0.84572832261E+02  0.16342845647E+03  0.25690146664E+03  0.12508354286E+03 0.  0.
          5    1    3    3  502    0  0.32911881897E+02 -0.66825202722E+02  0.13723577649E+03  0.15620477086E+03  0.41800000000E+01 0. -1.
         -5    1    3    3    0  502  0.95505587809E+02 -0.17747629539E+02  0.26192679974E+02  0.10069669578E+03  0.41800000000E+01 0. -1.
        -11    1    1    2    0    0 -0.77033295655E+02  0.75209353866E+02  0.90361240848E+02  0.14055507602E+03  0.00000000000E+00 0. -1.
         11    1    1    2    0    0 -0.51384174051E+02  0.93634783950E+01  0.14504757705E+03  0.15416487174E+03  0.00000000000E+00 0.  1.
</event>
<event>
 7    1  0.2564986E-009  0.1098695E+03  0.7561462E-02  0.1260812E+00
          2   -1    0    0  501    0  0.00000000000E+00  0.00000000000E+00  0.91714940308E+02  0.91714940308E+02  0.00000000000E+00 0. -1.
         -2   -1    0    0    0  501 -0.00000000000E+00 -0.00000000000E+00 -0.23178371891E+03  0.23178371891E+03  0.00000000000E+00 0.  1.
         25    2    1    2    0    0 -0.49257946780E+02  0.55114060868E+02 -0.61992760076E+01  0.14543043579E+03  0.12509066953E+03 0.  0.
          5    1    3    3  502    0 -0.21806508346E+02 -0.15926011043E+02 -0.50359457816E+02  0.57294930190E+02  0.41800000000E+01 0.  1.
         -5    1    3    3    0  502 -0.27451438434E+02  0.71040071911E+02  0.44160181808E+02  0.88135505595E+02  0.41800000000E+01 0.  1.
        -11    1    1    2    0    0  0.63067581965E+02 -0.40008094632E+01 -0.85767851041E+02  0.10653473914E+03  0.00000000000E+00 0. -1.
         11    1    1    2    0    0 -0.13809635185E+02 -0.51113251405E+02 -0.48101651556E+02  0.71533484296E+02  0.00000000000E+00 0.  1.
</event>
<event>
 7    1  0.2564986E-009  0.8100320E+02  0.7561462E-02  0.1326228E+00
         -1   -1    0    0    0  501 -0.00000000000E+00  0.00000000000E+00  0.12091525585E+03  0.12091525585E+03  0.00000000000E+00 0.  1.
          1   -1    0    0  501    0  0.00000000000E+00 -0.00000000000E+00 -0.12827611349E+03  0.12827611349E+03  0.00000000000E+00 0. -1.
         25    2    1    2    0    0 -0.43900020181E+02 -0.77607439759E+01 -0.45849350560E+02  0.14049132262E+03  0.12509279702E+03 0.  0.
          5    1    3    3  502    0 -0.17140261113E+02 -0.37352853249E+02 -0.78540831219E+02  0.88742091284E+02  0.41800000000E+01 0.  1.
         -5    1    3    3    0  502 -0.26759759067E+02  0.29592109273E+02  0.32691480660E+02  0.51749231340E+02  0.41800000000E+01 0.  1.
        -11    1    1    2    0    0  0.16565069630E+02  0.37009513520E+02  0.52455497524E+02  0.66299961111E+02  0.00000000000E+00 0.  1.
         11    1    1    2    0    0  0.27334950551E+02 -0.29248769544E+02 -0.13967004605E+02  0.42400085602E+02  0.00000000000E+00 0. -1.
</event>
<event>
 7    1  0.3247779E-009  0.1223110E+03  0.7561462E-02  0.1239333E+00
          4   -1    0    0  501    0  0.00000000000E+00  0.00000000000E+00  0.43198154685E+03  0.43198154685E+03  0.00000000000E+00 0. -1.
         -4   -1    0    0    0  501 -0.00000000000E+00 -0.00000000000E+00 -0.42109225900E+02  0.42109225900E+02  0.00000000000E+00 0.  1.
         25    2    1    2    0    0 -0.26512245494E+02  0.74123721669E+02  0.19104390306E+03  0.24154176019E+03  0.12508966282E+03 0.  0.
          5    1    3    3  502    0 -0.34116858207E+02  0.10697863046E+03  0.16000387281E+03  0.19551751610E+03  0.41800000000E+01 0.  1.
         -5    1    3    3    0  502  0.76046127128E+01 -0.32854908787E+02  0.31040030250E+02  0.46024244088E+02  0.41800000000E+01 0.  1.
        -11    1    1    2    0    0 -0.18914213290E+02 -0.25282526317E+02  0.14030319609E+03  0.14381217068E+03  0.00000000000E+00 0. -1.
         11    1    1    2    0    0  0.45426458784E+02 -0.48841195352E+02  0.58525221801E+02  0.88736841886E+02  0.00000000000E+00 0.  1.
</event>
<event>
 7    1  0.2564986E-009  0.9788718E+02  0.7561462E-02  0.1284803E+00
          2   -1    0    0  501    0  0.00000000000E+00  0.00000000000E+00  0.21058883758E+03  0.21058883758E+03  0.00000000000E+00 0. -1.
         -2   -1    0    0    0  501 -0.00000000000E+00 -0.00000000000E+00 -0.70783426970E+02  0.70783426970E+02  0.00000000000E+00 0.  1.
         25    2    1    2    0    0 -0.44731584793E+02  0.28995574687E+02  0.87719701154E+02  0.16181541710E+03  0.12509126752E+03 0.  0.
          5    1    3    3  502    0 -0.15618906450E+02  0.77527480512E+02  0.52835994916E+02  0.95202811051E+02  0.41800000000E+01 0.  1.
         -5    1    3    3    0  502 -0.29112678343E+02 -0.48531905825E+02  0.34883706237E+02  0.66612606045E+02  0.41800000000E+01 0.  1.
        -11    1    1    2    0    0  0.27114331220E+02 -0.32017487981E+02 -0.19145011623E+02  0.46117653498E+02  0.00000000000E+00 0.  1.
         11    1    1    2    0    0  0.17617253574E+02  0.30219132940E+01  0.71230721080E+02  0.73439193957E+02  0.00000000000E+00 0. -1.
</event>
<event>
 7    1  0.2564986E-009  0.7319452E+02  0.7561462E-02  0.1349555E+00
          2   -1    0    0  501    0  0.00000000000E+00  0.00000000000E+00  0.32671460143E+03  0.32671460143E+03  0.00000000000E+00 0. -1.
         -2   -1    0    0    0  501 -0.00000000000E+00 -0.00000000000E+00 -0.50889075428E+02  0.50889075428E+02  0.00000000000E+00 0.  1.
         25    2    1    2    0    0 -0.62073725865E+01 -0.27749663605E+02  0.58790103519E+02  0.14111086352E+03  0.12508966475E+03 0.  0.
          5    1    3    3  502    0  0.53276682606E+01 -0.36944495817E+02 -0.31811467930E+02  0.49221151065E+02  0.41800000000E+01 0. -1.
         -5    1    3    3    0  502 -0.11535040847E+02  0.91948322120E+01  0.90601571449E+02  0.91889712459E+02  0.41800000000E+01 0. -1.
        -11    1    1    2    0    0  0.47736454771E+02  0.15787141787E+02  0.12805870993E+03  0.13757556523E+03  0.00000000000E+00 0.  1.
         11    1    1    2    0    0 -0.41529082185E+02  0.11962521818E+02  0.88976712555E+02  0.98917248103E+02  0.00000000000E+00 0. -1.
</event>
<event>
 7    1  0.2564986E-009  0.1332183E+03  0.7561462E-02  0.1222757E+00
         -1   -1    0    0    0  501 -0.00000000000E+00  0.00000000000E+00  0.56395322930E+02  0.56395322930E+02  0.00000000000E+00 0.  1.
          1   -1    0    0  501    0  0.00000000000E+00 -0.00000000000E+00 -0.70816981608E+03  0.70816981608E+03  0.00000000000E+00 0. -1.
         25    2    1    2    0    0  0.68183536650E+02  0.10255058332E+03 -0.56224549960E+03  0.58901087543E+03  0.12509273659E+03 0.  0.
          5    1    3    3  502    0  0.80605393639E+02  0.95935718000E+02 -0.28476410810E+03  0.31114138447E+03  0.41800000000E+01 0. -1.
         -5    1    3    3    0  502 -0.12421856989E+02  0.66148653162E+01 -0.27748139150E+03  0.27786949095E+03  0.41800000000E+01 0. -1.
        -11    1    1    2    0    0 -0.57117024264E+02 -0.61782707328E+02 -0.10131536580E+03  0.13169761096E+03  0.00000000000E+00 0. -1.
         11    1    1    2    0    0 -0.11066512386E+02 -0.40767875988E+02  0.11786372242E+02  0.43856652626E+02  0.00000000000E+00 0.  1.
</event>
<event>
 7    1  0.2564986E-009  0.1630069E+03  0.7561462E-02  0.1185343E+00
         -3   -1    0    0    0  501 -0.00000000000E+00  0.00000000000E+00  0.30120700431E+03  0.30120700431E+03  0.00000000000E+00 0.  1.
          3   -1    0    0  501    0  0.00000000000E+00 -0.00000000000E+00 -0.93197656118E+02  0.93197656118E+02  0.00000000000E+00 0. -1.
         25    2    1    2    0    0 -0.11937064758E+03  0.30583601689E+02  0.14664031907E+03  0.22876976393E+03  0.12509002166E+03 0.  0.
          5    1    3    3  502    0  0.95499523059E+01  0.41488385080E+02  0.18442516516E+02  0.46584187242E+02  0.41800000000E+01 0.  1.
         -5    1    3    3    0  502 -0.12892059988E+03 -0.10904783391E+02  0.12819780255E+03  0.18218557669E+03  0.41800000000E+01 0.  1.
        -11    1    1    2    0    0 -0.88567860158E+01 -0.23784064471E+02  0.11851975058E+02  0.28010599673E+02  0.00000000000E+00 0.  1.
         11    1    1    2    0    0  0.12822743359E+03 -0.67995372182E+01  0.49517054070E+02  0.13762429682E+03  0.00000000000E+00 0. -1.
</event>
<event>
 7    1  0.2564986E-009  0.9967894E+02  0.7561462E-02  0.1280973E+00
          2   -1    0    0  501    0  0.00000000000E+00  0.00000000000E+00  0.18707574415E+03  0.18707574415E+03  0.00000000000E+00 0. -1.
         -2   -1    0    0    0  501 -0.00000000000E+00 -0.00000000000E+00 -0.87883825511E+02  0.87883825511E+02  0.00000000000E+00 0.  1.
         25    2    1    2    0    0 -0.62571626151E+01 -0.69557394590E+02  0.60798376350E+02  0.15563337627E+03  0.12509165446E+03 0.  0.
          5    1    3    3  502    0  0.39443340507E+02 -0.46990775639E+02 -0.15839007868E+02  0.63500052565E+02  0.41800000000E+01 0.  1.
         -5    1    3    3    0  502 -0.45700503122E+02 -0.22566618951E+02  0.76637384218E+02  0.92133323701E+02  0.41800000000E+01 0.  1.
        -11    1    1    2    0    0  0.28962826163E+02  0.35925690509E+02 -0.18269658945E+02  0.49631451479E+02  0.00000000000E+00 0.  1.
         11    1    1    2    0    0 -0.22705663548E+02  0.33631704081E+02  0.56663201236E+02  0.69694741917E+02  0.00000000000E+00 0. -1.
</event>
<event>
 7    1  0.3155308E-009  0.2116056E+03  0.7561462E-02  0.1140301E+00
          2   -1    0    0  501    0  0.00000000000E+00  0.00000000000E+00  0.13783514531E+04  0.13783514531E+04  0.00000000000E+00 0.  1.
         -2   -1    0    0    0  501 -0.00000000000E+00 -0.00000000000E+00 -0.35636066926E+02  0.35636066926E+02  0.00000000000E+00 0. -1.
         25    2    1    2    0    0  0.15640570323E+03  0.10747902743E+03  0.80431662681E+03  0.83581493244E+03  0.12508748855E+03 0.  0.
          5    1    3    3  502    0  0.15935359341E+03  0.51649472792E+02  0.66136698792E+03  0.68226461207E+03  0.41800000000E+01 0. -1.
         -5    1    3    3    0  502 -0.29478901806E+01  0.55829554642E+02  0.14294963889E+03  0.15355032037E+03  0.41800000000E+01 0. -1.
        -11    1    1    2    0    0 -0.58417878225E+02 -0.77615705315E+02  0.17001005229E+03  0.19580670083E+03  0.00000000000E+00 0. -1.
         11    1    1    2    0    0 -0.97987825003E+02 -0.29863322119E+02  0.36838870705E+03  0.38236588673E+03  0.00000000000E+00 0.  1.
</event>
<event>
 7    1  0.2564986E-009  0.9487334E+02  0.7561462E-02  0.1291462E+00
          1   -1    0    0  501    0  0.00000000000E+00  0.00000000000E+00  0.38710774706E+03  0.38710774706E+03  0.00000000000E+00 0. -1.
         -1   -1    0    0    0  501 -0.00000000000E+00 -0.00000000000E+00 -0.33129107137E+02  0.33129107137E+02  0.00000000000E+00 0.  1.
         25    2    1    2    0    0 -0.24307752138E+02 -0.14781831606E+02  0.24735862510E+03  0.27864513061E+03  0.12508976794E+03 0.  0.
          5    1    3    3  502    0  0.35654513063E+02  0.28407727990E+02  0.49639008956E+02  0.67525898154E+02  0.41800000000E+01 0. -1.
         -5    1    3    3    0  502 -0.59962265201E+02 -0.43189559597E+02  0.19771961614E+03  0.21111923246E+03  0.41800000000E+01 0. -1.
        -11    1    1    2    0    0  0.13741612270E+02  0.40168786170E+02  0.13580094209E+02  0.44573335627E+02  0.00000000000E+00 0.  1.
         11    1    1    2    0    0  0.10566139868E+02 -0.25386954564E+02  0.93039920615E+02  0.97018387957E+02  0.00000000000E+00 0. -1.
</event>
<event>
 7    1  0.2564986E-009  0.1144066E+03  0.7561462E-02  0.1252620E+00
         -1   -1    0    0    0  501 -0.00000000000E+00  0.00000000000E+00  0.28193918959E+03  0.28193918959E+03  0.00000000000E+00 0.  1.
          1   -1    0    0  501    0  0.00000000000E+00 -0.00000000000E+00 -0.60943765859E+02  0.60943765859E+02  0.00000000000E+00 0. -1.
         25    2    1    2    0    0  0.36801010506E+02  0.49056601038E+02  0.68406469668E+02  0.15520696405E+03  0.12509553197E+03 0.  0.
          5    1    3    3  502    0 -0.17004470131E+02 -0.23564980913E+02  0.56863087700E+02  0.63994870674E+02  0.41800000000E+01 0. -1.
         -5    1    3    3    0  502  0.53805480636E+02  0.72621581950E+02  0.11543381968E+02  0.91212093380E+02  0.41800000000E+01 0. -1.
        -11    1    1    2    0    0 -0.21623799021E+02  0.25187480816E+02  0.40354252496E+02  0.52253837835E+02  0.00000000000E+00 0. -1.
         11    1    1    2    0    0 -0.15177211485E+02 -0.74244081854E+02  0.11223470156E+03  0.13542215356E+03  0.00000000000E+00 0.  1.
</event>
<event>
 7    1  0.2564986E-009  0.5907855E+02  0.7561462E-02  0.1401740E+00
          1   -1    0    0  501    0  0.00000000000E+00  0.00000000000E+00  0.72373512658E+02  0.72373512658E+02  0.00000000000E+00 0. -1.
         -1   -1    0    0    0  501 -0.00000000000E+00 -0.00000000000E+00 -0.18056731755E+03  0.18056731755E+03  0.00000000000E+00 0.  1.
         25    2    1    2    0    0 -0.15793784603E+02 -0.80564216883E-02 -0.23656594362E+02  0.12828390589E+03  0.12509069652E+03 0.  0.
          5    1    3    3  502    0  0.15206334174E+02 -0.34447364850E+01  0.47667266349E+02  0.50326329984E+02  0.41800000000E+01 0.  1.
         -5    1    3    3    0  502 -0.31000118777E+02  0.34366800633E+01 -0.71323860711E+02  0.77957575904E+02  0.41800000000E+01 0.  1.
        -11    1    1    2    0    0 -0.27359675210E+02 -0.10460859399E+01  0.25099590646E+01  0.27494472497E+02  0.00000000000E+00 0. -1.
         11    1    1    2    0    0  0.43153459812E+02  0.10541423616E+01 -0.87047169592E+02  0.97162451821E+02  0.00000000000E+00 0.  1.
</event>
<event>
 7    1  0.2564986E-009  0.2429777E+03  0.7561462E-02  0.1117825E+00
         -2   -1    0    0    0  501 -0.00000000000E+00  0.00000000000E+00  0.49951687962E+03  0.49951687962E+03  0.00000000000E+00 0.  1.
          2   -1    0    0  501    0  0.00000000000E+00 -0.00000000000E+00 -0.28341038849E+03  0.28341038849E+03  0.00000000000E+00 0. -1.
         25    2    1    2    0    0  0.22889443776E+03  0.34836346233E+02  0.39655200588E+03  0.47592747572E+03  0.12508890484E+03 0.  0.
          5    1    3    3  502    0  0.12322534871E+03  0.70640512255E+02  0.28305106522E+03  0.31671745525E+03  0.41800000000E+01 0. -1.
         -5    1    3    3    0  502  0.10566908905E+03 -0.35804166022E+02  0.11350094066E+03  0.15921002046E+03  0.41800000000E+01 0. -1.
        -11    1    1    2    0    0 -0.42377876081E+02 -0.13495439501E+02  0.29257612442E+01  0.44570969782E+02  0.00000000000E+00 0.  1.
         11    1    1    2    0    0 -0.18651656168E+03 -0.21340906732E+02 -0.18337127599E+03  0.26242882262E+03  0.00000000000E+00 0. -1.
</event>
<event>
 7    1  0.2564986E-009  0.1026076E+03  0.7561462E-02  0.1274906E+00
         -1   -1    0    0    0  501 -0.00000000000E+00  0.00000000000E+00  0.60803095160E+03  0.60803095160E+03  0.00000000000E+00 0.  1.
          1   -1    0    0  501    0  0.00000000000E+00 -0.00000000000E+00 -0.38279922711E+02  0.38279922711E+02  0.00000000000E+00 0. -1.
         25    2    1    2    0    0  0.50482936068E+02  0.64266856715E+02  0.16354463544E+03  0.22153128147E+03  0.12510197913E+03 0.  0.
          5    1    3    3  502    0  0.18819384981E+02  0.28865148153E+01 -0.18442269561E+02  0.26834509971E+02  0.41800000000E+01 0.  1.
         -5    1    3    3    0  502  0.31663551088E+02  0.61380341899E+02  0.18198690500E+03  0.19469677150E+03  0.41800000000E+01 0.  1.
        -11    1    1    2    0    0 -0.12736298148E+01 -0.67219837368E+02  0.30346281470E+03  0.31082118424E+03  0.00000000000E+00 0. -1.
         11    1    1    2    0    0 -0.49209306254E+02  0.29529806535E+01  0.10274357875E+03  0.11395840860E+03  0.00000000000E+00 0.  1.
</event>
<event>
 7    1  0.2564986E-009  0.1415746E+03  0.7561462E-02  0.1211226E+00
          2   -1    0    0  501    0  0.00000000000E+00  0.00000000000E+00  0.11892080921E+03  0.11892080921E+03  0.00000000000E+00 0. -1.
         -2   -1    0    0    0  501 -0.00000000000E+00 -0.00000000000E+00 -0.24534422221E+03  0.24534422221E+03  0.00000000000E+00 0.  1.
         25    2    1    2    0    0 -0.99256257322E+02  0.36229924245E+02 -0.14929499865E+03  0.22159391059E+03  0.12510176882E+03 0.  0.
          5    1    3    3  502    0 -0.91094292879E+01 -0.41340801764E+02 -0.56317769339E+02  0.70577667401E+02  0.41800000000E+01 0.  1.
         -5    1    3    3    0  502 -0.90146828034E+02  0.77570726009E+02 -0.92977229307E+02  0.15101624319E+03  0.41800000000E+01 0.  1.
        -11    1    1    2    0    0  0.11949564450E+02 -0.32048010110E+02 -0.25601153463E+02  0.42723367156E+02  0.00000000000E+00 0.  1.
         11    1    1    2    0    0  0.87306692873E+02 -0.41819141355E+01  0.48472739108E+02  0.99947753666E+02  0.00000000000E+00 0. -1.
</event>
<event>
 7    1  0.2564986E-009  0.1107418E+03  0.7561462E-02  0.1259202E+00
         -1   -1    0    0    0  501 -0.00000000000E+00  0.00000000000E+00  0.80724110010E+02  0.80724110010E+02  0.00000000000E+00 0.  1.
          1   -1    0    0  501    0  0.00000000000E+00 -0.00000000000E+00 -0.26305103545E+03  0.26305103545E+03  0.00000000000E+00 0. -1.
         25    2    1    2    0    0 -0.66939455585E+02  0.20460961779E+02 -0.26224659212E+02  0.14572401162E+03  0.12509281810E+03 0.  0.
          5    1    3    3  502    0  0.37105899254E+02  0.20318055602E+01 -0.34739982561E+01  0.37556851001E+02  0.41800000000E+01 0. -1.
         -5    1    3    3    0  502 -0.10404535484E+03  0.18429156219E+02 -0.22750660956E+02  0.10816716062E+03  0.41800000000E+01 0. -1.
        -11    1    1    2    0    0  0.40255433797E+02 -0.29782419223E+02 -0.12389041247E+02  0.51584695288E+02  0.00000000000E+00 0.  1.
         11    1    1    2    0    0  0.26684021788E+02  0.93214574432E+01 -0.14371322498E+03  0.14646643855E+03  0.00000000000E+00 0. -1.
</event>
<event>
 7    1  0.2564986E-009  0.1233002E+03  0.7561462E-02  0.1237750E+00
         -2   -1    0    0    0  501 -0.00000000000E+00  0.00000000000E+00  0.45052651508E+02  0.45052651508E+02  0.00000000000E+00 0.  1.
          2   -1    0    0  501    0  0.00000000000E+00 -0.00000000000E+00 -0.84806008981E+03  0.84806008981E+03  0.00000000000E+00 0. -1.
         25    2    1    2    0    0 -0.16038089770E+02 -0.11557184592E+03 -0.67859964727E+03  0.69982911184E+03  0.12509689290E+03 0.  0.
          5    1    3    3  502    0 -0.27124635675E+02 -0.22663962929E+02 -0.46788129398E+03  0.46923318162E+03  0.41800000000E+01 0. -1.
         -5    1    3    3    0  502  0.11086545905E+02 -0.92907882994E+02 -0.21071835329E+03  0.23059593022E+03  0.41800000000E+01 0. -1.
        -11    1    1    2    0    0 -0.20852944774E+01  0.16462140188E+02  0.14259084141E+02  0.21878573838E+02  0.00000000000E+00 0.  1.
         11    1    1    2    0    0  0.18123384247E+02  0.99109705735E+02 -0.13866687517E+03  0.17140505563E+03  0.00000000000E+00 0. -1.
</event>
<event>
 7    1  0.2564986E-009  0.8254815E+02  0.7561462E-02  0.1321972E+00
          1   -1    0    0  501    0  0.00000000000E+00  0.00000000000E+00  0.45234832953E+02  0.45234832953E+02  0.00000000000E+00 0. -1.
         -1   -1    0    0    0  501 -0.00000000000E+00 -0.00000000000E+00 -0.44679391111E+03  0.44679391111E+03  0.00000000000E+00 0.  1.
         25    2    1    2    0    0  0.16271366617E+01  0.50217080866E+02 -0.85976263680E+02  0.15988643830E+03  0.12508937786E+03 0.  0.
          5    1    3    3  502    0 -0.15536124895E+02  0.42758189172E+02 -0.11576857329E+03  0.12445669480E+03  0.41800000000E+01 0. -1.
         -5    1    3    3    0  502  0.17163261556E+02  0.74588916943E+01  0.29792309615E+02  0.35429743503E+02  0.41800000000E+01 0. -1.
        -11    1    1    2    0    0  0.24086988584E+02 -0.65867810782E+02 -0.25534838080E+03  0.26480473390E+03  0.00000000000E+00 0.  1.
         11    1    1    2    0    0 -0.25714125246E+02  0.15650729916E+02 -0.60234433677E+02  0.67337571863E+02  0.00000000000E+00 0. -1.
</event>
<event>
 7    1  0.2564986E-009  0.1006076E+03  0.7561462E-02  0.1279023E+00
         -2   -1    0    0    0  501 -0.00000000000E+00  0.00000000000E+00  0.18097117317E+02  0.18097117317E+02  0.00000000000E+00 0.  1.
          2   -1    0    0  501    0  0.00000000000E+00 -0.00000000000E+00 -0.79898394649E+03  0.79898394649E+03  0.00000000000E+00 0. -1.
         25    2    1    2    0    0  0.42458454935E+02  0.77369426054E+01 -0.52148308560E+03  0.53800967116E+03  0.12508883649E+03 0.  0.
          5    1    3    3  502    0  0.28581854303E+01 -0.54336918452E+02 -0.28907874387E+03  0.29418474211E+03  0.41800000000E+01 0. -1.
         -5    1    3    3    0  502  0.39600269504E+02  0.62073861058E+02 -0.23240434173E+03  0.24382492905E+03  0.41800000000E+01 0. -1.
        -11    1    1    2    0    0  0.35066627190E+01 -0.23911036162E+02 -0.12126142889E+02  0.27038448090E+02  0.00000000000E+00 0.  1.
         11    1    1    2    0    0 -0.45965117654E+02  0.16174093556E+02 -0.24727760069E+03  0.25203294456E+03  0.00000000000E+00 0. -1.
</event>
<event>
 7    1  0.2564986E-009  0.9726774E+02  0.7561462E-02  0.1286149E+00
         -1   -1    0    0    0  501 -0.00000000000E+00  0.00000000000E+00  0.30336459701E+02  0.30336459701E+02  0.00000000000E+00 0.  1.
          1   -1    0    0  501    0  0.00000000000E+00 -0.00000000000E+00 -0.50739422048E+03  0.50739422048E+03  0.00000000000E+00 0. -1.
         25    2    1    2    0    0  0.53270116202E+01  0.38394512071E+02 -0.17049059529E+03  0.21498172672E+03  0.12509030391E+03 0.  0.
          5    1    3    3  502    0  0.77228702368E+01  0.74940663916E+02 -0.53967685352E+02  0.92767070101E+02  0.41800000000E+01 0.  1.
         -5    1    3    3    0  502 -0.23958586167E+01 -0.36546151845E+02 -0.11652290993E+03  0.12221465662E+03  0.41800000000E+01 0.  1.
        -11    1    1    2    0    0  0.19195112224E+02  0.14407943501E+02 -0.22913675180E+02  0.33182490556E+02  0.00000000000E+00 0.  1.
         11    1    1    2    0    0 -0.24522123844E+02 -0.52802455573E+02 -0.28365349031E+03  0.28956646290E+03  0.00000000000E+00 0. -1.
</event>
<event>
 7    1  0.2564986E-009  0.9219352E+02  0.7561462E-02  0.1297625E+00
         -1   -1    0    0    0  501 -0.00000000000E+00  0.00000000000E+00  0.47431925364E+03  0.47431925364E+03  0.00000000000E+00 0.  1.
          1   -1    0    0  501    0  0.00000000000E+00 -0.00000000000E+00 -0.34031559810E+02  0.34031559810E+02  0.00000000000E+00 0. -1.
         25    2    1    2    0    0  0.63144302044E+02  0.28813213763E+02  0.24429241768E+03  0.28309662003E+03  0.12508999469E+03 0.  0.
          5    1    3    3  502    0 -0.18604030629E+02  0.22628224502E+02  0.16944098802E+03  0.17200542818E+03  0.41800000000E+01 0.  1.
         -5    1    3    3    0  502  0.81748332673E+02  0.61849892607E+01  0.74851429652E+02  0.11109119186E+03  0.41800000000E+01 0.  1.
        -11    1    1    2    0    0 -0.50649056445E+02 -0.12517682385E+02  0.19787124816E+03  0.20463394180E+03  0.00000000000E+00 0.  1.
         11    1    1    2    0    0 -0.12495245599E+02 -0.16295531378E+02 -0.18759720068E+01  0.20620251610E+02  0.00000000000E+00 0. -1.
</event>
<event>
 7    1  0.2564986E-009  0.8010285E+02  0.7561462E-02  0.1328760E+00
          1   -1    0    0  501    0  0.00000000000E+00  0.00000000000E+00  0.11988789397E+04  0.11988789397E+04  0.00000000000E+00 0. -1.
         -1   -1    0    0    0  501 -0.00000000000E+00 -0.00000000000E+00 -0.13100427181E+02  0.13100427181E+02  0.00000000000E+00 0.  1.
         25    2    1    2    0    0 -0.11647839046E+02 -0.16516322068E+02  0.95613743674E+03  0.96449849217E+03  0.12510028943E+03 0.  0.
          5    1    3    3  502    0 -0.33446541571E+02  0.94857649309E+01  0.75795582188E+02  0.83493074914E+02  0.41800000000E+01 0. -1.
         -5    1    3    3    0  502  0.21798702525E+02 -0.26002086999E+02  0.88034185455E+03  0.88100541726E+03  0.41800000000E+01 0. -1.
        -11    1    1    2    0    0  0.43671311720E+02  0.33233167101E+02  0.15777240878E+03  0.16704418528E+03  0.00000000000E+00 0.  1.
         11    1    1    2    0    0 -0.32023472674E+02 -0.16716845033E+02  0.71868666961E+02  0.80436689395E+02  0.00000000000E+00 0. -1.
</event>
<event>
 7    1  0.2564986E-009  0.1139400E+03  0.7561462E-02  0.1253443E+00
         -2   -1    0    0    0  501 -0.00000000000E+00  0.00000000000E+00  0.15893289854E+02  0.15893289854E+02  0.00000000000E+00 0.  1.
          2   -1    0    0  501    0  0.00000000000E+00 -0.00000000000E+00 -0.13134500639E+04  0.13134500639E+04  0.00000000000E+00 0. -1.
         25    2    1    2    0    0  0.43629802696E+02 -0.83490738428E+02 -0.78751852678E+03  0.80293685298E+03  0.12509155354E+03 0.  0.
          5    1    3    3  502    0  0.11436668527E+02 -0.48059882011E+02 -0.82276824894E+02  0.96059866544E+02  0.41800000000E+01 0. -1.
         -5    1    3    3    0  502  0.32193134168E+02 -0.35430856417E+02 -0.70524170188E+03  0.70687698643E+03  0.41800000000E+01 0. -1.
        -11    1    1    2    0    0  0.54719922953E+01 -0.17293279306E+02 -0.70102945804E+02  0.72411485409E+02  0.00000000000E+00 0. -1.
         11    1    1    2    0    0 -0.49101794991E+02  0.10078401773E+03 -0.43993530145E+03  0.45399501535E+03  0.00000000000E+00 0.  1.
</event>
<event>
 7    1  0.2564986E-009  0.7784549E+02  0.7561462E-02  0.1335279E+00
         -2   -1    0    0    0  501 -0.00000000000E+00  0.00000000000E+00  0.26964849774E+03  0.26964849774E+03  0.00000000000E+00 0.  1.
          2   -1    0    0  501    0  0.00000000000E+00 -0.00000000000E+00 -0.43983228443E+02  0.43983228443E+02  0.00000000000E+00 0. -1.
         25    2    1    2    0    0  0.17468561883E+02 -0.10718546565E+02  0.10050186727E+03  0.16176161116E+03  0.12508459388E+03 0.  0.
          5    1    3    3  502    0 -0.71918048043E+01 -0.37711713312E+02  0.11567891851E+03  0.12195482756E+03  0.41800000000E+01 0.  1.
         -5    1    3    3    0  502  0.24660366687E+02  0.26993166746E+02 -0.15177051243E+02  0.39806783600E+02  0.41800000000E+01 0.  1.
        -11    1    1    2    0    0  0.27658855593E+01  0.42503647018E+02  0.93154414482E+02  0.10243024490E+03  0.00000000000E+00 0.  1.
         11    1    1    2    0    0 -0.20234447442E+02 -0.31785100453E+02  0.32008987546E+02  0.49439870123E+02  0.00000000000E+00 0. -1.
</event>
<event>
 7    1  0.2564986E-009  0.1227927E+03  0.7561462E-02  0.1238560E+00
          2   -1    0    0  501    0  0.00000000000E+00  0.00000000000E+00  0.79739061859E+02  0.79739061859E+02  0.00000000000E+00 0. -1.
         -2   -1    0    0    0  501 -0.00000000000E+00 -0.00000000000E+00 -0.32379028701E+03  0.32379028701E+03  0.00000000000E+00 0.  1.
         25    2    1    2    0    0  0.82971636267E+01 -0.10262755917E+03 -0.20428930987E+03  0.26073423283E+03  0.12508780602E+03 0.  0.
          5    1    3    3  502    0 -0.13996775132E+02 -0.33621629018E+02  0.69888502551E+01  0.37318093197E+02  0.41800000000E+01 0. -1.
         -5    1    3    3    0  502  0.22293938759E+02 -0.69005930151E+02 -0.21127816012E+03  0.22341613963E+03  0.41800000000E+01 0. -1.
        -11    1    1    2    0    0  0.32165884998E+02  0.76663505900E+01 -0.29227176341E+01  0.33195773337E+02  0.00000000000E+00 0.  1.
         11    1    1    2    0    0 -0.40463048625E+02  0.94961208579E+02 -0.36839197651E+02  0.10959934271E+03  0.00000000000E+00 0. -1.
</event>
<event>
 7    1  0.2564986E-009  0.1348447E+03  0.7561462E-02  0.1220439E+00
          2   -1    0    0  501    0  0.00000000000E+00  0.00000000000E+00  0.96168990331E+03  0.96168990331E+03  0.00000000000E+00 0.  1.
         -2   -1    0    0    0  501 -0.00000000000E+00 -0.00000000000E+00 -0.20024977446E+02  0.20024977446E+02  0.00000000000E+00 0. -1.
         25    2    1    2    0    0  0.71569518329E+02 -0.48102189576E+02  0.55908009368E+03  0.57935617103E+03  0.12508798966E+03 0.  0.
          5    1    3    3  502    0  0.17113417658E+02 -0.80635197147E+02  0.23429446433E+03  0.24840747271E+03  0.41800000000E+01 0. -1.
         -5    1    3    3    0  502  0.54456100671E+02  0.32533007571E+02  0.32478562935E+03  0.33094869831E+03  0.41800000000E+01 0. -1.
        -11    1    1    2    0    0  0.20603920529E+02  0.25357074080E+01  0.85485282228E+02  0.87969794992E+02  0.00000000000E+00 0.  1.
         11    1    1    2    0    0 -0.92173438859E+02  0.45566482168E+02  0.29709954995E+03  0.31438891473E+03  0.00000000000E+00 0. -1.
</event>
<event>
 7    1  0.2564986E-009  0.4175861E+03  0.7561462E-02  0.1037855E+00
         -2   -1    0    0    0  501 -0.00000000000E+00  0.00000000000E+00  0.15987678725E+03  0.15987678725E+03  0.00000000000E+00 0.  1.
          2   -1    0    0  501    0  0.00000000000E+00 -0.00000000000E+00 -0.11349785277E+04  0.11349785277E+04  0.00000000000E+00 0. -1.
         25    2    1    2    0    0  0.34827865552E+03 -0.21942438594E+03 -0.48061626809E+03  0.64504610982E+03  0.12508958230E+03 0.  0.
          5    1    3    3  502    0  0.28929081104E+02 -0.54845899747E+02 -0.12462687224E+03  0.13926339841E+03  0.41800000000E+01 0. -1.
         -5    1    3    3    0  502  0.31934957442E+03 -0.16457848619E+03 -0.35598939585E+03  0.50578271141E+03  0.41800000000E+01 0. -1.
        -11    1    1    2    0    0 -0.28773954779E+03  0.19897719598E+03 -0.36594634162E+03  0.50626346582E+03  0.00000000000E+00 0.  1.
         11    1    1    2    0    0 -0.60539107735E+02  0.20447189960E+02 -0.12853913072E+03  0.14354573930E+03  0.00000000000E+00 0. -1.
</event>
<event>
 7    1  0.2564986E-009  0.1056792E+03  0.7561462E-02  0.1268787E+00
         -2   -1    0    0    0  501 -0.00000000000E+00  0.00000000000E+00  0.21445375881E+03  0.21445375881E+03  0.00000000000E+00 0.  1.
          2   -1    0    0  501    0  0.00000000000E+00 -0.00000000000E+00 -0.95475312772E+02  0.95475312772E+02  0.00000000000E+00 0. -1.
         25    2    1    2    0    0 -0.75123278490E+02 -0.34596559182E+02  0.11070829377E+03  0.18639609141E+03  0.12508696058E+03 0.  0.
          5    1    3    3  502    0 -0.88621580649E+02 -0.44203393250E+01  0.12226542445E+03  0.15112786101E+03  0.41800000000E+01 0. -1.
         -5    1    3    3    0  502  0.13498302159E+02 -0.30176219857E+02 -0.11557130687E+02  0.35268230403E+02  0.41800000000E+01 0. -1.
        -11    1    1    2    0    0  0.61437597667E+02  0.41238978777E+02 -0.31900479462E+02  0.80578361658E+02  0.00000000000E+00 0. -1.
         11    1    1    2    0    0  0.13685680823E+02 -0.66424195951E+01  0.40170631738E+02  0.42954618516E+02  0.00000000000E+00 0.  1.
</event>
<event>
 7    1  0.2564986E-009  0.1014172E+03  0.7561462E-02  0.1277344E+00
          2   -1    0    0  501    0  0.00000000000E+00  0.00000000000E+00  0.13595543248E+03  0.13595543248E+03  0.00000000000E+00 0. -1.
         -2   -1    0    0    0  501 -0.00000000000E+00 -0.00000000000E+00 -0.11546409002E+03  0.11546409002E+03  0.00000000000E+00 0.  1.
         25    2    1    2    0    0 -0.54201315965E+02  0.29479766771E+02  0.18084279834E+02  0.14065053921E+03  0.12509473891E+03 0.  0.
          5    1    3    3  502    0 -0.72988406717E+02  0.13005541322E+02  0.57416982891E+02  0.93864977198E+02  0.41800000000E+01 0.  1.
         -5    1    3    3    0  502  0.18787090752E+02  0.16474225449E+02 -0.39332703057E+02  0.46785562012E+02  0.41800000000E+01 0.  1.
        -11    1    1    2    0    0 -0.22308700113E+02 -0.44851186303E+01  0.17714083175E+02  0.28837183159E+02  0.00000000000E+00 0. -1.
         11    1    1    2    0    0  0.76510016078E+02 -0.24994648141E+02 -0.15307020549E+02  0.81931800139E+02  0.00000000000E+00 0.  1.
</event>
<event>
 7    1  0.2564986E-009  0.1407002E+03  0.7561462E-02  0.1212390E+00
          2   -1    0    0  501    0  0.00000000000E+00  0.00000000000E+00  0.30746736057E+02  0.30746736057E+02  0.00000000000E+00 0.  1.
         -2   -1    0    0    0  501 -0.00000000000E+00 -0.00000000000E+00 -0.89741536054E+03  0.89741536054E+03  0.00000000000E+00 0. -1.
         25    2    1    2    0    0  0.78565455792E+02 -0.90326360803E+02 -0.36424169367E+03  0.40329997263E+03  0.12508986456E+03 0.  0.
          5    1    3    3  502    0 -0.63430063473E+01 -0.12768068524E+02  0.56701951091E+01  0.15902226760E+02  0.41800000000E+01 0.  1.
         -5    1    3    3    0  502  0.84908462140E+02 -0.77558292278E+02 -0.36991188878E+03  0.38739774587E+03  0.41800000000E+01 0.  1.
        -11    1    1    2    0    0 -0.85914611402E+02  0.30462298529E+02 -0.31944885009E+03  0.33219999986E+03  0.00000000000E+00 0. -1.
         11    1    1    2    0    0  0.73491556096E+01  0.59864062274E+02 -0.18297808072E+03  0.19266212411E+03  0.00000000000E+00 0.  1.
</event>
<event>
 7    1  0.2564986E-009  0.9808463E+02  0.7561462E-02  0.1284376E+00
         -1   -1    0    0    0  501 -0.00000000000E+00  0.00000000000E+00  0.53088573242E+02  0.53088573242E+02  0.00000000000E+00 0.  1.
          1   -1    0    0  501    0  0.00000000000E+00 -0.00000000000E+00 -0.29033709692E+03  0.29033709692E+03  0.00000000000E+00 0. -1.
         25    2    1    2    0    0 -0.56543928132E+02  0.10576890353E+01 -0.89016032828E+02  0.16361439156E+03  0.12508988972E+03 0.  0.
          5    1    3    3  502    0  0.10802591754E+02  0.26288638942E+02  0.18519201295E+02  0.34179258954E+02  0.41800000000E+01 0.  1.
         -5    1    3    3    0  502 -0.67346519886E+02 -0.25230949907E+02 -0.10753523412E+03  0.12943513260E+03  0.41800000000E+01 0.  1.
        -11    1    1    2    0    0  0.74154947187E+02 -0.11329089184E+02 -0.84973514204E+02  0.11334814763E+03  0.00000000000E+00 0.  1.
         11    1    1    2    0    0 -0.17611019055E+02  0.10271400149E+02 -0.63258976646E+02  0.66463130979E+02  0.00000000000E+00 0. -1.
</event>
<event>
 7    1  0.2564986E-009  0.2332827E+03  0.7561462E-02  0.1124350E+00
         -2   -1    0    0    0  501 -0.00000000000E+00  0.00000000000E+00  0.71573712269E+02  0.71573712269E+02  0.00000000000E+00 0.  1.
          2   -1    0    0  501    0  0.00000000000E+00 -0.00000000000E+00 -0.86976403478E+03  0.86976403478E+03  0.00000000000E+00 0. -1.
         25    2    1    2    0    0 -0.19134108699E+03  0.10506007346E+03 -0.50832697866E+03  0.56717958793E+03  0.12508931657E+03 0.  0.
          5    1    3    3  502    0 -0.19206603424E+03  0.57560839652E+02 -0.36989918897E+03  0.42076774374E+03  0.41800000000E+01 0. -1.
         -5    1    3    3    0  502  0.72494724391E+00  0.47499233806E+02 -0.13842778969E+03  0.14641184419E+03  0.41800000000E+01 0. -1.
        -11    1    1    2    0    0  0.16862667462E+03 -0.91005276298E+02 -0.18647791247E+03  0.26737787408E+03  0.00000000000E+00 0.  1.
         11    1    1    2    0    0  0.22714412376E+02 -0.14054797159E+02 -0.10338543137E+03  0.10678028504E+03  0.00000000000E+00 0. -1.
</event>
<event>
 7    1  0.2564986E-009  0.1520477E+03  0.7561462E-02  0.1197979E+00
          1   -1    0    0  501    0  0.00000000000E+00  0.00000000000E+00  0.21947005805E+03  0.21947005805E+03  0.00000000000E+00 0. -1.
         -1   -1    0    0    0  501 -0.00000000000E+00 -0.00000000000E+00 -0.13336612199E+03  0.13336612199E+03  0.00000000000E+00 0.  1.
         25    2    1    2    0    0 -0.76638004115E+02 -0.87088385714E+02  0.10818254337E+03  0.20200967850E+03  0.12508667761E+03 0.  0.
          5    1    3    3  502    0 -0.72540325474E+02  0.11454052132E+01  0.16275424116E+02  0.74469944294E+02  0.41800000000E+01 0. -1.
         -5    1    3    3    0  502 -0.40976786411E+01 -0.88233790927E+02  0.91907119252E+02  0.12753973420E+03  0.41800000000E+01 0. -1.
        -11    1    1    2    0    0 -0.73103869920E+01  0.51167961755E+02 -0.28976683949E+02  0.59255803773E+02  0.00000000000E+00 0.  1.
         11    1    1    2    0    0  0.83948391107E+02  0.35920423959E+02  0.68980766402E+01  0.91570697760E+02  0.00000000000E+00 0. -1.
</event>
<event>
 7    1  0.2564986E-009  0.8344525E+02  0.7561462E-02  0.1319549E+00
          2   -1    0    0  501    0  0.00000000000E+00  0.00000000000E+00  0.99087591040E+02  0.99087591040E+02  0.00000000000E+00 0. -1.
         -2   -1    0    0    0  501 -0.00000000000E+00 -0.00000000000E+00 -0.14578518792E+03  0.14578518792E+03  0.00000000000E+00 0.  1.
         25    2    1    2    0    0 -0.31402010364E+02 -0.15815467852E+02 -0.63863104504E+02  0.14478964212E+03  0.12509727843E+03 0.  0.
          5    1    3    3  502    0 -0.39620072716E+02 -0.62888250527E+02 -0.14282233773E+02  0.75803277092E+02  0.41800000000E+01 0.  1.
         -5    1    3    3    0  502  0.82180623527E+01  0.47072782675E+02 -0.49580870731E+02  0.68986365030E+02  0.41800000000E+01 0.  1.
        -11    1    1    2    0    0  0.29158638615E+02  0.66941805702E+00  0.53344663000E+02  0.60797429197E+02  0.00000000000E+00 0. -1.
         11    1    1    2    0    0  0.22433717486E+01  0.15146049795E+02 -0.36179155376E+02  0.39285707642E+02  0.00000000000E+00 0.  1.
</event>
<event>
 7    1  0.2564986E-009  0.1096093E+03  0.7561462E-02  0.1261295E+00
         -2   -1    0    0    0  501 -0.00000000000E+00  0.00000000000E+00  0.39383718775E+02  0.39383718775E+02  0.00000000000E+00 0.  1.
          2   -1    0    0  501    0  0.00000000000E+00 -0.00000000000E+00 -0.34103318474E+03  0.34103318474E+03  0.00000000000E+00 0. -1.
         25    2    1    2    0    0  0.22454717992E+02 -0.21848831429E+02 -0.13532844327E+03  0.18692969865E+03  0.12508932362E+03 0.  0.
          5    1    3    3  502    0 -0.26295494469E+02 -0.59248980991E+02 -0.51418489496E+02  0.82844602962E+02  0.41800000000E+01 0.  1.
         -5    1    3    3    0  502  0.48750212461E+02  0.37400149562E+02 -0.83909953776E+02  0.10408509569E+03  0.41800000000E+01 0.  1.
        -11    1    1    2    0    0  0.23540541913E+02  0.37340942232E+02 -0.11335946709E+03  0.12165061389E+03  0.00000000000E+00 0.  1.
         11    1    1    2    0    0 -0.45995259905E+02 -0.15492110803E+02 -0.52961555598E+02  0.71836590970E+02  0.00000000000E+00 0. -1.
</event>
<event>
 7    1  0.2564986E-009  0.1221342E+03  0.7561462E-02  0.1239617E+00
          1   -1    0    0  501    0  0.00000000000E+00  0.00000000000E+00  0.24107323147E+03  0.24107323147E+03  0.00000000000E+00 0. -1.
         -1   -1    0    0    0  501 -0.00000000000E+00 -0.00000000000E+00 -0.11178708825E+03  0.11178708825E+03  0.00000000000E+00 0.  1.
         25    2    1    2    0    0  0.86927708869E+02 -0.38940829966E+01 -0.25826119816E+02  0.15455155688E+03  0.12509038660E+03 0.  0.
          5    1    3    3  502    0 -0.97241863735E+01  0.30698778966E+02  0.23987463321E+02  0.40371346611E+02  0.41800000000E+01 0. -1.
         -5    1    3    3    0  502  0.96651895242E+02 -0.34592861962E+02 -0.49813583138E+02  0.11418021027E+03  0.41800000000E+01 0. -1.
        -11    1    1    2    0    0 -0.73780846372E+02  0.30140687532E+02  0.62881924290E+02  0.10151950915E+03  0.00000000000E+00 0.  1.
         11    1    1    2    0    0 -0.13146862496E+02 -0.26246604536E+02  0.92230338742E+02  0.96789253679E+02  0.00000000000E+00 0. -1.
</event>
<event>
 7    1  0.2564986E-009  0.1371528E+03  0.7561462E-02  0.1217212E+00
          1   -1    0    0  501    0  0.00000000000E+00  0.00000000000E+00  0.76687354022E+02  0.76687354022E+02  0.00000000000E+00 0. -1.
         -1   -1    0    0    0  501 -0.00000000000E+00 -0.00000000000E+00 -0.25535230208E+03  0.25535230208E+03  0.00000000000E+00 0.  1.
         25    2    1    2    0    0 -0.87055034369E+02 -0.20239492578E+02 -0.70803692193E+02  0.16926096397E+03  0.12509154659E+03 0.  0.
          5    1    3    3  502    0 -0.11909611974E+03 -0.13541533849E+02 -0.62447625047E+02  0.13521995840E+03  0.41800000000E+01 0. -1.
         -5    1    3    3    0  502  0.32041085366E+02 -0.66979587286E+01 -0.83560671464E+01  0.34041005577E+02  0.41800000000E+01 0. -1.
        -11    1    1    2    0    0  0.22485457787E+02 -0.31448526140E+02 -0.27373040806E+02  0.47369705205E+02  0.00000000000E+00 0. -1.
         11    1    1    2    0    0  0.64569576582E+02  0.51688018718E+02 -0.80488215059E+02  0.11540898692E+03  0.00000000000E+00 0.  1.
</event>
<event>
 7    1  0.2564986E-009  0.1084374E+03  0.7561462E-02  0.1263491E+00
         -2   -1    0    0    0  501 -0.00000000000E+00  0.00000000000E+00  0.44694466312E+02  0.44694466312E+02  0.00000000000E+00 0.  1.
          2   -1    0    0  501    0  0.00000000000E+00 -0.00000000000E+00 -0.34652076278E+03  0.34652076278E+03  0.00000000000E+00 0. -1.
         25    2    1    2    0    0  0.27694087238E+01 -0.43888915340E+02 -0.22843491195E+03  0.26412933777E+03  0.12509153271E+03 0.  0.
          5    1    3    3  502    0 -0.38740845820E+02 -0.57361307849E+02 -0.65460388541E+02  0.95360933516E+02  0.41800000000E+01 0.  1.
         -5    1    3    3    0  502  0.41510254544E+02  0.13472392509E+02 -0.16297452341E+03  0.16876840425E+03  0.41800000000E+01 0.  1.
        -11    1    1    2    0    0  0.34593459198E+02 -0.11866607835E+02 -0.28019921219E+02  0.46072115058E+02  0.00000000000E+00 0.  1.
         11    1    1    2    0    0 -0.37362867922E+02  0.55755523175E+02 -0.45371463300E+02  0.81013776272E+02  0.00000000000E+00 0. -1.
</event>
<event>
 7    1  0.2564986E-009  0.1266912E+03  0.7561462E-02  0.1232450E+00
         -2   -1    0    0    0  501 -0.00000000000E+00  0.00000000000E+00  0.13552052824E+02  0.13552052824E+02  0.00000000000E+00 0.  1.
          2   -1    0    0  501    0  0.00000000000E+00 -0.00000000000E+00 -0.13166114699E+04  0.13166114699E+04  0.00000000000E+00 0. -1.
         25    2    1    2    0    0 -0.74523942060E+02 -0.13512957245E+02 -0.70430208511E+03  0.71932264608E+03  0.12508886488E+03 0.  0.
          5    1    3    3  502    0 -0.21375841396E+02 -0.60814220265E+02 -0.47006283874E+03  0.47448060102E+03  0.41800000000E+01 0.  1.
         -5    1    3    3    0  502 -0.53148100664E+02  0.47301263020E+02 -0.23423924637E+03  0.24484204506E+03  0.41800000000E+01 0.  1.
        -11    1    1    2    0    0 -0.20417312364E+02  0.94173159072E+01 -0.67364683494E+02  0.71017977057E+02  0.00000000000E+00 0.  1.
         11    1    1    2    0    0  0.94941254424E+02  0.40956413380E+01 -0.53139264850E+03  0.53982289961E+03  0.00000000000E+00 0. -1.
</event>
<event>
 7    1  0.2564986E-009  0.2460511E+03  0.7561462E-02  0.1115826E+00
         -2   -1    0    0    0  501 -0.00000000000E+00  0.00000000000E+00  0.67633023893E+02  0.67633023893E+02  0.00000000000E+00 0.  1.
          2   -1    0    0  501    0  0.00000000000E+00 -0.00000000000E+00 -0.10497380752E+04  0.10497380752E+04  0.00000000000E+00 0. -1.
         25    2    1    2    0    0 -0.22018386197E+03 -0.79296999479E+02 -0.64053825228E+03  0.69333057510E+03  0.12509630904E+03 0.  0.
          5    1    3    3  502    0  0.57250363037E+01  0.99061803062E+01 -0.54024663171E+01  0.13325445255E+02  0.41800000000E+01 0. -1.
         -5    1    3    3    0  502 -0.22590889828E+03 -0.89203179785E+02 -0.63513578596E+03  0.68000512984E+03  0.41800000000E+01 0. -1.
        -11    1    1    2    0    0  0.14330872132E+03  0.70236894019E+02 -0.15688899811E+03  0.22379626587E+03  0.00000000000E+00 0. -1.
         11    1    1    2    0    0  0.76875140657E+02  0.90601054598E+01 -0.18467780092E+03  0.20024425813E+03  0.00000000000E+00 0.  1.
</event>
<event>
 7    1  0.2564986E-009  0.9743247E+02  0.7561462E-02  0.1285790E+00
         -3   -1    0    0    0  501 -0.00000000000E+00  0.00000000000E+00  0.27600114228E+03  0.27600114228E+03  0.00000000000E+00 0.  1.
          3   -1    0    0  501    0  0.00000000000E+00 -0.00000000000E+00 -0.57670562194E+02  0.57670562194E+02  0.00000000000E+00 0. -1.
         25    2    1    2    0    0 -0.27849645343E+02  0.56080371101E+02  0.13583436478E+03  0.19498432060E+03  0.12508916763E+03 0.  0.
          5    1    3    3  502    0 -0.59026157952E+02  0.28330917102E+02  0.15309778763E+02  0.67369057528E+02  0.41800000000E+01 0. -1.
         -5    1    3    3    0  502  0.31176512609E+02  0.27749454000E+02  0.12052458601E+03  0.12761526307E+03  0.41800000000E+01 0. -1.
        -11    1    1    2    0    0 -0.15599443211E+02  0.93625625570E+00  0.62273827458E+02  0.64204741184E+02  0.00000000000E+00 0.  1.
         11    1    1    2    0    0  0.43449088554E+02 -0.57016627357E+02  0.20222387852E+02  0.74482642688E+02  0.00000000000E+00 0. -1.
</event>
<event>
 7    1  0.2564986E-009  0.9635300E+02  0.7561462E-02  0.1288158E+00
         -2   -1    0    0    0  501 -0.00000000000E+00  0.00000000000E+00  0.24750918190E+02  0.24750918190E+02  0.00000000000E+00 0.  1.
          2   -1    0    0  501    0  0.00000000000E+00 -0.00000000000E+00 -0.55665713190E+03  0.55665713190E+03  0.00000000000E+00 0. -1.
         25    2    1    2    0    0  0.10524811973E+02  0.37224520169E+02 -0.40188232164E+03  0.42267497537E+03  0.12509315641E+03 0.  0.
          5    1    3    3  502    0  0.62295855896E+02  0.31783262422E+02 -0.30135627480E+03  0.30939299635E+03  0.41800000000E+01 0.  1.
         -5    1    3    3    0  502 -0.51771043922E+02  0.54412577475E+01 -0.10052604685E+03  0.11328197902E+03  0.41800000000E+01 0.  1.
        -11    1    1    2    0    0 -0.17397524066E+02 -0.51618528494E+02 -0.13186864010E+03  0.14267615277E+03  0.00000000000E+00 0. -1.
         11    1    1    2    0    0  0.68727120930E+01  0.14394008324E+02  0.18447480392E+01  0.16056921949E+02  0.00000000000E+00 0.  1.
</event>
<event>
 7    1  0.2873129E-009  0.1407139E+03  0.7561462E-02  0.1212372E+00
          2   -1    0    0  501    0  0.00000000000E+00  0.00000000000E+00  0.11474094128E+04  0.11474094128E+04  0.00000000000E+00 0. -1.
         -2   -1    0    0    0  501 -0.00000000000E+00 -0.00000000000E+00 -0.20600874892E+02  0.20600874892E+02  0.00000000000E+00 0.  1.
         25    2    1    2    0    0  0.65638551974E+01 -0.92924897993E+02  0.82151242380E+03  0.83618681030E+03  0.12509036090E+03 0.  0.
          5    1    3    3  502    0  0.54677461984E+02 -0.78141247344E+01  0.37563809955E+03  0.37970006535E+03  0.41800000000E+01 0. -1.
         -5    1    3    3    0  502 -0.48113606787E+02 -0.85110773259E+02  0.44587432426E+03  0.45648674495E+03  0.41800000000E+01 0. -1.
        -11    1    1    2    0    0 -0.47257976723E+02  0.44336265412E+02  0.18199862616E+03  0.19319037429E+03  0.00000000000E+00 0.  1.
         11    1    1    2    0    0  0.40694121526E+02  0.48588632582E+02  0.12329748795E+03  0.13863310311E+03  0.00000000000E+00 0. -1.
</event>
<event>
 7    1  0.2564986E-009  0.1202558E+03  0.7561462E-02  0.1242676E+00
          1   -1    0    0  501    0  0.00000000000E+00  0.00000000000E+00  0.78328623369E+03  0.78328623369E+03  0.00000000000E+00 0. -1.
         -1   -1    0    0    0  501 -0.00000000000E+00 -0.00000000000E+00 -0.24879698346E+02  0.24879698346E+02  0.00000000000E+00 0.  1.
         25    2    1    2    0    0 -0.62714557070E+02  0.55502019576E+02  0.48272434488E+03  0.50565222138E+03  0.12509111080E+03 0.  0.
          5    1    3    3  502    0  0.19428135071E+02  0.39279137815E+02  0.58436484429E+02  0.73161453049E+02  0.41800000000E+01 0. -1.
         -5    1    3    3    0  502 -0.82142692140E+02  0.16222881761E+02  0.42428786045E+03  0.43249076833E+03  0.41800000000E+01 0. -1.
        -11    1    1    2    0    0 -0.11463156995E+02 -0.33316715235E+02  0.15630759901E+03  0.16022943859E+03  0.00000000000E+00 0. -1.
         11    1    1    2    0    0  0.74177714065E+02 -0.22185304341E+02  0.11937459145E+03  0.14228427206E+03  0.00000000000E+00 0.  1.
</event>
<event>
 7    1  0.2564986E-009  0.1739599E+03  0.7561462E-02  0.1173780E+00
         -1   -1    0    0    0  501 -0.00000000000E+00  0.00000000000E+00  0.52539672784E+02  0.52539672784E+02  0.00000000000E+00 0.  1.
          1   -1    0    0  501    0  0.00000000000E+00 -0.00000000000E+00 -0.86544635936E+03  0.86544635936E+03  0.00000000000E+00 0. -1.
         25    2    1    2    0    0  0.16244398141E+03  0.29468063487E+02 -0.25397763004E+03  0.32773229102E+03  0.12508958452E+03 0.  0.
          5    1    3    3  502    0  0.10382794454E+03  0.42734915944E+02 -0.65933422784E+02  0.13027357271E+03  0.41800000000E+01 0. -1.
         -5    1    3    3    0  502  0.58616036873E+02 -0.13266852457E+02 -0.18804420726E+03  0.19745871831E+03  0.41800000000E+01 0. -1.
        -11    1    1    2    0    0 -0.13405653041E+03  0.47716855437E+00 -0.50417389592E+03  0.52169214903E+03  0.00000000000E+00 0. -1.
         11    1    1    2    0    0 -0.28387451003E+02 -0.29945232042E+02 -0.54755160619E+02  0.68561592097E+02  0.00000000000E+00 0.  1.
</event>
<event>
 7    1  0.2564986E-009  0.1553671E+03  0.7561462E-02  0.1194029E+00
         -2   -1    0    0    0  501 -0.00000000000E+00  0.00000000000E+00  0.49081790685E+02  0.49081790685E+02  0.00000000000E+00 0.  1.
          2   -1    0    0  501    0  0.00000000000E+00 -0.00000000000E+00 -0.67274506599E+03  0.67274506599E+03  0.00000000000E+00 0. -1.
         25    2    1    2    0    0 -0.31652889248E+02  0.13466562886E+03 -0.23612099613E+03  0.30089642498E+03  0.12509515081E+03 0.  0.
          5    1    3    3  502    0 -0.24157961254E+02  0.20281643051E+02 -0.16022855420E+03  0.16335732036E+03  0.41800000000E+01 0.  1.
         -5    1    3    3    0  502 -0.74949279945E+01  0.11438398581E+03 -0.75892441934E+02  0.13753910461E+03  0.41800000000E+01 0.  1.
        -11    1    1    2    0    0  0.60667694046E+02 -0.11206071340E+03 -0.30632461018E+03  0.33177242108E+03  0.00000000000E+00 0.  1.
         11    1    1    2    0    0 -0.29014804797E+02 -0.22604915462E+02 -0.81217668987E+02  0.89158010612E+02  0.00000000000E+00 0. -1.
</event>
<event>
 7    1  0.2564986E-009  0.2018370E+03  0.7561462E-02  0.1148198E+00
          2   -1    0    0  501    0  0.00000000000E+00  0.00000000000E+00  0.61258051973E+03  0.61258051973E+03  0.00000000000E+00 0. -1.
         -2   -1    0    0    0  501 -0.00000000000E+00 -0.00000000000E+00 -0.90473733930E+02  0.90473733930E+02  0.00000000000E+00 0.  1.
         25    2    1    2    0    0  0.13495848661E+03  0.13128926555E+03  0.40423900003E+03  0.46314965076E+03  0.12509102883E+03 0.  0.
          5    1    3    3  502    0  0.60360905988E+01 -0.17180557867E+02  0.71170678329E+01  0.19993274191E+02  0.41800000000E+01 0.  1.
         -5    1    3    3    0  502  0.12892239601E+03  0.14846982342E+03  0.39712193220E+03  0.44315637656E+03  0.41800000000E+01 0.  1.
        -11    1    1    2    0    0 -0.99929213959E+02 -0.95132413761E+02  0.12839752672E+03  0.18847267393E+03  0.00000000000E+00 0. -1.
         11    1    1    2    0    0 -0.35029272649E+02 -0.36156851793E+02 -0.10529740946E+02  0.51431928977E+02  0.00000000000E+00 0.  1.
</event>
<event>
 7    1  0.2564986E-009  0.1417392E+03  0.7561462E-02  0.1211008E+00
          1   -1    0    0  501    0  0.00000000000E+00  0.00000000000E+00  0.17475010886E+04  0.17475010886E+04  0.00000000000E+00 0. -1.
         -1   -1    0    0    0  501 -0.00000000000E+00 -0.00000000000E+00 -0.15749520076E+02  0.15749520076E+02  0.00000000000E+00 0.  1.
         25    2    1    2    0    0 -0.77884714700E+02  0.88606738237E+02  0.11475730497E+04  0.11603831164E+04  0.12509152554E+03 0.  0.
          5    1    3    3  502    0 -0.15517096327E+00  0.52421685792E+02  0.82210264184E+03  0.82378291033E+03  0.41800000000E+01 0. -1.
         -5    1    3    3    0  502 -0.77729543736E+02  0.36185052445E+02  0.32547040781E+03  0.33660020610E+03  0.41800000000E+01 0. -1.
        -11    1    1    2    0    0  0.87930257291E+02 -0.42136019669E+02  0.45202925622E+03  0.46242580246E+03  0.00000000000E+00 0. -1.
         11    1    1    2    0    0 -0.10045542591E+02 -0.46470718568E+02  0.13214926262E+03  0.14044168975E+03  0.00000000000E+00 0.  1.
</event>
<event>
 7    1  0.2564986E-009  0.1093313E+03  0.7561462E-02  0.1261813E+00
         -1   -1    0    0    0  501 -0.00000000000E+00  0.00000000000E+00  0.52630964605E+02  0.52630964605E+02  0.00000000000E+00 0.  1.
          1   -1    0    0  501    0  0.00000000000E+00 -0.00000000000E+00 -0.33532526029E+03  0.33532526029E+03  0.00000000000E+00 0. -1.
         25    2    1    2    0    0 -0.52722043596E+02  0.44797289451E+02 -0.11138642008E+03  0.18122048586E+03  0.12509004315E+03 0.  0.
          5    1    3    3  502    0  0.60234777831E+01 -0.25184992968E+02  0.10989835785E+02  0.28439673802E+02  0.41800000000E+01 0. -1.
         -5    1    3    3    0  502 -0.58745521379E+02  0.69982282419E+02 -0.12237625586E+03  0.15278081206E+03  0.41800000000E+01 0. -1.
        -11    1    1    2    0    0  0.27471771920E+02  0.18296719996E+02 -0.11124540553E+03  0.11603882310E+03  0.00000000000E+00 0. -1.
         11    1    1    2    0    0  0.25250271676E+02 -0.63094009447E+02 -0.60062470075E+02  0.90696915931E+02  0.00000000000E+00 0.  1.
</event>
<event>
 7    1  0.2564986E-009  0.1129035E+03  0.7561462E-02  0.1255286E+00
         -2   -1    0    0    0  501 -0.00000000000E+00  0.00000000000E+00  0.25223027055E+02  0.25223027055E+02  0.00000000000E+00 0.  1.
          2   -1    0    0  501    0  0.00000000000E+00 -0.00000000000E+00 -0.53822229752E+03  0.53822229752E+03  0.00000000000E+00 0. -1.
         25    2    1    2    0    0  0.32091712677E+02  0.25775357066E+02 -0.26150527241E+03  0.29279334333E+03  0.12509471350E+03 0.  0.
          5    1    3    3  502    0 -0.47968443847E+02  0.94472968535E+01 -0.82743936414E+02  0.96199035526E+02  0.41800000000E+01 0.  1.
         -5    1    3    3    0  502  0.80060156524E+02  0.16328060213E+02 -0.17876133600E+03  0.19659430780E+03  0.41800000000E+01 0.  1.
        -11    1    1    2    0    0 -0.60169040825E+02 -0.28757935033E+02 -0.21098608556E+03  0.22127462711E+03  0.00000000000E+00 0.  1.
         11    1    1    2    0    0  0.28077328148E+02  0.29825779672E+01 -0.40507912491E+02  0.49377354137E+02  0.00000000000E+00 0. -1.
</event>
<event>
 7    1  0.2564986E-009  0.1359170E+03  0.7561462E-02  0.1218931E+00
          1   -1    0    0  501    0  0.00000000000E+00  0.00000000000E+00  0.26874621179E+03  0.26874621179E+03  0.00000000000E+00 0. -1.
         -1   -1    0    0    0  501 -0.00000000000E+00 -0.00000000000E+00 -0.79339527963E+02  0.79339527963E+02  0.00000000000E+00 0.  1.
         25    2    1    2    0    0 -0.56708691239E+02  0.32604189159E+01  0.37238817020E+02  0.14234171421E+03  0.12509167886E+03 0.  0.
          5    1    3    3  502    0 -0.43502549486E+02  0.62151701527E+02  0.28816375596E+02  0.81259840740E+02  0.41800000000E+01 0. -1.
         -5    1    3    3    0  502 -0.13206141753E+02 -0.58891282612E+02  0.84224414243E+01  0.61081873475E+02  0.41800000000E+01 0. -1.
        -11    1    1    2    0    0  0.37420479202E+02  0.59172712511E+02  0.10028873920E+03  0.12230917128E+03  0.00000000000E+00 0. -1.
         11    1    1    2    0    0  0.19288212037E+02 -0.62433131427E+02  0.51879127609E+02  0.83434854257E+02  0.00000000000E+00 0.  1.
</event>
<event>
 7    1  0.2564986E-009  0.9706819E+02  0.7561462E-02  0.1286585E+00
         -3   -1    0    0    0  501 -0.00000000000E+00  0.00000000000E+00  0.36084832275E+03  0.36084832275E+03  0.00000000000E+00 0.  1.
          3   -1    0    0  501    0  0.00000000000E+00 -0.00000000000E+00 -0.64965978698E+02  0.64965978698E+02  0.00000000000E+00 0. -1.
         25    2    1    2    0    0 -0.32705832516E+02  0.12058016220E+02  0.17613377455E+02  0.13104453209E+03  0.12508945235E+03 0.  0.
          5    1    3    3  502    0 -0.61974015468E+02 -0.20496867645E+02  0.44857317902E+02  0.79312997333E+02  0.41800000000E+01 0. -1.
         -5    1    3    3    0  502  0.29268182952E+02  0.32554883865E+02 -0.27243940447E+02  0.51731534753E+02  0.41800000000E+01 0. -1.
        -11    1    1    2    0    0  0.15648692633E+02 -0.45006210866E+02  0.80454041667E+02  0.93505579610E+02  0.00000000000E+00 0. -1.
         11    1    1    2    0    0  0.17057139882E+02  0.32948194646E+02  0.19781492493E+03  0.20126418975E+03  0.00000000000E+00 0.  1.
</event>
<event>
 7    1  0.2564986E-009  0.6478426E+02  0.7561462E-02  0.1378785E+00
         -1   -1    0    0    0  501 -0.00000000000E+00  0.00000000000E+00  0.11005937443E+03  0.11005937443E+03  0.00000000000E+00 0.  1.
          1   -1    0    0  501    0  0.00000000000E+00 -0.00000000000E+00 -0.11326801610E+03  0.11326801610E+03  0.00000000000E+00 0. -1.
         25    2    1    2    0    0  0.25567284221E+02  0.14685654729E+02 -0.44092933916E+00  0.12851791249E+03  0.12508918792E+03 0.  0.
          5    1    3    3  502    0  0.24188330909E+02  0.25026074492E+02 -0.59142146448E+02  0.68750604675E+02  0.41800000000E+01 0. -1.
         -5    1    3    3    0  502  0.13789533123E+01 -0.10340419762E+02  0.58701217109E+02  0.59767307813E+02  0.41800000000E+01 0. -1.
        -11    1    1    2    0    0  0.28190344157E+02 -0.41328829912E+01 -0.22786465819E+02  0.36482862415E+02  0.00000000000E+00 0. -1.
         11    1    1    2    0    0 -0.53757628378E+02 -0.10552771738E+02  0.20018753484E+02  0.58326615634E+02  0.00000000000E+00 0.  1.
</event>
<event>
 7    1  0.2564986E-009  0.1042684E+03  0.7561462E-02  0.1271568E+00
          1   -1    0    0  501    0  0.00000000000E+00  0.00000000000E+00  0.66309595313E+03  0.66309595313E+03  0.00000000000E+00 0. -1.
         -1   -1    0    0    0  501 -0.00000000000E+00 -0.00000000000E+00 -0.20011839146E+02  0.20011839146E+02  0.00000000000E+00 0.  1.
         25    2    1    2    0    0  0.10742625037E+02 -0.13614555262E+02  0.45275464247E+03  0.47003684520E+03  0.12508840659E+03 0.  0.
          5    1    3    3  502    0 -0.38872150302E+02  0.30516611130E+02  0.28996185210E+03  0.29417283303E+03  0.41800000000E+01 0.  1.
         -5    1    3    3    0  502  0.49614775339E+02 -0.44131166392E+02  0.16279279037E+03  0.17586401217E+03  0.41800000000E+01 0.  1.
        -11    1    1    2    0    0 -0.49359253710E+02 -0.48621265648E+01  0.73718719744E+02  0.88850581553E+02  0.00000000000E+00 0. -1.
         11    1    1    2    0    0  0.38616628673E+02  0.18476681827E+02  0.11661075178E+03  0.12422036553E+03  0.00000000000E+00 0.  1.
</event>
<event>
 7    1  0.2564986E-009  0.1055099E+03  0.7561462E-02  0.1269118E+00
          1   -1    0    0  501    0  0.00000000000E+00  0.00000000000E+00  0.15817231819E+03  0.15817231819E+03  0.00000000000E+00 0. -1.
         -1   -1    0    0    0  501 -0.00000000000E+00 -0.00000000000E+00 -0.14840827027E+03  0.14840827027E+03  0.00000000000E+00 0.  1.
         25    2    1    2    0    0  0.47537184742E+02 -0.40411699416E+02  0.93532181448E+02  0.16819249578E+03  0.12509019660E+03 0.  0.
          5    1    3    3  502    0 -0.14119325952E+02 -0.36448840989E+02  0.98513772990E+02  0.10606747496E+03  0.41800000000E+01 0. -1.
         -5    1    3    3    0  502  0.61656510694E+02 -0.39628584268E+01 -0.49815915411E+01  0.62125020822E+02  0.41800000000E+01 0. -1.
        -11    1    1    2    0    0 -0.64415324859E+02 -0.16770292610E+01 -0.43528284294E+02  0.77761546007E+02  0.00000000000E+00 0.  1.
         11    1    1    2    0    0  0.16878140116E+02  0.42088728677E+02 -0.40239849231E+02  0.60626546674E+02  0.00000000000E+00 0. -1.
</event>
<event>
 7    1  0.2564986E-009  0.1397536E+03  0.7561462E-02  0.1213661E+00
         -1   -1    0    0    0  501 -0.00000000000E+00  0.00000000000E+00  0.59631017484E+02  0.59631017484E+02  0.00000000000E+00 0.  1.
          1   -1    0    0  501    0  0.00000000000E+00 -0.00000000000E+00 -0.39562983245E+03  0.39562983245E+03  0.00000000000E+00 0. -1.
         25    2    1    2    0    0 -0.63923071792E+02 -0.76449439972E+02 -0.24232187245E+03  0.29034161251E+03  0.12509071153E+03 0.  0.
          5    1    3    3  502    0 -0.40987278692E+02 -0.10305174825E+03 -0.22515921297E+03  0.25102542385E+03  0.41800000000E+01 0.  1.
         -5    1    3    3    0  502 -0.22935793100E+02  0.26602308279E+02 -0.17162659476E+02  0.39316188665E+02  0.41800000000E+01 0.  1.
        -11    1    1    2    0    0  0.44084725090E+02 -0.93703360339E+01 -0.17104235034E+02  0.48206027007E+02  0.00000000000E+00 0. -1.
         11    1    1    2    0    0  0.19838346702E+02  0.85819776005E+02 -0.76572707481E+02  0.11671321041E+03  0.00000000000E+00 0.  1.
</event>
<event>
 7    1  0.2564986E-009  0.1812647E+03  0.7561462E-02  0.1166585E+00
         -1   -1    0    0    0  501 -0.00000000000E+00  0.00000000000E+00  0.29117200047E+02  0.29117200047E+02  0.00000000000E+00 0.  1.
          1   -1    0    0  501    0  0.00000000000E+00 -0.00000000000E+00 -0.12111158810E+04  0.12111158810E+04  0.00000000000E+00 0. -1.
         25    2    1    2    0    0 -0.43038225583E+02  0.14572337129E+03 -0.68356498836E+03  0.71133384226E+03  0.12508857674E+03 0.  0.
          5    1    3    3  502    0 -0.42223469670E+02  0.92688630575E+00 -0.26579749962E+03  0.26916438047E+03  0.41800000000E+01 0. -1.
         -5    1    3    3    0  502 -0.81475591314E+00  0.14479648499E+03 -0.41776748874E+03  0.44216946179E+03  0.41800000000E+01 0. -1.
        -11    1    1    2    0    0  0.89031086789E+01  0.11387014072E+02 -0.24601493071E+02  0.28533539825E+02  0.00000000000E+00 0.  1.
         11    1    1    2    0    0  0.34135116904E+02 -0.15711038537E+03 -0.47383219953E+03  0.50036569897E+03  0.00000000000E+00 0. -1.
</event>
<event>
 7    1  0.2564986E-009  0.9155871E+02  0.7561462E-02  0.1299120E+00
         -1   -1    0    0    0  501 -0.00000000000E+00  0.00000000000E+00  0.11619457872E+03  0.11619457872E+03  0.00000000000E+00 0.  1.
          1   -1    0    0  501    0  0.00000000000E+00 -0.00000000000E+00 -0.12678536793E+03  0.12678536793E+03  0.00000000000E+00 0. -1.
         25    2    1    2    0    0 -0.25247345371E+02 -0.45408353732E+02 -0.16785556791E+02  0.13648713176E+03  0.12509050796E+03 0.  0.
          5    1    3    3  502    0 -0.24259854627E+02  0.86390279640E+01  0.46398151259E+02  0.53230012126E+02  0.41800000000E+01 0. -1.
         -5    1    3    3    0  502 -0.98749074326E+00 -0.54047381696E+02 -0.63183708051E+02  0.83257119631E+02  0.41800000000E+01 0. -1.
        -11    1    1    2    0    0  0.58507491997E+02  0.33880006970E+02  0.16919351609E+02  0.69693944866E+02  0.00000000000E+00 0.  1.
         11    1    1    2    0    0 -0.33260146626E+02  0.11528346762E+02 -0.10724584033E+02  0.36798870028E+02  0.00000000000E+00 0. -1.
</event>
<event>
 7    1  0.2564986E-009  0.1110971E+03  0.7561462E-02  0.1258552E+00
         -2   -1    0    0    0  501 -0.00000000000E+00  0.00000000000E+00  0.88483892563E+01  0.88483892563E+01  0.00000000000E+00 0.  1.
          2   -1    0    0  501    0  0.00000000000E+00 -0.00000000000E+00 -0.16142775565E+04  0.16142775565E+04  0.00000000000E+00 0. -1.
         25    2    1    2    0    0 -0.29976726655E+01 -0.31125287015E+02 -0.11942773340E+04  0.12012162280E+04  0.12507720198E+03 0.  0.
          5    1    3    3  502    0  0.54532931802E+02 -0.43555477713E+02 -0.64344703096E+03  0.64723448173E+03  0.41800000000E+01 0. -1.
         -5    1    3    3    0  502 -0.57530604467E+02  0.12430190698E+02 -0.55083030301E+03  0.55398174628E+03  0.41800000000E+01 0. -1.
        -11    1    1    2    0    0 -0.21191775637E+02 -0.24631428309E+02 -0.17951688018E+03  0.18243384797E+03  0.00000000000E+00 0. -1.
         11    1    1    2    0    0  0.24189448302E+02  0.55756715324E+02 -0.23163495307E+03  0.23947586976E+03  0.00000000000E+00 0.  1.
</event>
<event>
 7    1  0.2564986E-009  0.9010456E+02  0.7561462E-02  0.1302599E+00
          2   -1    0    0  501    0  0.00000000000E+00  0.00000000000E+00  0.26263732520E+03  0.26263732520E+03  0.00000000000E+00 0. -1.
         -2   -1    0    0    0  501 -0.00000000000E+00 -0.00000000000E+00 -0.52717320350E+02  0.52717320350E+02  0.00000000000E+00 0.  1.
         25    2    1    2    0    0  0.30604452980E+01 -0.46354716219E+02  0.12458892305E+03  0.18255961257E+03  0.12508991308E+03 0.  0.
          5    1    3    3  502    0 -0.50576367253E+01  0.38253111942E+02  0.10460230327E+02  0.40196630219E+02  0.41800000000E+01 0.  1.
         -5    1    3    3    0  502  0.81180820233E+01 -0.84607828161E+02  0.11412869272E+03  0.14236298235E+03  0.41800000000E+01 0.  1.
        -11    1    1    2    0    0  0.82038420624E+01  0.44041274627E+02  0.10265357115E+03  0.11200309177E+03  0.00000000000E+00 0. -1.
         11    1    1    2    0    0 -0.11264287360E+02  0.23134415925E+01 -0.17322489354E+02  0.20791941207E+02  0.00000000000E+00 0.  1.
</event>
<event>
 7    1  0.2564986E-009  0.7282358E+02  0.7561462E-02  0.1350746E+00
          2   -1    0    0  501    0  0.00000000000E+00  0.00000000000E+00  0.50451068380E+02  0.50451068380E+02  0.00000000000E+00 0. -1.
         -2   -1    0    0    0  501 -0.00000000000E+00 -0.00000000000E+00 -0.24446018660E+03  0.24446018660E+03  0.00000000000E+00 0.  1.
         25    2    1    2    0    0 -0.10131846938E+02  0.63576037954E+01 -0.83176857636E+02  0.15069526138E+03  0.12509036216E+03 0.  0.
          5    1    3    3  502    0 -0.13518297935E+02 -0.35276564148E+02  0.17330312575E+02  0.41773107271E+02  0.41800000000E+01 0. -1.
         -5    1    3    3    0  502  0.33864509977E+01  0.41634167943E+02 -0.10050717021E+03  0.10892215410E+03  0.41800000000E+01 0. -1.
        -11    1    1    2    0    0  0.44092669029E+01  0.29256729535E+02 -0.10318501252E+03  0.10734311653E+03  0.00000000000E+00 0.  1.
         11    1    1    2    0    0  0.57225800349E+01 -0.35614333331E+02 -0.76472480638E+01  0.36872877075E+02  0.00000000000E+00 0. -1.
</event>
<event>
 7    1  0.3260238E-009  0.1117002E+03  0.7561462E-02  0.1257453E+00
         -2   -1    0    0    0  501 -0.00000000000E+00  0.00000000000E+00  0.33326519200E+02  0.33326519200E+02  0.00000000000E+00 0.  1.
          2   -1    0    0  501    0  0.00000000000E+00 -0.00000000000E+00 -0.60860561802E+03  0.60860561802E+03  0.00000000000E+00 0. -1.
         25    2    1    2    0    0 -0.20399166143E+02  0.66260258013E+02 -0.17833236525E+03  0.22859706308E+03  0.12509051516E+03 0.  0.
          5    1    3    3  502    0 -0.45225737264E+01 -0.23456104079E+02  0.41383622853E+01  0.24601644946E+02  0.41800000000E+01 0.  1.
         -5    1    3    3    0  502 -0.15876592416E+02  0.89716362092E+02 -0.18247072753E+03  0.20399541814E+03  0.41800000000E+01 0.  1.
        -11    1    1    2    0    0  0.43392385044E+02 -0.64546905008E+01 -0.94648631437E+02  0.10432126122E+03  0.00000000000E+00 0. -1.
         11    1    1    2    0    0 -0.22993218901E+02 -0.59805567512E+02 -0.30229810214E+03  0.30901381292E+03  0.00000000000E+00 0.  1.
</event>
<event>
 7    1  0.2564986E-009  0.9967268E+02  0.7561462E-02  0.1280986E+00
          2   -1    0    0  501    0  0.00000000000E+00  0.00000000000E+00  0.21465536960E+03  0.21465536960E+03  0.00000000000E+00 0. -1.
         -2   -1    0    0    0  501 -0.00000000000E+00 -0.00000000000E+00 -0.59332775860E+02  0.59332775860E+02  0.00000000000E+00 0.  1.
         25    2    1    2    0    0  0.97371372506E+01 -0.22499681365E+02  0.11592440911E+03  0.17228629681E+03  0.12507218691E+03 0.  0.
          5    1    3    3  502    0  0.24783482574E+02  0.39108020056E+02  0.81927136472E+01  0.47204355711E+02  0.41800000000E+01 0.  1.
         -5    1    3    3    0  502 -0.15046345324E+02 -0.61607701421E+02  0.10773169546E+03  0.12508194110E+03  0.41800000000E+01 0.  1.
        -11    1    1    2    0    0 -0.32932116528E+02 -0.21662703311E+02  0.22061850531E+01  0.39479922319E+02  0.00000000000E+00 0. -1.
         11    1    1    2    0    0  0.23194979278E+02  0.44162384676E+02  0.37191999581E+02  0.62221926335E+02  0.00000000000E+00 0.  1.
</event>
<event>
 7    1  0.2564986E-009  0.1544550E+03  0.7561462E-02  0.1195103E+00
          1   -1    0    0  501    0  0.00000000000E+00  0.00000000000E+00  0.93932611057E+03  0.93932611057E+03  0.00000000000E+00 0. -1.
         -1   -1    0    0    0  501 -0.00000000000E+00 -0.00000000000E+00 -0.65328401294E+02  0.65328401294E+02  0.00000000000E+00 0.  1.
         25    2    1    2    0    0  0.12409404825E+03 -0.72425995254E+02  0.79244710544E+03  0.81502621681E+03  0.12510180485E+03 0.  0.
          5    1    3    3  502    0  0.10822528931E+03 -0.20892155707E+02  0.30030846101E+03  0.31992474048E+03  0.41800000000E+01 0.  1.
         -5    1    3    3    0  502  0.15868758936E+02 -0.51533839546E+02  0.49213864443E+03  0.49510147633E+03  0.41800000000E+01 0.  1.
        -11    1    1    2    0    0 -0.84540044817E+02  0.40745475079E+02  0.98636523145E+02  0.13614836251E+03  0.00000000000E+00 0. -1.
         11    1    1    2    0    0 -0.39554003429E+02  0.31680520175E+02 -0.17085919306E+02  0.53479932539E+02  0.00000000000E+00 0.  1.
</event>
<event>
 7    1  0.2564986E-009  0.1679686E+03  0.7561462E-02  0.1179983E+00
          1   -1    0    0  501    0  0.00000000000E+00  0.00000000000E+00  0.23149972129E+03  0.23149972129E+03  0.00000000000E+00 0. -1.
         -1   -1    0    0    0  501 -0.00000000000E+00 -0.00000000000E+00 -0.13580826193E+03  0.13580826193E+03  0.00000000000E+00 0.  1.
         25    2    1    2    0    0 -0.20429496668E+02  0.13767612857E+03  0.71124544641E+02  0.20019938698E+03  0.12509601506E+03 0.  0.
          5    1    3    3  502    0 -0.24366206468E+01 -0.16412138698E+02  0.37768610817E+02  0.41463668191E+02  0.41800000000E+01 0. -1.
         -5    1    3    3    0  502 -0.17992876021E+02  0.15408826727E+03  0.33355933824E+02  0.15873571879E+03  0.41800000000E+01 0. -1.
        -11    1    1    2    0    0  0.21496294596E+02 -0.14986546356E+03  0.16152133680E+02  0.15225846207E+03  0.00000000000E+00 0.  1.
         11    1    1    2    0    0 -0.10667979284E+01  0.12189334981E+02  0.84147810395E+01  0.14850134176E+02  0.00000000000E+00 0. -1.
</event>
<event>
 7    1  0.2564986E-009  0.1455301E+03  0.7561462E-02  0.1206076E+00
          1   -1    0    0  501    0  0.00000000000E+00  0.00000000000E+00  0.25182225138E+03  0.25182225138E+03  0.00000000000E+00 0. -1.
         -1   -1    0    0    0  501 -0.00000000000E+00 -0.00000000000E+00 -0.10467312191E+03  0.10467312191E+03  0.00000000000E+00 0.  1.
         25    2    1    2    0    0 -0.12050693673E+03  0.98397647488E+01  0.84245304295E+02  0.19329651217E+03  0.12509007775E+03 0.  0.
          5    1    3    3  502    0 -0.13003351664E+03 -0.10298084789E+02  0.10107040886E+03  0.16506806460E+03  0.41800000000E+01 0. -1.
         -5    1    3    3    0  502  0.95265799105E+01  0.20137849538E+02 -0.16825104570E+02  0.28228447576E+02  0.41800000000E+01 0. -1.
        -11    1    1    2    0    0  0.86279461768E+02 -0.37307705587E+02  0.10104005335E+02  0.94541532370E+02  0.00000000000E+00 0.  1.
         11    1    1    2    0    0  0.34227474966E+02  0.27467940838E+02  0.52799819834E+02  0.68657328749E+02  0.00000000000E+00 0. -1.
</event>
<event>
 7    1  0.2564986E-009  0.1033774E+03  0.7561462E-02  0.1273350E+00
         -2   -1    0    0    0  501 -0.00000000000E+00  0.00000000000E+00  0.16495086096E+03  0.16495086096E+03  0.00000000000E+00 0.  1.
          2   -1    0    0  501    0  0.00000000000E+00 -0.00000000000E+00 -0.74032369892E+02  0.74032369892E+02  0.00000000000E+00 0. -1.
         25    2    1    2    0    0 -0.97888020461E+01 -0.34173441222E+01  0.60243214070E+02  0.13922317580E+03  0.12508536666E+03 0.  0.
          5    1    3    3  502    0  0.38977413115E+02 -0.35874211040E+02  0.60461718142E+02  0.80494034012E+02  0.41800000000E+01 0. -1.
         -5    1    3    3    0  502 -0.48766215161E+02  0.32456866918E+02 -0.21850407284E+00  0.58729141789E+02  0.41800000000E+01 0. -1.
        -11    1    1    2    0    0  0.29470821781E+02 -0.38555803163E+02  0.17116669942E+02  0.51459301238E+02  0.00000000000E+00 0. -1.
         11    1    1    2    0    0 -0.19682019735E+02  0.41973147285E+02  0.13558607062E+02  0.48300753817E+02  0.00000000000E+00 0.  1.
</event>
<event>
 7    1  0.2564986E-009  0.2184255E+03  0.7561462E-02  0.1135062E+00
          4   -1    0    0  501    0  0.00000000000E+00  0.00000000000E+00  0.15422096033E+03  0.15422096033E+03  0.00000000000E+00 0. -1.
         -4   -1    0    0    0  501 -0.00000000000E+00 -0.00000000000E+00 -0.41972434256E+03  0.41972434256E+03  0.00000000000E+00 0.  1.
         25    2    1    2    0    0  0.10405481119E+03  0.18845108936E+03 -0.39510713746E+02  0.25209153697E+03  0.12509128548E+03 0.  0.
          5    1    3    3  502    0  0.42792659709E+02  0.12229165073E+03 -0.80886989106E+02  0.15279606334E+03  0.41800000000E+01 0.  1.
         -5    1    3    3    0  502  0.61262151477E+02  0.66159438623E+02  0.41376275359E+02  0.99295473639E+02  0.41800000000E+01 0.  1.
        -11    1    1    2    0    0 -0.51375793336E+02 -0.12036552390E+03 -0.83075750716E+02  0.15501261833E+03  0.00000000000E+00 0. -1.
         11    1    1    2    0    0 -0.52679017850E+02 -0.68085565453E+02 -0.14291691776E+03  0.16684114758E+03  0.00000000000E+00 0.  1.
</event>
<event>
 7    1  0.2564986E-009  0.1607332E+03  0.7561462E-02  0.1187871E+00
         -4   -1    0    0    0  501 -0.00000000000E+00  0.00000000000E+00  0.14275728814E+03  0.14275728814E+03  0.00000000000E+00 0. -1.
          4   -1    0    0  501    0  0.00000000000E+00 -0.00000000000E+00 -0.25297123197E+03  0.25297123197E+03  0.00000000000E+00 0.  1.
         25    2    1    2    0    0 -0.66572977981E+02 -0.13049382304E+03 -0.11166884557E+03  0.22265713692E+03  0.12508265388E+03 0.  0.
          5    1    3    3  502    0 -0.66069347689E+02 -0.11834419553E+03 -0.28582746656E+02  0.13858193650E+03  0.41800000000E+01 0. -1.
         -5    1    3    3    0  502 -0.50363029153E+00 -0.12149627513E+02 -0.83086098910E+02  0.84075200411E+02  0.41800000000E+01 0. -1.
        -11    1    1    2    0    0 -0.22037561903E+02  0.43840614991E+02 -0.16329218891E+01  0.49095010860E+02  0.00000000000E+00 0.  1.
         11    1    1    2    0    0  0.88610539884E+02  0.86653208049E+02  0.30878236292E+01  0.12397637234E+03  0.00000000000E+00 0. -1.
</event>
<event>
 7    1  0.2564986E-009  0.9698851E+02  0.7561462E-02  0.1286759E+00
          1   -1    0    0  501    0  0.00000000000E+00  0.00000000000E+00  0.47091440618E+03  0.47091440618E+03  0.00000000000E+00 0. -1.
         -1   -1    0    0    0  501 -0.00000000000E+00 -0.00000000000E+00 -0.34980766705E+02  0.34980766705E+02  0.00000000000E+00 0.  1.
         25    2    1    2    0    0 -0.10804409840E+02 -0.34428166685E+02  0.35660350495E+03  0.37962384481E+03  0.12508465083E+03 0.  0.
          5    1    3    3  502    0  0.82331410657E+01  0.28648619007E+02  0.18931358123E+02  0.35558356307E+02  0.41800000000E+01 0.  1.
         -5    1    3    3    0  502 -0.19037550906E+02 -0.63076785693E+02  0.33767214683E+03  0.34406548851E+03  0.41800000000E+01 0.  1.
        -11    1    1    2    0    0 -0.31704077007E+02  0.44050828109E+02  0.49499145975E+02  0.73456037248E+02  0.00000000000E+00 0.  1.
         11    1    1    2    0    0  0.42508486847E+02 -0.96226614235E+01  0.29830988548E+02  0.52815290823E+02  0.00000000000E+00 0. -1.
</event>
<event>
 7    1  0.2564986E-009  0.1134648E+03  0.7561462E-02  0.1254285E+00
         -1   -1    0    0    0  501 -0.00000000000E+00  0.00000000000E+00  0.31223038426E+03  0.31223038426E+03  0.00000000000E+00 0.  1.
          1   -1    0    0  501    0  0.00000000000E+00 -0.00000000000E+00 -0.93964114219E+02  0.93964114219E+02  0.00000000000E+00 0. -1.
         25    2    1    2    0    0  0.76256192738E+02  0.55410718773E+02  0.22612022743E+03  0.27506908493E+03  0.12508912640E+03 0.  0.
          5    1    3    3  502    0  0.90153940638E+02  0.17756613555E+02  0.21400620074E+03  0.23293594976E+03  0.41800000000E+01 0.  1.
         -5    1    3    3    0  502 -0.13897747901E+02  0.37654105217E+02  0.12114026699E+02  0.42133135170E+02  0.41800000000E+01 0.  1.
        -11    1    1    2    0    0 -0.84786752612E+01 -0.94890441056E+01 -0.40903258306E+02  0.42836975060E+02  0.00000000000E+00 0. -1.
         11    1    1    2    0    0 -0.67777517476E+02 -0.45921674667E+02  0.33049300909E+02  0.88288438485E+02  0.00000000000E+00 0.  1.
</event>
<event>
 7    1  0.2564986E-009  0.1421993E+03  0.7561462E-02  0.1210400E+00
          2   -1    0    0  501    0  0.00000000000E+00  0.00000000000E+00  0.17639927767E+04  0.17639927767E+04  0.00000000000E+00 0.  1.
         -2   -1    0    0    0  501 -0.00000000000E+00 -0.00000000000E+00 -0.24070585418E+02  0.24070585418E+02  0.00000000000E+00 0. -1.
         25    2    1    2    0    0  0.72125245382E+02 -0.72658954775E+02  0.15104433230E+04  0.15190681145E+04  0.12509008719E+03 0.  0.
          5    1    3    3  502    0 -0.10480790210E+02  0.28673904709E+02  0.27730261693E+03  0.27900941477E+03  0.41800000000E+01 0.  1.
         -5    1    3    3    0  502  0.82606035592E+02 -0.10133285948E+03  0.12331407060E+04  0.12400586997E+04  0.41800000000E+01 0.  1.
        -11    1    1    2    0    0 -0.62521756891E+02  0.14958110325E+02  0.53780805612E+02  0.83815811167E+02  0.00000000000E+00 0. -1.
         11    1    1    2    0    0 -0.96034884905E+01  0.57700844450E+02  0.17569806273E+03  0.18517943646E+03  0.00000000000E+00 0.  1.
</event>
<event>
 7    1  0.2564986E-009  0.1255236E+03  0.7561462E-02  0.1234253E+00
          1   -1    0    0  501    0  0.00000000000E+00  0.00000000000E+00  0.61228834790E+02  0.61228834790E+02  0.00000000000E+00 0. -1.
         -1   -1    0    0    0  501 -0.00000000000E+00 -0.00000000000E+00 -0.36615639055E+03  0.36615639055E+03  0.00000000000E+00 0.  1.
         25    2    1    2    0    0  0.67409504459E+02  0.52749857169E+02 -0.83378635229E+02  0.17299051861E+03  0.12508850464E+03 0.  0.
          5    1    3    3  502    0  0.83360047490E+02  0.77517385792E+02 -0.86560440585E+02  0.14306650514E+03  0.41800000000E+01 0. -1.
         -5    1    3    3    0  502 -0.15950543031E+02 -0.24767528623E+02  0.31818053559E+01  0.29924013474E+02  0.41800000000E+01 0. -1.
        -11    1    1    2    0    0 -0.62268364859E+02 -0.85113031767E+01 -0.18915791040E+03  0.19932512789E+03  0.00000000000E+00 0.  1.
         11    1    1    2    0    0 -0.51411395999E+01 -0.44238553992E+02 -0.32391010132E+02  0.55069578835E+02  0.00000000000E+00 0. -1.
</event>
<event>
 7    1  0.2564986E-009  0.1104022E+03  0.7561462E-02  0.1259827E+00
          3   -1    0    0  501    0  0.00000000000E+00  0.00000000000E+00  0.50845814287E+03  0.50845814287E+03  0.00000000000E+00 0. -1.
         -3   -1    0    0    0  501 -0.00000000000E+00 -0.00000000000E+00 -0.31717689000E+02  0.31717689000E+02  0.00000000000E+00 0.  1.
         25    2    1    2    0    0  0.16099100953E+02  0.18809091323E+02  0.13408315867E+03  0.18503631485E+03  0.12508869415E+03 0.  0.
          5    1    3    3  502    0 -0.44490590331E+02 -0.26306200001E+02  0.53833983470E+02  0.74746230425E+02  0.41800000000E+01 0. -1.
         -5    1    3    3    0  502  0.60589691283E+02  0.45115291324E+02  0.80249175202E+02  0.11029008442E+03  0.41800000000E+01 0. -1.
        -11    1    1    2    0    0  0.83367512611E+01 -0.51672197735E+02  0.19704804644E+03  0.20388097029E+03  0.00000000000E+00 0.  1.
         11    1    1    2    0    0 -0.24435852214E+02  0.32863106413E+02  0.14560924876E+03  0.15125854674E+03  0.00000000000E+00 0. -1.
</event>
<event>
 7    1  0.2564986E-009  0.1597018E+03  0.7561462E-02  0.1189034E+00
         -2   -1    0    0    0  501 -0.00000000000E+00  0.00000000000E+00  0.40259263478E+02  0.40259263478E+02  0.00000000000E+00 0.  1.
          2   -1    0    0  501    0  0.00000000000E+00 -0.00000000000E+00 -0.98228068417E+03  0.98228068417E+03  0.00000000000E+00 0. -1.
         25    2    1    2    0    0  0.11532565356E+03 -0.91815578955E+02 -0.29672046130E+03  0.35414792816E+03  0.12509043112E+03 0.  0.
          5    1    3    3  502    0  0.69713934815E+02 -0.69645890820E+02 -0.28547621160E+03  0.30203430700E+03  0.41800000000E+01 0. -1.
         -5    1    3    3    0  502  0.45611718746E+02 -0.22169688136E+02 -0.11244249697E+02  0.52113621159E+02  0.41800000000E+01 0. -1.
        -11    1    1    2    0    0 -0.71291550430E+02  0.10223424948E+03 -0.40055076867E+03  0.41949403477E+03  0.00000000000E+00 0.  1.
         11    1    1    2    0    0 -0.44034103131E+02 -0.10418670529E+02 -0.24475019074E+03  0.24889798472E+03  0.00000000000E+00 0. -1.
</event>
<event>
 7    1  0.2564986E-009  0.8971839E+02  0.7561462E-02  0.1303535E+00
          1   -1    0    0  501    0  0.00000000000E+00  0.00000000000E+00  0.81940282926E+03  0.81940282926E+03  0.00000000000E+00 0. -1.
         -1   -1    0    0    0  501 -0.00000000000E+00 -0.00000000000E+00 -0.16674017300E+02  0.16674017300E+02  0.00000000000E+00 0.  1.
         25    2    1    2    0    0 -0.29791377928E+02 -0.21357669230E+02  0.54024510495E+03  0.55574878629E+03  0.12509302064E+03 0.  0.
          5    1    3    3  502    0 -0.56728481787E+02 -0.27571500158E+02  0.51241763703E+03  0.51630186461E+03  0.41800000000E+01 0.  1.
         -5    1    3    3    0  502  0.26937103859E+02  0.62138309278E+01  0.27827467920E+02  0.39446921679E+02  0.41800000000E+01 0.  1.
        -11    1    1    2    0    0  0.56486428494E+02  0.24135411302E+02  0.11456108860E+03  0.12999029850E+03  0.00000000000E+00 0.  1.
         11    1    1    2    0    0 -0.26695050566E+02 -0.27777420724E+01  0.14792261841E+03  0.15033776177E+03  0.00000000000E+00 0. -1.
</event>
<event>
 7    1  0.2564986E-009  0.7898088E+02  0.7561462E-02  0.1331969E+00
         -3   -1    0    0    0  501 -0.00000000000E+00  0.00000000000E+00  0.19397749217E+03  0.19397749217E+03  0.00000000000E+00 0.  1.
          3   -1    0    0  501    0  0.00000000000E+00 -0.00000000000E+00 -0.72825869828E+02  0.72825869828E+02  0.00000000000E+00 0. -1.
         25    2    1    2    0    0  0.18859485347E+02 -0.42251997282E+02  0.55324212791E+02  0.14437750055E+03  0.12507270958E+03 0.  0.
          5    1    3    3  502    0  0.30227770882E+02  0.24237009233E+02  0.65317709328E+02  0.76059360376E+02  0.41800000000E+01 0. -1.
         -5    1    3    3    0  502 -0.11368285535E+02 -0.66489006515E+02 -0.99934965369E+01  0.68318140170E+02  0.41800000000E+01 0. -1.
        -11    1    1    2    0    0 -0.15565471398E+02  0.89714661166E+01 -0.22025099379E+02  0.28423161449E+02  0.00000000000E+00 0. -1.
         11    1    1    2    0    0 -0.32940139494E+01  0.33280531165E+02  0.87852508932E+02  0.94002700004E+02  0.00000000000E+00 0.  1.
</event>
<event>
 7    1  0.2564986E-009  0.1094315E+03  0.7561462E-02  0.1261626E+00
          4   -1    0    0  501    0  0.00000000000E+00  0.00000000000E+00  0.14691153834E+03  0.14691153834E+03  0.00000000000E+00 0. -1.
         -4   -1    0    0    0  501 -0.00000000000E+00 -0.00000000000E+00 -0.10472948888E+03  0.10472948888E+03  0.00000000000E+00 0.  1.
         25    2    1    2    0    0 -0.50141403693E+02  0.30185563343E+02  0.19920657822E+02  0.13953418927E+03  0.12509048232E+03 0.  0.
          5    1    3    3  502    0  0.11485860128E+02  0.49721947688E+02  0.46825210198E+02  0.69384939107E+02  0.41800000000E+01 0.  1.
         -5    1    3    3    0  502 -0.61627263821E+02 -0.19536384345E+02 -0.26904552376E+02  0.70149250159E+02  0.41800000000E+01 0.  1.
        -11    1    1    2    0    0  0.80464368449E+01 -0.53942841911E+02  0.31372944687E+02  0.62919289551E+02  0.00000000000E+00 0. -1.
         11    1    1    2    0    0  0.42094966848E+02  0.23757278567E+02 -0.91115530550E+01  0.49187548404E+02  0.00000000000E+00 0.  1.
</event>
<event>
 7    1  0.2564986E-009  0.1042742E+03  0.7561462E-02  0.1271556E+00
         -1   -1    0    0    0  501 -0.00000000000E+00  0.00000000000E+00  0.86397256479E+03  0.86397256479E+03  0.00000000000E+00 0.  1.
          1   -1    0    0  501    0  0.00000000000E+00 -0.00000000000E+00 -0.15324770058E+02  0.15324770058E+02  0.00000000000E+00 0. -1.
         25    2    1    2    0    0 -0.53618906651E+01 -0.36011590294E+02  0.41867619405E+03  0.43847882376E+03  0.12509332083E+03 0.  0.
          5    1    3    3  502    0  0.36048334545E+02  0.20323612176E+02  0.28046920862E+03  0.28353656029E+03  0.41800000000E+01 0.  1.
         -5    1    3    3    0  502 -0.41410225210E+02 -0.56335202470E+02  0.13820698543E+03  0.15494226347E+03  0.41800000000E+01 0.  1.
        -11    1    1    2    0    0  0.34136762059E+02  0.53336086895E+02  0.29634640590E+03  0.30303671226E+03  0.00000000000E+00 0.  1.
         11    1    1    2    0    0 -0.28774871394E+02 -0.17324496601E+02  0.13362519479E+03  0.13778179883E+03  0.00000000000E+00 0. -1.
</event>
<event>
 7    1  0.2564986E-009  0.1700644E+03  0.7561462E-02  0.1177781E+00
          4   -1    0    0  501    0  0.00000000000E+00  0.00000000000E+00  0.11815441847E+03  0.11815441847E+03  0.00000000000E+00 0. -1.
         -4   -1    0    0    0  501 -0.00000000000E+00 -0.00000000000E+00 -0.28042823969E+03  0.28042823969E+03  0.00000000000E+00 0.  1.
         25    2    1    2    0    0 -0.73507534318E+02  0.11306414580E+03 -0.21283902933E+02  0.18516053621E+03  0.12507821945E+03 0.  0.
          5    1    3    3  502    0 -0.83281838182E+02  0.19315168381E+02 -0.29300956961E+02  0.90470762014E+02  0.41800000000E+01 0.  1.
         -5    1    3    3    0  502  0.97743038636E+01  0.93748977417E+02  0.80170540285E+01  0.94689774200E+02  0.41800000000E+01 0.  1.
        -11    1    1    2    0    0  0.93218018045E+02 -0.98937093207E+02 -0.11798785414E+03  0.17999800283E+03  0.00000000000E+00 0.  1.
         11    1    1    2    0    0 -0.19710483727E+02 -0.14127052591E+02 -0.23002064142E+02  0.33424119113E+02  0.00000000000E+00 0. -1.
</event>
<event>
 7    1  0.2703848E-009  0.1656348E+03  0.7561462E-02  0.1182478E+00
         -1   -1    0    0    0  501 -0.00000000000E+00  0.00000000000E+00  0.28694811722E+03  0.28694811722E+03  0.00000000000E+00 0.  1.
          1   -1    0    0  501    0  0.00000000000E+00 -0.00000000000E+00 -0.12524330940E+03  0.12524330940E+03  0.00000000000E+00 0. -1.
         25    2    1    2    0    0  0.14358241825E+03 -0.45811193947E+02  0.12407517137E+03  0.23185458143E+03  0.12508925797E+03 0.  0.
          5    1    3    3  502    0  0.78016956129E+02 -0.47783676607E+01 -0.80602819063E+01  0.78688746244E+02  0.41800000000E+01 0. -1.
         -5    1    3    3    0  502  0.65565462118E+02 -0.41032826286E+02  0.13213545328E+03  0.15316583519E+03  0.41800000000E+01 0. -1.
        -11    1    1    2    0    0 -0.17624425102E+02  0.46337435442E+02  0.28191411402E+01  0.49656075563E+02  0.00000000000E+00 0.  1.
         11    1    1    2    0    0 -0.12595799314E+03 -0.52624149534E+00  0.34810495304E+02  0.13068076963E+03  0.00000000000E+00 0. -1.
</event>
<event>
 7    1  0.2564986E-009  0.2613738E+03  0.7561462E-02  0.1106321E+00
         -2   -1    0    0    0  501 -0.00000000000E+00  0.00000000000E+00  0.48104296645E+03  0.48104296645E+03  0.00000000000E+00 0.  1.
          2   -1    0    0  501    0  0.00000000000E+00 -0.00000000000E+00 -0.16622049049E+03  0.16622049049E+03  0.00000000000E+00 0. -1.
         25    2    1    2    0    0 -0.26018744914E+03  0.14274052052E+02  0.14216716513E+03  0.32211894325E+03  0.12509138065E+03 0.  0.
          5    1    3    3  502    0 -0.14382675929E+03  0.15850897475E+02  0.87362847282E+01  0.14502131813E+03  0.41800000000E+01 0.  1.
         -5    1    3    3    0  502 -0.11636068984E+03 -0.15768454234E+01  0.13343088040E+03  0.17709762513E+03  0.41800000000E+01 0.  1.
        -11    1    1    2    0    0  0.11141775993E+03 -0.17242238820E+02  0.12627916741E+03  0.16928567614E+03  0.00000000000E+00 0.  1.
         11    1    1    2    0    0  0.14876968921E+03  0.29681867683E+01  0.46376143422E+02  0.15585883754E+03  0.00000000000E+00 0. -1.
</event>
<event>
 7    1  0.2564986E-009  0.8449354E+02  0.7561462E-02  0.1316762E+00
          1   -1    0    0  501    0  0.00000000000E+00  0.00000000000E+00  0.82005634819E+03  0.82005634819E+03  0.00000000000E+00 0. -1.
         -1   -1    0    0    0  501 -0.00000000000E+00 -0.00000000000E+00 -0.26528739537E+02  0.26528739537E+02  0.00000000000E+00 0.  1.
         25    2    1    2    0    0  0.98335140611E+01 -0.55654866428E+02  0.66167583078E+03  0.67576417498E+03  0.12509257768E+03 0.  0.
          5    1    3    3  502    0  0.29777876355E+02 -0.60668055740E+02  0.16113417850E+03  0.17478281033E+03  0.41800000000E+01 0. -1.
         -5    1    3    3    0  502 -0.19944362294E+02  0.50131893114E+01  0.50054165228E+03  0.50098136465E+03  0.41800000000E+01 0. -1.
        -11    1    1    2    0    0 -0.33771242909E+02  0.35505903535E+02  0.17131147671E+02  0.51909943691E+02  0.00000000000E+00 0.  1.
         11    1    1    2    0    0  0.23937728848E+02  0.20148962893E+02  0.11472063021E+03  0.11891096906E+03  0.00000000000E+00 0. -1.
</event>
<event>
 7    1  0.2564986E-009  0.1369027E+03  0.7561462E-02  0.1217558E+00
         -2   -1    0    0    0  501 -0.00000000000E+00  0.00000000000E+00  0.69838403204E+02  0.69838403204E+02  0.00000000000E+00 0.  1.
          2   -1    0    0  501    0  0.00000000000E+00 -0.00000000000E+00 -0.27395627504E+03  0.27395627504E+03  0.00000000000E+00 0. -1.
         25    2    1    2    0    0 -0.34458862417E+02  0.78591305507E+02 -0.96538095492E+02  0.17980880751E+03  0.12509035486E+03 0.  0.
          5    1    3    3  502    0 -0.80289610024E+02  0.60384300476E+02 -0.51867544275E+02  0.11313885173E+03  0.41800000000E+01 0. -1.
         -5    1    3    3    0  502  0.45830747606E+02  0.18207005031E+02 -0.44670551217E+02  0.66669955785E+02  0.41800000000E+01 0. -1.
        -11    1    1    2    0    0  0.19326991550E+02  0.17750549805E+02 -0.23119478495E+02  0.34973202693E+02  0.00000000000E+00 0. -1.
         11    1    1    2    0    0  0.15131870868E+02 -0.96341855312E+02 -0.84460297851E+02  0.12901266804E+03  0.00000000000E+00 0.  1.
</event>
<event>
 7    1  0.2564986E-009  0.1325941E+03  0.7561462E-02  0.1223657E+00
         -3   -1    0    0    0  501 -0.00000000000E+00  0.00000000000E+00  0.29923054847E+03  0.29923054847E+03  0.00000000000E+00 0.  1.
          3   -1    0    0  501    0  0.00000000000E+00 -0.00000000000E+00 -0.71536339081E+02  0.71536339081E+02  0.00000000000E+00 0. -1.
         25    2    1    2    0    0  0.57666687225E+02  0.65779919829E+02  0.72443819408E+02  0.16895892934E+03  0.12508624291E+03 0.  0.
          5    1    3    3  502    0 -0.15776332945E+01 -0.35065356470E+02  0.21006111684E+02  0.41119305433E+02  0.41800000000E+01 0. -1.
         -5    1    3    3    0  502  0.59244320520E+02  0.10084527630E+03  0.51437707724E+02  0.12783962391E+03  0.41800000000E+01 0. -1.
        -11    1    1    2    0    0 -0.64911434599E+02 -0.22163970476E+02  0.13845133060E+03  0.15451053969E+03  0.00000000000E+00 0.  1.
         11    1    1    2    0    0  0.72447473735E+01 -0.43615949353E+02  0.16799059375E+02  0.47297418517E+02  0.00000000000E+00 0. -1.
</event>
<event>
 7    1  0.2564986E-009  0.1629386E+03  0.7561462E-02  0.1185418E+00
          3   -1    0    0  501    0  0.00000000000E+00  0.00000000000E+00  0.16583513036E+03  0.16583513036E+03  0.00000000000E+00 0. -1.
         -3   -1    0    0    0  501 -0.00000000000E+00 -0.00000000000E+00 -0.50598565325E+03  0.50598565325E+03  0.00000000000E+00 0.  1.
         25    2    1    2    0    0  0.12870374793E+03 -0.77045515620E+02 -0.43096793479E+03  0.47316129320E+03  0.12509029682E+03 0.  0.
          5    1    3    3  502    0  0.12289482697E+03 -0.50809652130E+02 -0.19762536792E+03  0.23823941255E+03  0.41800000000E+01 0.  1.
         -5    1    3    3    0  502  0.58089209567E+01 -0.26235863490E+02 -0.23334256687E+03  0.23492188065E+03  0.41800000000E+01 0.  1.
        -11    1    1    2    0    0 -0.10543223599E+03  0.24611339886E+02  0.24558064560E+02  0.11101699407E+03  0.00000000000E+00 0.  1.
         11    1    1    2    0    0 -0.23271511935E+02  0.52434175734E+02  0.66259347345E+02  0.87642496332E+02  0.00000000000E+00 0. -1.
</event>
<event>
 7    1  0.2564986E-009  0.2501602E+03  0.7561462E-02  0.1113204E+00
         -2   -1    0    0    0  501 -0.00000000000E+00  0.00000000000E+00  0.12860749786E+03  0.12860749786E+03  0.00000000000E+00 0.  1.
          2   -1    0    0  501    0  0.00000000000E+00 -0.00000000000E+00 -0.51976158638E+03  0.51976158638E+03  0.00000000000E+00 0. -1.
         25    2    1    2    0    0  0.94877592838E+02  0.20616315142E+03 -0.14841449287E+03  0.29862810087E+03  0.12508748263E+03 0.  0.
          5    1    3    3  502    0 -0.41339406818E+01  0.13765070166E+03 -0.91436618972E+02  0.16535698601E+03  0.41800000000E+01 0. -1.
         -5    1    3    3    0  502  0.99011533520E+02  0.68512449757E+02 -0.56977873895E+02  0.13327111486E+03  0.41800000000E+01 0. -1.
        -11    1    1    2    0    0 -0.36829255271E+02 -0.16939850137E+03 -0.21362900221E+03  0.27511742383E+03  0.00000000000E+00 0. -1.
         11    1    1    2    0    0 -0.58048337568E+02 -0.36764650048E+02 -0.29110593450E+02  0.74623559541E+02  0.00000000000E+00 0.  1.
</event>
<event>
 7    1  0.2564986E-009  0.1520142E+03  0.7561462E-02  0.1198020E+00
          2   -1    0    0  501    0  0.00000000000E+00  0.00000000000E+00  0.15752400286E+03  0.15752400286E+03  0.00000000000E+00 0. -1.
         -2   -1    0    0    0  501 -0.00000000000E+00 -0.00000000000E+00 -0.16995444912E+03  0.16995444912E+03  0.00000000000E+00 0.  1.
         25    2    1    2    0    0  0.82083412938E+02 -0.74711008327E+02 -0.57082873833E+02  0.17670821004E+03  0.12509162868E+03 0.  0.
          5    1    3    3  502    0  0.11512474191E+03 -0.57662157438E+02 -0.35995868630E+02  0.13376025403E+03  0.41800000000E+01 0. -1.
         -5    1    3    3    0  502 -0.33041328971E+02 -0.17048850889E+02 -0.21087005203E+02  0.42947956008E+02  0.41800000000E+01 0. -1.
        -11    1    1    2    0    0  0.16443214985E+02  0.16772944774E+02  0.25862571557E+02  0.34936851647E+02  0.00000000000E+00 0.  1.
         11    1    1    2    0    0 -0.98526627922E+02  0.57938063553E+02  0.18789856017E+02  0.11583339029E+03  0.00000000000E+00 0. -1.
</event>
<event>
 7    1  0.4378629E-009  0.9430716E+02  0.7561462E-02  0.1292744E+00
          1   -1    0    0  501    0  0.00000000000E+00  0.00000000000E+00  0.10434291040E+04  0.10434291040E+04  0.00000000000E+00 0. -1.
         -1   -1    0    0    0  501 -0.00000000000E+00 -0.00000000000E+00 -0.19017729456E+02  0.19017729456E+02  0.00000000000E+00 0.  1.
         25    2    1    2    0    0  0.18629621346E+02 -0.29636653641E+02  0.86931369214E+03  0.87896430283E+03  0.12508619540E+03 0.  0.
          5    1    3    3  502    0  0.51504338005E+02  0.55984586723E+01  0.72292566742E+03  0.72479171669E+03  0.41800000000E+01 0. -1.
         -5    1    3    3    0  502 -0.32874716659E+02 -0.35235112313E+02  0.14638802472E+03  0.15417258614E+03  0.41800000000E+01 0. -1.
        -11    1    1    2    0    0  0.30480501265E+02 -0.79884524031E+00  0.19775469361E+02  0.36342376085E+02  0.00000000000E+00 0.  1.
         11    1    1    2    0    0 -0.49110122611E+02  0.30435498881E+02  0.13532221305E+03  0.14714015455E+03  0.00000000000E+00 0. -1.
</event>
<event>
 7    1  0.2564986E-009  0.1102552E+03  0.7561462E-02  0.1260098E+00
         -1   -1    0    0    0  501 -0.00000000000E+00  0.00000000000E+00  0.46624749824E+03  0.46624749824E+03  0.00000000000E+00 0.  1.
          1   -1    0    0  501    0  0.00000000000E+00 -0.00000000000E+00 -0.32536708726E+02  0.32536708726E+02  0.00000000000E+00 0. -1.
         25    2    1    2    0    0  0.13099632577E+02  0.45367087549E+02  0.16765772408E+03  0.21444424164E+03  0.12508975707E+03 0.  0.
          5    1    3    3  502    0  0.62319737927E+01 -0.43109773312E+02  0.68755677726E+02  0.81499114547E+02  0.41800000000E+01 0.  1.
         -5    1    3    3    0  502  0.68676587845E+01  0.88476860861E+02  0.98902046350E+02  0.13294512709E+03  0.41800000000E+01 0.  1.
        -11    1    1    2    0    0 -0.42984340040E+02 -0.15591653001E+02  0.68679385329E+02  0.82508248686E+02  0.00000000000E+00 0. -1.
         11    1    1    2    0    0  0.29884707463E+02 -0.29775434548E+02  0.19737368011E+03  0.20183171664E+03  0.00000000000E+00 0.  1.
</event>
<event>
 7    1  0.2564986E-009  0.1196801E+03  0.7561462E-02  0.1243626E+00
          3   -1    0    0  501    0  0.00000000000E+00  0.00000000000E+00  0.86217618170E+02  0.86217618170E+02  0.00000000000E+00 0. -1.
         -3   -1    0    0    0  501 -0.00000000000E+00 -0.00000000000E+00 -0.18512076281E+03  0.18512076281E+03  0.00000000000E+00 0.  1.
         25    2    1    2    0    0 -0.27995465049E+02 -0.52837809776E+02 -0.42546117148E+02  0.14502763858E+03  0.12508902295E+03 0.  0.
          5    1    3    3  502    0 -0.62330582891E+02  0.12770646082E+02 -0.12344293451E+02  0.64946477547E+02  0.41800000000E+01 0. -1.
         -5    1    3    3    0  502  0.34335117842E+02 -0.65608455858E+02 -0.30201823697E+02  0.80081161030E+02  0.41800000000E+01 0. -1.
        -11    1    1    2    0    0  0.45425455027E+02 -0.38368649128E+00  0.19448222092E+01  0.45468687172E+02  0.00000000000E+00 0. -1.
         11    1    1    2    0    0 -0.17429989978E+02  0.53221496267E+02 -0.58301849702E+02  0.80842055233E+02  0.00000000000E+00 0.  1.
</event>
<event>
 7    1  0.2564986E-009  0.1805791E+03  0.7561462E-02  0.1167244E+00
         -1   -1    0    0    0  501 -0.00000000000E+00  0.00000000000E+00  0.31656377675E+03  0.31656377675E+03  0.00000000000E+00 0.  1.
          1   -1    0    0  501    0  0.00000000000E+00 -0.00000000000E+00 -0.11691891745E+03  0.11691891745E+03  0.00000000000E+00 0. -1.
         25    2    1    2    0    0  0.28919757674E+02  0.14635274393E+03  0.16518061425E+03  0.25531471735E+03  0.12508193928E+03 0.  0.
          5    1    3    3  502    0 -0.49080477836E+02  0.46967146144E+02  0.52172061279E+02  0.85756646971E+02  0.41800000000E+01 0. -1.
         -5    1    3    3    0  502  0.78000235510E+02  0.99385597788E+02  0.11300855297E+03  0.16955807038E+03  0.41800000000E+01 0. -1.
        -11    1    1    2    0    0 -0.54353991841E+02 -0.99709291087E+02 -0.22581776548E+01  0.11358432341E+03  0.00000000000E+00 0. -1.
         11    1    1    2    0    0  0.25434234167E+02 -0.46643452845E+02  0.36722422709E+02  0.64583653431E+02  0.00000000000E+00 0.  1.
</event>
<event>
 7    1  0.2564986E-009  0.1104296E+03  0.7561462E-02  0.1259776E+00
          2   -1    0    0  501    0  0.00000000000E+00  0.00000000000E+00  0.22318115676E+02  0.22318115676E+02  0.00000000000E+00 0. -1.
         -2   -1    0    0    0  501 -0.00000000000E+00 -0.00000000000E+00 -0.77747519357E+03  0.77747519357E+03  0.00000000000E+00 0.  1.
         25    2    1    2    0    0 -0.43292847431E+02 -0.54253197087E+02 -0.51391803806E+03  0.53345746966E+03  0.12508973605E+03 0.  0.
          5    1    3    3  502    0 -0.66222546963E+02 -0.62267946527E+02 -0.49240452808E+03  0.50074186420E+03  0.41800000000E+01 0. -1.
         -5    1    3    3    0  502  0.22929699532E+02  0.80147494399E+01 -0.21513509982E+02  0.32715605465E+02  0.41800000000E+01 0. -1.
        -11    1    1    2    0    0 -0.22668740365E+02  0.22757698107E+02 -0.34897855810E+02  0.47430422231E+02  0.00000000000E+00 0. -1.
         11    1    1    2    0    0  0.65961587796E+02  0.31495498980E+02 -0.20634118402E+03  0.21890541735E+03  0.00000000000E+00 0.  1.
</event>
<event>
 7    1  0.2919953E-009  0.7642643E+02  0.7561462E-02  0.1339510E+00
          1   -1    0    0  501    0  0.00000000000E+00  0.00000000000E+00  0.32888137027E+03  0.32888137027E+03  0.00000000000E+00 0. -1.
         -1   -1    0    0    0  501 -0.00000000000E+00 -0.00000000000E+00 -0.49666763281E+02  0.49666763281E+02  0.00000000000E+00 0.  1.
         25    2    1    2    0    0  0.48129109971E+02 -0.21337992085E+02  0.92450073212E+02  0.16421339198E+03  0.12508917193E+03 0.  0.
          5    1    3    3  502    0  0.13194184622E+02 -0.98494794501E+01  0.11801437640E+03  0.11923071832E+03  0.41800000000E+01 0.  1.
         -5    1    3    3    0  502  0.34934925350E+02 -0.11488512635E+02 -0.25564303191E+02  0.44982673658E+02  0.41800000000E+01 0.  1.
        -11    1    1    2    0    0 -0.20055073653E+01 -0.29869019832E+02  0.26894712281E+02  0.40243085794E+02  0.00000000000E+00 0.  1.
         11    1    1    2    0    0 -0.46123602606E+02  0.51207011918E+02  0.15986982150E+03  0.17409165578E+03  0.00000000000E+00 0. -1.
</event>
<event>
 7    1  0.2564986E-009  0.7374093E+02  0.7561462E-02  0.1347815E+00
         -3   -1    0    0    0  501 -0.00000000000E+00  0.00000000000E+00  0.19506889538E+03  0.19506889538E+03  0.00000000000E+00 0.  1.
          3   -1    0    0  501    0  0.00000000000E+00 -0.00000000000E+00 -0.79995906017E+02  0.79995906017E+02  0.00000000000E+00 0. -1.
         25    2    1    2    0    0 -0.10738482282E+02  0.58781175952E+02  0.78755403795E+02  0.15943650861E+03  0.12508814893E+03 0.  0.
          5    1    3    3  502    0  0.48785012949E+01  0.22597352374E+00  0.96059201361E+02  0.96274053644E+02  0.41800000000E+01 0.  1.
         -5    1    3    3    0  502 -0.15616983577E+02  0.58555202428E+02 -0.17303797566E+02  0.63162454969E+02  0.41800000000E+01 0.  1.
        -11    1    1    2    0    0  0.17844546038E+01  0.10398660302E+02  0.44186790224E+02  0.45428942807E+02  0.00000000000E+00 0.  1.
         11    1    1    2    0    0  0.89540276786E+01 -0.69179836254E+02 -0.78692046528E+01  0.70199349981E+02  0.00000000000E+00 0. -1.
</event>
<event>
 7    1  0.2564986E-009  0.1323684E+03  0.7561462E-02  0.1223983E+00
         -2   -1    0    0    0  501 -0.00000000000E+00  0.00000000000E+00  0.93964633119E+02  0.93964633119E+02  0.00000000000E+00 0.  1.
          2   -1    0    0  501    0  0.00000000000E+00 -0.00000000000E+00 -0.19040913851E+03  0.19040913851E+03  0.00000000000E+00 0. -1.
         25    2    1    2    0    0  0.17896886678E+02  0.75101443881E+02 -0.49751000993E+02  0.15518871306E+03  0.12509136315E+03 0.  0.
          5    1    3    3  502    0  0.50820381309E+02  0.93998151840E+02 -0.47263212841E+02  0.11691726730E+03  0.41800000000E+01 0. -1.
         -5    1    3    3    0  502 -0.32923494631E+02 -0.18896707959E+02 -0.24877881520E+01  0.38271445757E+02  0.41800000000E+01 0. -1.
        -11    1    1    2    0    0 -0.24357264020E+02  0.15438387150E+02 -0.48822555460E+01  0.29248188449E+02  0.00000000000E+00 0.  1.
         11    1    1    2    0    0  0.64603773423E+01 -0.90539831032E+02 -0.41811248852E+02  0.99936870119E+02  0.00000000000E+00 0. -1.
</event>
<event>
 7    1  0.2564986E-009  0.5377777E+03  0.7561462E-02  0.1004363E+00
          2   -1    0    0  501    0  0.00000000000E+00  0.00000000000E+00  0.19136736089E+04  0.19136736089E+04  0.00000000000E+00 0. -1.
         -2   -1    0    0    0  501 -0.00000000000E+00 -0.00000000000E+00 -0.15900842587E+03  0.15900842587E+03  0.00000000000E+00 0.  1.
         25    2    1    2    0    0 -0.50134720345E+03 -0.17923246845E+03  0.10603611488E+04  0.11931011637E+04  0.12510525483E+03 0.  0.
          5    1    3    3  502    0 -0.20434063217E+03 -0.12915186788E+03  0.40204202730E+03  0.46913810658E+03  0.41800000000E+01 0. -1.
         -5    1    3    3    0  502 -0.29700657128E+03 -0.50080600562E+02  0.65831912153E+03  0.72396305714E+03  0.41800000000E+01 0. -1.
        -11    1    1    2    0    0  0.39997483994E+03  0.13784765227E+03  0.60521336358E+03  0.73842065469E+03  0.00000000000E+00 0.  1.
         11    1    1    2    0    0  0.10137236352E+03  0.41384816177E+02  0.89090670654E+02  0.14116021639E+03  0.00000000000E+00 0. -1.
</event>
<event>
 7    1  0.2564986E-009  0.1121740E+03  0.7561462E-02  0.1256596E+00
         -1   -1    0    0    0  501 -0.00000000000E+00  0.00000000000E+00  0.53643358463E+02  0.53643358463E+02  0.00000000000E+00 0. -1.
          1   -1    0    0  501    0  0.00000000000E+00 -0.00000000000E+00 -0.30267720835E+03  0.30267720835E+03  0.00000000000E+00 0.  1.
         25    2    1    2    0    0 -0.27374334747E+02  0.39312931900E+02 -0.72464681606E+02  0.15229140572E+03  0.12508669537E+03 0.  0.
          5    1    3    3  502    0 -0.70561104503E+02  0.14574533150E+02 -0.72566481851E+02  0.10234575308E+03  0.41800000000E+01 0.  1.
         -5    1    3    3    0  502  0.43186769755E+02  0.24738398749E+02  0.10180024429E+00  0.49945652642E+02  0.41800000000E+01 0.  1.
        -11    1    1    2    0    0  0.49933516084E+02 -0.55355282116E+02 -0.12904991897E+03  0.14903504579E+03  0.00000000000E+00 0.  1.
         11    1    1    2    0    0 -0.22559181336E+02  0.16042350216E+02 -0.47519249311E+02  0.54994115304E+02  0.00000000000E+00 0. -1.
</event>
<event>
 7    1  0.2564986E-009  0.1093753E+03  0.7561462E-02  0.1261731E+00
         -2   -1    0    0    0  501 -0.00000000000E+00  0.00000000000E+00  0.10092064210E+03  0.10092064210E+03  0.00000000000E+00 0.  1.
          2   -1    0    0  501    0  0.00000000000E+00 -0.00000000000E+00 -0.21530945182E+03  0.21530945182E+03  0.00000000000E+00 0. -1.
         25    2    1    2    0    0  0.65982410882E+02  0.71944975538E+02 -0.84353478760E+02  0.17970401943E+03  0.12509303406E+03 0.  0.
          5    1    3    3  502    0  0.73380403074E+02  0.74163947835E+02 -0.10065587289E+02  0.10489882345E+03  0.41800000000E+01 0.  1.
         -5    1    3    3    0  502 -0.73979921921E+01 -0.22189722971E+01 -0.74287891471E+02  0.74805195981E+02  0.41800000000E+01 0.  1.
        -11    1    1    2    0    0 -0.30900438579E+02 -0.61701720548E+02  0.22452825917E+02  0.72567684368E+02  0.00000000000E+00 0.  1.
         11    1    1    2    0    0 -0.35081972302E+02 -0.10243254991E+02 -0.52488156882E+02  0.63958390116E+02  0.00000000000E+00 0. -1.
</event>
<event>
 7    1  0.2564986E-009  0.1687707E+03  0.7561462E-02  0.1179136E+00
          1   -1    0    0  501    0  0.00000000000E+00  0.00000000000E+00  0.44639315006E+03  0.44639315006E+03  0.00000000000E+00 0. -1.
         -1   -1    0    0    0  501 -0.00000000000E+00 -0.00000000000E+00 -0.68342150534E+02  0.68342150534E+02  0.00000000000E+00 0.  1.
         25    2    1    2    0    0 -0.12388957452E+03  0.57561303442E+02  0.20487849199E+03  0.27619604860E+03  0.12508849049E+03 0.  0.
          5    1    3    3  502    0 -0.11400153829E+03 -0.35237414150E+01  0.17081532337E+03  0.20543640034E+03  0.41800000000E+01 0.  1.
         -5    1    3    3    0  502 -0.98880362300E+01  0.61085044857E+02  0.34063168621E+02  0.70759648262E+02  0.41800000000E+01 0.  1.
        -11    1    1    2    0    0  0.93037078605E+02 -0.80430385154E+02  0.11216781051E+03  0.16645288392E+03  0.00000000000E+00 0.  1.
         11    1    1    2    0    0  0.30852495916E+02  0.22869081712E+02  0.61004697034E+02  0.72086368079E+02  0.00000000000E+00 0. -1.
</event>
<event>
 7    1  0.2564986E-009  0.1147755E+03  0.7561462E-02  0.1251974E+00
         -1   -1    0    0    0  501 -0.00000000000E+00  0.00000000000E+00  0.53546918788E+02  0.53546918788E+02  0.00000000000E+00 0.  1.
          1   -1    0    0  501    0  0.00000000000E+00 -0.00000000000E+00 -0.38415271192E+03  0.38415271192E+03  0.00000000000E+00 0. -1.
         25    2    1    2    0    0  0.18009574948E+02 -0.43294691043E+02 -0.56879093285E+02  0.14519659334E+03  0.12509214365E+03 0.  0.
          5    1    3    3  502    0 -0.52825410432E+02 -0.27431164702E+02 -0.15976213219E+02  0.61771389599E+02  0.41800000000E+01 0.  1.
         -5    1    3    3    0  502  0.70834985380E+02 -0.15863526341E+02 -0.40902880066E+02  0.83425203742E+02  0.41800000000E+01 0.  1.
        -11    1    1    2    0    0 -0.23176401228E+02 -0.21832139715E+02 -0.14123427203E+03  0.14477882267E+03  0.00000000000E+00 0. -1.
         11    1    1    2    0    0  0.51668262800E+01  0.65126830758E+02 -0.13249242782E+03  0.14772421470E+03  0.00000000000E+00 0.  1.
</event>
<event>
 7    1  0.2564986E-009  0.1005043E+03  0.7561462E-02  0.1279239E+00
          2   -1    0    0  501    0  0.00000000000E+00  0.00000000000E+00  0.45592418884E+03  0.45592418884E+03  0.00000000000E+00 0. -1.
         -2   -1    0    0    0  501 -0.00000000000E+00 -0.00000000000E+00 -0.36232915196E+02  0.36232915196E+02  0.00000000000E+00 0.  1.
         25    2    1    2    0    0  0.57652439019E+02  0.31060480617E+02  0.27788529898E+03  0.31169920871E+03  0.12509036790E+03 0.  0.
          5    1    3    3  502    0  0.82039429463E+02 -0.14265810436E+02  0.12436718802E+03  0.14972859175E+03  0.41800000000E+01 0.  1.
         -5    1    3    3    0  502 -0.24386990444E+02  0.45326291053E+02  0.15351811096E+03  0.16197061695E+03  0.41800000000E+01 0.  1.
        -11    1    1    2    0    0 -0.26003778025E+02 -0.94374047083E+01 -0.55360175832E+01  0.28211851585E+02  0.00000000000E+00 0.  1.
         11    1    1    2    0    0 -0.31648660994E+02 -0.21623075909E+02  0.14734199225E+03  0.15224604374E+03  0.00000000000E+00 0. -1.
</event>
<event>
 7    1  0.2564986E-009  0.1185232E+03  0.7561462E-02  0.1245553E+00
          1   -1    0    0  501    0  0.00000000000E+00  0.00000000000E+00  0.12364420835E+04  0.12364420835E+04  0.00000000000E+00 0. -1.
         -1   -1    0    0    0  501 -0.00000000000E+00 -0.00000000000E+00 -0.14790101289E+02  0.14790101289E+02  0.00000000000E+00 0.  1.
         25    2    1    2    0    0 -0.55524332800E+01  0.62326015535E+02  0.83616224838E+03  0.84777973521E+03  0.12509121503E+03 0.  0.
          5    1    3    3  502    0  0.18812600545E+02  0.93431232453E+02  0.47847699036E+03  0.48789446794E+03  0.41800000000E+01 0.  1.
         -5    1    3    3    0  502 -0.24365033825E+02 -0.31105216918E+02  0.35768525802E+03  0.35988526727E+03  0.41800000000E+01 0.  1.
        -11    1    1    2    0    0 -0.37496531183E+02 -0.26596024355E+02  0.75038233843E+02  0.88000425570E+02  0.00000000000E+00 0. -1.
         11    1    1    2    0    0  0.43048964463E+02 -0.35729991180E+02  0.31045149999E+03  0.31545202402E+03  0.00000000000E+00 0.  1.
</event>
<event>
 7    1  0.2564986E-009  0.9540911E+02  0.7561462E-02  0.1290257E+00
         -1   -1    0    0    0  501 -0.00000000000E+00  0.00000000000E+00  0.72753229498E+02  0.72753229498E+02  0.00000000000E+00 0.  1.
          1   -1    0    0  501    0  0.00000000000E+00 -0.00000000000E+00 -0.23777935627E+03  0.23777935627E+03  0.00000000000E+00 0. -1.
         25    2    1    2    0    0  0.54234193788E+02 -0.25384543919E+02 -0.14156303035E+03  0.19817394753E+03  0.12508836506E+03 0.  0.
          5    1    3    3  502    0  0.40879605638E+02  0.37338385313E+02 -0.17095679090E+02  0.58095024042E+02  0.41800000000E+01 0. -1.
         -5    1    3    3    0  502  0.13354588151E+02 -0.62722929232E+02 -0.12446735126E+03  0.14007892349E+03  0.41800000000E+01 0. -1.
        -11    1    1    2    0    0 -0.16503352428E+02  0.28749937110E+02  0.31418574939E+02  0.45673256687E+02  0.00000000000E+00 0.  1.
         11    1    1    2    0    0 -0.37730841361E+02 -0.33653931909E+01 -0.54881671360E+02  0.66685381549E+02  0.00000000000E+00 0. -1.
</event>
<event>
 7    1  0.2564986E-009  0.1036896E+03  0.7561462E-02  0.1272723E+00
          3   -1    0    0  501    0  0.00000000000E+00  0.00000000000E+00  0.62205670529E+02  0.62205670529E+02  0.00000000000E+00 0. -1.
         -3   -1    0    0    0  501 -0.00000000000E+00 -0.00000000000E+00 -0.19337388325E+03  0.19337388325E+03  0.00000000000E+00 0.  1.
         25    2    1    2    0    0 -0.13577809904E+02 -0.79715738829E+01 -0.75052775702E+02  0.14672742571E+03  0.12509242744E+03 0.  0.
          5    1    3    3  502    0 -0.16708867823E+02  0.57007495118E+02 -0.46516535662E+02  0.75566535275E+02  0.41800000000E+01 0. -1.
         -5    1    3    3    0  502  0.31310579184E+01 -0.64979069001E+02 -0.28536240040E+02  0.71160890435E+02  0.41800000000E+01 0. -1.
        -11    1    1    2    0    0 -0.30984307702E+02  0.19498587250E+02 -0.50656904089E+02  0.62500753279E+02  0.00000000000E+00 0.  1.
         11    1    1    2    0    0  0.44562117607E+02 -0.11527013367E+02 -0.54585329259E+01  0.46351374785E+02  0.00000000000E+00 0. -1.
</event>
<event>
 7    1  0.2564986E-009  0.1143130E+03  0.7561462E-02  0.1252785E+00
          1   -1    0    0  501    0  0.00000000000E+00  0.00000000000E+00  0.84874454692E+02  0.84874454692E+02  0.00000000000E+00 0. -1.
         -1   -1    0    0    0  501 -0.00000000000E+00 -0.00000000000E+00 -0.20992685657E+03  0.20992685657E+03  0.00000000000E+00 0.  1.
         25    2    1    2    0    0 -0.53191730864E+02 -0.51442589165E+02 -0.87072241506E+02  0.16942537744E+03  0.12509069937E+03 0.  0.
          5    1    3    3  502    0  0.25745125271E+02 -0.48236370748E+02 -0.44218140422E+01  0.55014396094E+02  0.41800000000E+01 0. -1.
         -5    1    3    3    0  502 -0.78936856135E+02 -0.32062184168E+01 -0.82650427464E+02  0.11441098135E+03  0.41800000000E+01 0. -1.
        -11    1    1    2    0    0  0.41830453243E+02 -0.16806406696E+00 -0.55681553490E+02  0.69643739583E+02  0.00000000000E+00 0.  1.
         11    1    1    2    0    0  0.11361277621E+02  0.51610653232E+02  0.17701393118E+02  0.55732194238E+02  0.00000000000E+00 0. -1.
</event>
<event>
 7    1  0.2564986E-009  0.9039716E+02  0.7561462E-02  0.1301893E+00
         -2   -1    0    0    0  501 -0.00000000000E+00  0.00000000000E+00  0.28376707900E+02  0.28376707900E+02  0.00000000000E+00 0.  1.
          2   -1    0    0  501    0  0.00000000000E+00 -0.00000000000E+00 -0.39222363212E+03  0.39222363212E+03  0.00000000000E+00 0. -1.
         25    2    1    2    0    0 -0.83675961140E+01  0.13894612683E+02 -0.18976696449E+03  0.22786365210E+03  0.12508903312E+03 0.  0.
          5    1    3    3  502    0  0.42204886298E+02 -0.29870137900E+02 -0.12195011904E+03  0.13252464487E+03  0.41800000000E+01 0.  1.
         -5    1    3    3    0  502 -0.50572482412E+02  0.43764750583E+02 -0.67816845456E+02  0.95339007224E+02  0.41800000000E+01 0.  1.
        -11    1    1    2    0    0 -0.25717415117E+02 -0.10037923513E+02 -0.18058065717E+02  0.32988468989E+02  0.00000000000E+00 0.  1.
         11    1    1    2    0    0  0.34085011231E+02 -0.38566891693E+01 -0.15602189401E+03  0.15974821893E+03  0.00000000000E+00 0. -1.
</event>
<event>
 7    1  0.2564986E-009  0.8963588E+02  0.7561462E-02  0.1303736E+00
          2   -1    0    0  501    0  0.00000000000E+00  0.00000000000E+00  0.28331689745E+03  0.28331689745E+03  0.00000000000E+00 0. -1.
         -2   -1    0    0    0  501 -0.00000000000E+00 -0.00000000000E+00 -0.40995215517E+02  0.40995215517E+02  0.00000000000E+00 0.  1.
         25    2    1    2    0    0 -0.22457273783E+01 -0.50990502555E+00  0.12940275795E+03  0.17999505252E+03  0.12509133411E+03 0.  0.
          5    1    3    3  502    0 -0.18321691927E+02 -0.55272330995E+02  0.30842906844E+02  0.66026299845E+02  0.41800000000E+01 0.  1.
         -5    1    3    3    0  502  0.16075964548E+02  0.54762425969E+02  0.98559851110E+02  0.11396875267E+03  0.41800000000E+01 0.  1.
        -11    1    1    2    0    0  0.24666908831E+02  0.21672087352E+02  0.64349846051E+01  0.33459599345E+02  0.00000000000E+00 0.  1.
         11    1    1    2    0    0 -0.22421181453E+02 -0.21162182326E+02  0.10648393937E+03  0.11085746111E+03  0.00000000000E+00 0. -1.
</event>
<event>
 7    1  0.2564986E-009  0.1099846E+03  0.7561462E-02  0.1260598E+00
         -1   -1    0    0    0  501 -0.00000000000E+00  0.00000000000E+00  0.15718296151E+02  0.15718296151E+02  0.00000000000E+00 0.  1.
          1   -1    0    0  501    0  0.00000000000E+00 -0.00000000000E+00 -0.91153146650E+03  0.91153146650E+03  0.00000000000E+00 0. -1.
         25    2    1    2    0    0  0.25190949161E+02 -0.46655544626E+02 -0.52378293397E+03  0.54111672577E+03  0.12508966876E+03 0.  0.
          5    1    3    3  502    0  0.22974186832E+02 -0.81425692139E+02 -0.22741859814E+03  0.24268219502E+03  0.41800000000E+01 0.  1.
         -5    1    3    3    0  502  0.22167623286E+01  0.34770147513E+02 -0.29636433583E+03  0.29843453075E+03  0.41800000000E+01 0.  1.
        -11    1    1    2    0    0 -0.18273420087E+02 -0.23447560534E+02 -0.71032286092E+02  0.77001893770E+02  0.00000000000E+00 0. -1.
         11    1    1    2    0    0 -0.69175290737E+01  0.70103105160E+02 -0.30099795029E+03  0.30913114311E+03  0.00000000000E+00 0.  1.
</event>
<event>
 7    1  0.2564986E-009  0.1957406E+03  0.7561462E-02  0.1153383E+00
          2   -1    0    0  501    0  0.00000000000E+00  0.00000000000E+00  0.13440427054E+04  0.13440427054E+04  0.00000000000E+00 0. -1.
         -2   -1    0    0    0  501 -0.00000000000E+00 -0.00000000000E+00 -0.36654948081E+02  0.36654948081E+02  0.00000000000E+00 0.  1.
         25    2    1    2    0    0 -0.13288184380E+03  0.13240134249E+03  0.54341935119E+03  0.58833674806E+03  0.12509131847E+03 0.  0.
          5    1    3    3  502    0 -0.23324712665E+02  0.98525526381E+01  0.25538297378E+03  0.25666914640E+03  0.41800000000E+01 0.  1.
         -5    1    3    3    0  502 -0.10955713114E+03  0.12254878986E+03  0.28803637741E+03  0.33166760166E+03  0.41800000000E+01 0.  1.
        -11    1    1    2    0    0  0.11215729013E+03 -0.62331360750E+02  0.36855943851E+03  0.39025698710E+03  0.00000000000E+00 0.  1.
         11    1    1    2    0    0  0.20724553675E+02 -0.70069981744E+02  0.39540896765E+03  0.40210391837E+03  0.00000000000E+00 0. -1.
</event>
<event>
 7    1  0.2564986E-009  0.1456995E+03  0.7561462E-02  0.1205859E+00
          2   -1    0    0  501    0  0.00000000000E+00  0.00000000000E+00  0.13471157787E+04  0.13471157787E+04  0.00000000000E+00 0.  1.
         -2   -1    0    0    0  501 -0.00000000000E+00 -0.00000000000E+00 -0.19211520808E+02  0.19211520808E+02  0.00000000000E+00 0. -1.
         25    2    1    2    0    0 -0.11768046408E+03 -0.94979955558E+01  0.76326193234E+03  0.78240336712E+03  0.12508936001E+03 0.  0.
          5    1    3    3  502    0  0.10607787223E+02 -0.29837180660E+02  0.28551528178E+03  0.28729641666E+03  0.41800000000E+01 0. -1.
         -5    1    3    3    0  502 -0.12828825130E+03  0.20339185104E+02  0.47774665056E+03  0.49510695046E+03  0.41800000000E+01 0. -1.
        -11    1    1    2    0    0  0.73919275145E+02  0.31698680536E+02  0.47470955681E+03  0.48147484765E+03  0.00000000000E+00 0.  1.
         11    1    1    2    0    0  0.43761188936E+02 -0.22200684981E+02  0.89932768768E+02  0.10244908476E+03  0.00000000000E+00 0. -1.
</event>
<event>
 7    1  0.2564986E-009  0.9542943E+02  0.7561462E-02  0.1290212E+00
          1   -1    0    0  501    0  0.00000000000E+00  0.00000000000E+00  0.17864830512E+03  0.17864830512E+03  0.00000000000E+00 0. -1.
         -1   -1    0    0    0  501 -0.00000000000E+00 -0.00000000000E+00 -0.19752946838E+03  0.19752946838E+03  0.00000000000E+00 0.  1.
         25    2    1    2    0    0  0.44602953455E+02 -0.46089645421E+02  0.12878282787E+03  0.19064670186E+03  0.12508984493E+03 0.  0.
          5    1    3    3  502    0  0.54973075850E+02 -0.59992129906E+02  0.14513784062E+03  0.16644386410E+03  0.41800000000E+01 0.  1.
         -5    1    3    3    0  502 -0.10370122395E+02  0.13902484484E+02 -0.16355012748E+02  0.24202837753E+02  0.41800000000E+01 0.  1.
        -11    1    1    2    0    0 -0.45032876303E+02  0.61444448590E+02 -0.61213547901E+02  0.97726550421E+02  0.00000000000E+00 0. -1.
         11    1    1    2    0    0  0.42992284770E+00 -0.15354803169E+02 -0.86450443225E+02  0.87804521227E+02  0.00000000000E+00 0.  1.
</event>
<event>
 7    1  0.2564986E-009  0.1118754E+03  0.7561462E-02  0.1257136E+00
          2   -1    0    0  501    0  0.00000000000E+00  0.00000000000E+00  0.80764554561E+03  0.80764554561E+03  0.00000000000E+00 0. -1.
         -2   -1    0    0    0  501 -0.00000000000E+00 -0.00000000000E+00 -0.28820865040E+02  0.28820865040E+02  0.00000000000E+00 0.  1.
         25    2    1    2    0    0 -0.55275843797E+02 -0.42370658564E+02  0.65691401359E+03  0.67233477297E+03  0.12508930439E+03 0.  0.
          5    1    3    3  502    0 -0.68862612444E+02  0.10635827918E+01  0.56978526761E+03  0.57394765805E+03  0.41800000000E+01 0.  1.
         -5    1    3    3    0  502  0.13586768647E+02 -0.43434241356E+02  0.87128745983E+02  0.98387114914E+02  0.41800000000E+01 0.  1.
        -11    1    1    2    0    0 -0.15157190855E+02  0.35114536039E+02  0.52725859050E+02  0.65136681589E+02  0.00000000000E+00 0.  1.
         11    1    1    2    0    0  0.70433034652E+02  0.72561225253E+01  0.69184807931E+02  0.98994956098E+02  0.00000000000E+00 0. -1.
</event>
<event>
 7    1  0.2564986E-009  0.1773349E+03  0.7561462E-02  0.1170408E+00
          1   -1    0    0  501    0  0.00000000000E+00  0.00000000000E+00  0.62628838609E+03  0.62628838609E+03  0.00000000000E+00 0. -1.
         -1   -1    0    0    0  501 -0.00000000000E+00 -0.00000000000E+00 -0.76072297634E+02  0.76072297634E+02  0.00000000000E+00 0.  1.
         25    2    1    2    0    0 -0.12006980705E+03  0.10169030484E+03  0.45436613835E+03  0.49684289223E+03  0.12508635101E+03 0.  0.
          5    1    3    3  502    0 -0.16415835108E+02  0.90483711021E+02  0.26641892205E+03  0.28187461047E+03  0.41800000000E+01 0.  1.
         -5    1    3    3    0  502 -0.10365397194E+03  0.11206593822E+02  0.18794721631E+03  0.21496828176E+03  0.41800000000E+01 0.  1.
        -11    1    1    2    0    0  0.69382968479E+02 -0.69629996650E+02  0.10614117082E+03  0.14466610139E+03  0.00000000000E+00 0.  1.
         11    1    1    2    0    0  0.50686838570E+02 -0.32060308193E+02 -0.10291220714E+02  0.60851690111E+02  0.00000000000E+00 0. -1.
</event>
<event>
 7    1  0.2804906E-009  0.1107792E+03  0.7561462E-02  0.1259134E+00
          2   -1    0    0  501    0  0.00000000000E+00  0.00000000000E+00  0.50295222385E+03  0.50295222385E+03  0.00000000000E+00 0.  1.
         -2   -1    0    0    0  501 -0.00000000000E+00 -0.00000000000E+00 -0.34670103644E+02  0.34670103644E+02  0.00000000000E+00 0. -1.
         25    2    1    2    0    0 -0.67283660782E+02 -0.22503114996E+02  0.20981020093E+03  0.25437225713E+03  0.12510572963E+03 0.  0.
          5    1    3    3  502    0 -0.36596259507E+02 -0.62384159086E+02  0.53364227690E+02  0.89979346028E+02  0.41800000000E+01 0. -1.
         -5    1    3    3    0  502 -0.30687401275E+02  0.39881044090E+02  0.15644597324E+03  0.16439291110E+03  0.41800000000E+01 0. -1.
        -11    1    1    2    0    0  0.30987574458E+02 -0.24307206281E+02  0.37156269026E+02  0.54144790847E+02  0.00000000000E+00 0. -1.
         11    1    1    2    0    0  0.36296086324E+02  0.46810321276E+02  0.22131565024E+03  0.22910527952E+03  0.00000000000E+00 0.  1.
</event>
<event>
 7    1  0.2564986E-009  0.1032903E+03  0.7561462E-02  0.1273525E+00
         -1   -1    0    0    0  501 -0.00000000000E+00  0.00000000000E+00  0.19198047201E+03  0.19198047201E+03  0.00000000000E+00 0.  1.
          1   -1    0    0  501    0  0.00000000000E+00 -0.00000000000E+00 -0.12428085072E+03  0.12428085072E+03  0.00000000000E+00 0. -1.
         25    2    1    2    0    0 -0.43186665130E+02 -0.71433760941E+02  0.10917983693E+03  0.18583681144E+03  0.12508882223E+03 0.  0.
          5    1    3    3  502    0 -0.13598591330E+02 -0.34520918330E+02  0.12905955078E+03  0.13435198374E+03  0.41800000000E+01 0.  1.
         -5    1    3    3    0  502 -0.29588073800E+02 -0.36912842611E+02 -0.19879713843E+02  0.51484827700E+02  0.41800000000E+01 0.  1.
        -11    1    1    2    0    0  0.37162843530E+02 -0.11265566830E+02 -0.24102401608E+02  0.45704657296E+02  0.00000000000E+00 0. -1.
         11    1    1    2    0    0  0.60238215995E+01  0.82699327770E+02 -0.17377814040E+02  0.84719853996E+02  0.00000000000E+00 0.  1.
</event>
<event>
 7    1  0.2564986E-009  0.1940855E+03  0.7561462E-02  0.1154827E+00
         -1   -1    0    0    0  501 -0.00000000000E+00  0.00000000000E+00  0.17534713375E+03  0.17534713375E+03  0.00000000000E+00 0.  1.
          1   -1    0    0  501    0  0.00000000000E+00 -0.00000000000E+00 -0.22070875281E+03  0.22070875281E+03  0.00000000000E+00 0. -1.
         25    2    1    2    0    0  0.16079318156E+03  0.10348440835E+02 -0.51047975286E+02  0.21027205601E+03  0.12508758649E+03 0.  0.
          5    1    3    3  502    0  0.63961024099E+02  0.65205336890E+02 -0.11817524052E+02  0.92194765781E+02  0.41800000000E+01 0. -1.
         -5    1    3    3    0  502  0.96832157460E+02 -0.54856896055E+02 -0.39230451234E+02  0.11807729023E+03  0.41800000000E+01 0. -1.
        -11    1    1    2    0    0  0.64908957462E+00 -0.23389822799E+02 -0.29585664801E+01  0.23585127590E+02  0.00000000000E+00 0. -1.
         11    1    1    2    0    0 -0.16144227113E+03  0.13041381963E+02  0.86449227063E+01  0.16219870296E+03  0.00000000000E+00 0.  1.
</event>
<event>
 7    1  0.2564986E-009  0.1602586E+03  0.7561462E-02  0.1188405E+00
         -1   -1    0    0    0  501 -0.00000000000E+00  0.00000000000E+00  0.93047569277E+02  0.93047569277E+02  0.00000000000E+00 0.  1.
          1   -1    0    0  501    0  0.00000000000E+00 -0.00000000000E+00 -0.34095424646E+03  0.34095424646E+03  0.00000000000E+00 0. -1.
         25    2    1    2    0    0  0.13465571835E+03  0.17291118403E+02 -0.77794941725E+02  0.20032592365E+03  0.12508907813E+03 0.  0.
          5    1    3    3  502    0  0.37340408463E+02  0.65798353763E+02 -0.33301935673E+02  0.82766060567E+02  0.41800000000E+01 0.  1.
         -5    1    3    3    0  502  0.97315309888E+02 -0.48507235361E+02 -0.44493006052E+02  0.11755986309E+03  0.41800000000E+01 0.  1.
        -11    1    1    2    0    0 -0.96251955744E+02 -0.92535479354E+01 -0.53218174084E+02  0.11037319053E+03  0.00000000000E+00 0.  1.
         11    1    1    2    0    0 -0.38403762607E+02 -0.80375704671E+01 -0.11689356137E+03  0.12330270156E+03  0.00000000000E+00 0. -1.
</event>
<event>
 7    1  0.2564986E-009  0.1570426E+03  0.7561462E-02  0.1192077E+00
          1   -1    0    0  501    0  0.00000000000E+00  0.00000000000E+00  0.23296382689E+04  0.23296382689E+04  0.00000000000E+00 0. -1.
         -1   -1    0    0    0  501 -0.00000000000E+00 -0.00000000000E+00 -0.21948022232E+02  0.21948022232E+02  0.00000000000E+00 0.  1.
         25    2    1    2    0    0 -0.93060330422E+02  0.10107857635E+03  0.19380657184E+04  0.19469525665E+04  0.12509381884E+03 0.  0.
          5    1    3    3  502    0  0.82851561383E+01  0.69985950939E+02  0.10887436320E+04  0.10910301763E+04  0.41800000000E+01 0. -1.
         -5    1    3    3    0  502 -0.10134548656E+03  0.31092625411E+02  0.84932208643E+03  0.85592239012E+03  0.41800000000E+01 0. -1.
        -11    1    1    2    0    0  0.58970893823E+02 -0.63466756787E+02  0.32720873428E+03  0.33848360570E+03  0.00000000000E+00 0. -1.
         11    1    1    2    0    0  0.34089436599E+02 -0.37611819563E+02  0.42415793931E+02  0.66150118920E+02  0.00000000000E+00 0.  1.
</event>
<event>
 7    1  0.2698557E-009  0.1688526E+03  0.7561462E-02  0.1179050E+00
          1   -1    0    0  501    0  0.00000000000E+00  0.00000000000E+00  0.50201313855E+03  0.50201313855E+03  0.00000000000E+00 0. -1.
         -1   -1    0    0    0  501 -0.00000000000E+00 -0.00000000000E+00 -0.72247366642E+02  0.72247366642E+02  0.00000000000E+00 0.  1.
         25    2    1    2    0    0  0.13544408141E+03 -0.18565209126E+02  0.11177485278E+03  0.21640376698E+03  0.12508879435E+03 0.  0.
          5    1    3    3  502    0  0.20736825932E+02 -0.56998694798E+02  0.57730410220E+02  0.83839965545E+02  0.41800000000E+01 0. -1.
         -5    1    3    3    0  502  0.11470725548E+03  0.38433485672E+02  0.54044442560E+02  0.13256380144E+03  0.41800000000E+01 0. -1.
        -11    1    1    2    0    0 -0.43606305578E+02 -0.29066361206E+02  0.58704247667E+02  0.78692769261E+02  0.00000000000E+00 0.  1.
         11    1    1    2    0    0 -0.91837775831E+02  0.47631570332E+02  0.25928667146E+03  0.27916396895E+03  0.00000000000E+00 0. -1.
</event>
<event>
 7    1  0.2564986E-009  0.1160997E+03  0.7561462E-02  0.1249674E+00
         -2   -1    0    0    0  501 -0.00000000000E+00  0.00000000000E+00  0.46486275733E+03  0.46486275733E+03  0.00000000000E+00 0. -1.
          2   -1    0    0  501    0  0.00000000000E+00 -0.00000000000E+00 -0.79447319556E+02  0.79447319556E+02  0.00000000000E+00 0.  1.
         25    2    1    2    0    0 -0.27910587435E+02 -0.78009514142E+02  0.39230293290E+03  0.42001497383E+03  0.12508597800E+03 0.  0.
          5    1    3    3  502    0 -0.51083191631E+02 -0.85038036511E+02  0.17401950996E+03  0.20035274484E+03  0.41800000000E+01 0.  1.
         -5    1    3    3    0  502  0.23172604196E+02  0.70285223690E+01  0.21828342294E+03  0.21966222899E+03  0.41800000000E+01 0.  1.
        -11    1    1    2    0    0  0.50113079379E+02  0.39195006254E+02  0.26060917217E+02  0.68751295598E+02  0.00000000000E+00 0. -1.
         11    1    1    2    0    0 -0.22202491945E+02  0.38814507888E+02 -0.32948412342E+02  0.55543807458E+02  0.00000000000E+00 0.  1.
</event>
<event>
 7    1  0.2564986E-009  0.1150700E+03  0.7561462E-02  0.1251459E+00
          1   -1    0    0  501    0  0.00000000000E+00  0.00000000000E+00  0.58375669256E+03  0.58375669256E+03  0.00000000000E+00 0. -1.
         -1   -1    0    0    0  501 -0.00000000000E+00 -0.00000000000E+00 -0.26357746327E+02  0.26357746327E+02  0.00000000000E+00 0.  1.
         25    2    1    2    0    0 -0.24379880552E+02  0.52495331345E+02  0.34695237301E+03  0.37332786992E+03  0.12509041104E+03 0.  0.
          5    1    3    3  502    0 -0.10390886481E+02  0.93569690788E+02  0.23614270806E+03  0.25425205707E+03  0.41800000000E+01 0.  1.
         -5    1    3    3    0  502 -0.13988994070E+02 -0.41074359443E+02  0.11080966495E+03  0.11907581285E+03  0.41800000000E+01 0.  1.
        -11    1    1    2    0    0 -0.10206573158E+02  0.14019159517E+02  0.49376781659E+01  0.18030297692E+02  0.00000000000E+00 0.  1.
         11    1    1    2    0    0  0.34586453710E+02 -0.66514490862E+02  0.20550889506E+03  0.21875627128E+03  0.00000000000E+00 0. -1.
</event>
<event>
 7    1  0.2564986E-009  0.1423804E+03  0.7561462E-02  0.1210161E+00
         -2   -1    0    0    0  501 -0.00000000000E+00  0.00000000000E+00  0.17938703150E+03  0.17938703150E+03  0.00000000000E+00 0.  1.
          2   -1    0    0  501    0  0.00000000000E+00 -0.00000000000E+00 -0.16030179568E+03  0.16030179568E+03  0.00000000000E+00 0. -1.
         25    2    1    2    0    0 -0.62934025903E+02 -0.77170474043E+02  0.93473356823E+02  0.18520429735E+03  0.12508952651E+03 0.  0.
          5    1    3    3  502    0 -0.94623524078E+02 -0.69997822604E+02  0.43704859278E+02  0.12562202674E+03  0.41800000000E+01 0.  1.
         -5    1    3    3    0  502  0.31689498175E+02 -0.71726514391E+01  0.49768497545E+02  0.59582270611E+02  0.41800000000E+01 0.  1.
        -11    1    1    2    0    0  0.15607761205E+02 -0.20458606695E+02 -0.66434758656E+01  0.26576165437E+02  0.00000000000E+00 0. -1.
         11    1    1    2    0    0  0.47326264698E+02  0.97629080738E+02 -0.67744645137E+02  0.12790836439E+03  0.00000000000E+00 0.  1.
</event>
<event>
 7    1  0.2564986E-009  0.1614636E+03  0.7561462E-02  0.1187054E+00
         -2   -1    0    0    0  501 -0.00000000000E+00  0.00000000000E+00  0.83170589735E+02  0.83170589735E+02  0.00000000000E+00 0.  1.
          2   -1    0    0  501    0  0.00000000000E+00 -0.00000000000E+00 -0.45323308093E+03  0.45323308093E+03  0.00000000000E+00 0. -1.
         25    2    1    2    0    0 -0.12082131256E+03  0.54183569333E+02 -0.31857395720E+03  0.36697333817E+03  0.12508563455E+03 0.  0.
          5    1    3    3  502    0 -0.59894642123E+02  0.90936051375E+02 -0.21782440466E+03  0.24356041809E+03  0.41800000000E+01 0.  1.
         -5    1    3    3    0  502 -0.60926670433E+02 -0.36752482042E+02 -0.10074955253E+03  0.12341292008E+03  0.41800000000E+01 0.  1.
        -11    1    1    2    0    0  0.47527255937E+02 -0.50423360352E+02  0.14434620681E+02  0.70779330318E+02  0.00000000000E+00 0.  1.
         11    1    1    2    0    0  0.73294056619E+02 -0.37602089803E+01 -0.65923154675E+02  0.98651002171E+02  0.00000000000E+00 0. -1.
</event>
<event>
 7    1  0.2564986E-009  0.9539503E+02  0.7561462E-02  0.1290289E+00
         -1   -1    0    0    0  501 -0.00000000000E+00  0.00000000000E+00  0.24593199001E+03  0.24593199001E+03  0.00000000000E+00 0.  1.
          1   -1    0    0  501    0  0.00000000000E+00 -0.00000000000E+00 -0.50245350576E+02  0.50245350576E+02  0.00000000000E+00 0. -1.
         25    2    1    2    0    0  0.22754424633E+02 -0.75614832561E+01  0.11620297951E+03  0.17241350647E+03  0.12509334474E+03 0.  0.
          5    1    3    3  502    0  0.40821476889E+02 -0.40809181781E+02  0.88946440011E+01  0.58552279076E+02  0.41800000000E+01 0.  1.
         -5    1    3    3    0  502 -0.18067052256E+02  0.33247698525E+02  0.10730833551E+03  0.11386122740E+03  0.41800000000E+01 0.  1.
        -11    1    1    2    0    0  0.25914562985E+02 -0.25225646112E+02  0.29081622218E+02  0.46407311356E+02  0.00000000000E+00 0. -1.
         11    1    1    2    0    0 -0.48668987618E+02  0.32787129368E+02  0.50402037702E+02  0.77356522753E+02  0.00000000000E+00 0.  1.
</event>
<event>
 7    1  0.2564986E-009  0.1249983E+03  0.7561462E-02  0.1235072E+00
         -1   -1    0    0    0  501 -0.00000000000E+00  0.00000000000E+00  0.57831762868E+02  0.57831762868E+02  0.00000000000E+00 0.  1.
          1   -1    0    0  501    0  0.00000000000E+00 -0.00000000000E+00 -0.32003241214E+03  0.32003241214E+03  0.00000000000E+00 0. -1.
         25    2    1    2    0    0 -0.52302193938E+02  0.46186315111E+02 -0.92628665246E+02  0.17057178848E+03  0.12508385270E+03 0.  0.
          5    1    3    3  502    0 -0.11397700598E+02  0.80285617257E+02 -0.26180261506E+02  0.85314514649E+02  0.41800000000E+01 0.  1.
         -5    1    3    3    0  502 -0.40904493340E+02 -0.34099302146E+02 -0.66448403739E+02  0.85257273835E+02  0.41800000000E+01 0.  1.
        -11    1    1    2    0    0  0.70489211585E+02 -0.59980244863E+02 -0.11158482677E+03  0.14497424698E+03  0.00000000000E+00 0.  1.
         11    1    1    2    0    0 -0.18187017647E+02  0.13793929753E+02 -0.57987157257E+02  0.62318139539E+02  0.00000000000E+00 0. -1.
</event>
<event>
 7    1  0.2564986E-009  0.1462274E+03  0.7561462E-02  0.1205187E+00
          2   -1    0    0  501    0  0.00000000000E+00  0.00000000000E+00  0.27319353115E+03  0.27319353115E+03  0.00000000000E+00 0. -1.
         -2   -1    0    0    0  501 -0.00000000000E+00 -0.00000000000E+00 -0.84833580047E+02  0.84833580047E+02  0.00000000000E+00 0.  1.
         25    2    1    2    0    0 -0.27033016028E+02  0.96984524564E+02  0.14148789377E+03  0.21401685717E+03  0.12509040375E+03 0.  0.
          5    1    3    3  502    0  0.93564738425E+01 -0.27615424016E+02  0.16459469289E+02  0.33742284683E+02  0.41800000000E+01 0.  1.
         -5    1    3    3    0  502 -0.36389489871E+02  0.12459994858E+03  0.12502842448E+03  0.18027457249E+03  0.41800000000E+01 0.  1.
        -11    1    1    2    0    0  0.50841797494E+02 -0.23742653356E+02  0.34874470965E+02  0.66066865265E+02  0.00000000000E+00 0.  1.
         11    1    1    2    0    0 -0.23808781466E+02 -0.73241871208E+02  0.11997586376E+02  0.77943388762E+02  0.00000000000E+00 0. -1.
</event>
<event>
 7    1  0.2564986E-009  0.9251707E+02  0.7561462E-02  0.1296868E+00
          1   -1    0    0  501    0  0.00000000000E+00  0.00000000000E+00  0.60960235026E+03  0.60960235026E+03  0.00000000000E+00 0. -1.
         -1   -1    0    0    0  501 -0.00000000000E+00 -0.00000000000E+00 -0.28529051139E+02  0.28529051139E+02  0.00000000000E+00 0.  1.
         25    2    1    2    0    0 -0.12351517395E+02  0.56134287098E+02  0.20683607214E+03  0.24846916959E+03  0.12510855018E+03 0.  0.
          5    1    3    3  502    0 -0.22940691999E+02  0.62084948099E+02  0.22017749148E+03  0.22994872534E+03  0.41800000000E+01 0.  1.
         -5    1    3    3    0  502  0.10589174604E+02 -0.59506610006E+01 -0.13341419344E+02  0.18520444251E+02  0.41800000000E+01 0.  1.
        -11    1    1    2    0    0 -0.38690215040E+02 -0.22859090521E+02  0.20280062195E+03  0.20771991484E+03  0.00000000000E+00 0. -1.
         11    1    1    2    0    0  0.51041732436E+02 -0.33275196577E+02  0.17143660504E+03  0.18194231697E+03  0.00000000000E+00 0.  1.
</event>
<event>
 7    1  0.2564986E-009  0.1522438E+03  0.7561462E-02  0.1197743E+00
          3   -1    0    0  501    0  0.00000000000E+00  0.00000000000E+00  0.19609652787E+03  0.19609652787E+03  0.00000000000E+00 0. -1.
         -3   -1    0    0    0  501 -0.00000000000E+00 -0.00000000000E+00 -0.17055625734E+03  0.17055625734E+03  0.00000000000E+00 0.  1.
         25    2    1    2    0    0  0.63138447072E+02 -0.10893213693E+03 -0.62143946740E+02  0.18804715635E+03  0.12508872428E+03 0.  0.
          5    1    3    3  502    0  0.42554117083E+02 -0.23189237591E+00  0.22841840176E+02  0.48478126175E+02  0.41800000000E+01 0. -1.
         -5    1    3    3    0  502  0.20584329989E+02 -0.10870024455E+03 -0.84985786915E+02  0.13956903018E+03  0.41800000000E+01 0. -1.
        -11    1    1    2    0    0  0.20039043190E+02  0.31758551301E+02  0.41863743697E+02  0.56238259833E+02  0.00000000000E+00 0. -1.
         11    1    1    2    0    0 -0.83177490262E+02  0.77173585627E+02  0.45820473573E+02  0.12236736903E+03  0.00000000000E+00 0.  1.
</event>
<event>
 7    1  0.2564986E-009  0.1781327E+03  0.7561462E-02  0.1169623E+00
         -2   -1    0    0    0  501 -0.00000000000E+00  0.00000000000E+00  0.13136032673E+03  0.13136032673E+03  0.00000000000E+00 0. -1.
          2   -1    0    0  501    0  0.00000000000E+00 -0.00000000000E+00 -0.24708316665E+03  0.24708316665E+03  0.00000000000E+00 0.  1.
         25    2    1    2    0    0  0.23715705882E+02  0.14165132810E+03 -0.70939202501E+02  0.20324024015E+03  0.12508673513E+03 0.  0.
          5    1    3    3  502    0 -0.17437334308E+02  0.14442875141E+03 -0.70654118376E+02  0.16178133917E+03  0.41800000000E+01 0.  1.
         -5    1    3    3    0  502  0.41153040189E+02 -0.27774233091E+01 -0.28508412490E+00  0.41458900975E+02  0.41800000000E+01 0.  1.
        -11    1    1    2    0    0  0.26765521838E+02 -0.10090962877E+03 -0.30725971792E+02  0.10882661292E+03  0.00000000000E+00 0.  1.
         11    1    1    2    0    0 -0.50481227719E+02 -0.40741699327E+02 -0.14057665626E+02  0.66376640311E+02  0.00000000000E+00 0. -1.
</event>
<event>
 7    1  0.2564986E-009  0.7365502E+02  0.7561462E-02  0.1348087E+00
          1   -1    0    0  501    0  0.00000000000E+00  0.00000000000E+00  0.85203052879E+02  0.85203052879E+02  0.00000000000E+00 0. -1.
         -1   -1    0    0    0  501 -0.00000000000E+00 -0.00000000000E+00 -0.17815596592E+03  0.17815596592E+03  0.00000000000E+00 0.  1.
         25    2    1    2    0    0 -0.42793659947E+00 -0.47983248976E+02 -0.78852152746E+02  0.15546059073E+03  0.12509099874E+03 0.  0.
          5    1    3    3  502    0 -0.15582682483E+01 -0.44175841393E+02 -0.11269699277E+03  0.12112810468E+03  0.41800000000E+01 0. -1.
         -5    1    3    3    0  502  0.11303316488E+01 -0.38074075826E+01  0.33844840026E+02  0.34332486052E+02  0.41800000000E+01 0. -1.
        -11    1    1    2    0    0  0.27430322468E+02  0.61210344336E+02  0.11929764112E+02  0.68128174173E+02  0.00000000000E+00 0. -1.
         11    1    1    2    0    0 -0.27002385868E+02 -0.13227095360E+02 -0.26030524407E+02  0.39770253899E+02  0.00000000000E+00 0.  1.
</event>
<event>
 7    1  0.2564986E-009  0.1166903E+03  0.7561462E-02  0.1248659E+00
         -2   -1    0    0    0  501 -0.00000000000E+00  0.00000000000E+00  0.24096799131E+02  0.24096799131E+02  0.00000000000E+00 0. -1.
          2   -1    0    0  501    0  0.00000000000E+00 -0.00000000000E+00 -0.78536751606E+03  0.78536751606E+03  0.00000000000E+00 0.  1.
         25    2    1    2    0    0 -0.31167456125E+02  0.58998325892E+02 -0.56880881475E+03  0.58621160384E+03  0.12509342091E+03 0.  0.
          5    1    3    3  502    0  0.48041221805E+02  0.29288565665E+02 -0.20034357645E+03  0.20813649391E+03  0.41800000000E+01 0. -1.
         -5    1    3    3    0  502 -0.79208677930E+02  0.29709760227E+02 -0.36846523830E+03  0.37807510993E+03  0.41800000000E+01 0. -1.
        -11    1    1    2    0    0  0.48974109415E+02 -0.55668350477E+02 -0.19122389389E+03  0.20509511509E+03  0.00000000000E+00 0. -1.
         11    1    1    2    0    0 -0.17806653290E+02 -0.33299754149E+01 -0.12380082855E+01  0.18157596266E+02  0.00000000000E+00 0.  1.
</event>
<event>
 7    1  0.2564986E-009  0.1119027E+03  0.7561462E-02  0.1257086E+00
          1   -1    0    0  501    0  0.00000000000E+00  0.00000000000E+00  0.64940982678E+02  0.64940982678E+02  0.00000000000E+00 0. -1.
         -1   -1    0    0    0  501 -0.00000000000E+00 -0.00000000000E+00 -0.28278284155E+03  0.28278284155E+03  0.00000000000E+00 0.  1.
         25    2    1    2    0    0  0.47775701795E+02 -0.61360209520E+02 -0.94017903278E+02  0.17474203187E+03  0.12509124098E+03 0.  0.
          5    1    3    3  502    0 -0.27598647804E+02  0.19562323179E+02 -0.36791693011E+02  0.50154470622E+02  0.41800000000E+01 0.  1.
         -5    1    3    3    0  502  0.75374349599E+02 -0.80922532699E+02 -0.57226210267E+02  0.12458756125E+03  0.41800000000E+01 0.  1.
        -11    1    1    2    0    0 -0.29457107452E+02  0.26274539511E+02 -0.12727140551E+03  0.13325195408E+03  0.00000000000E+00 0.  1.
         11    1    1    2    0    0 -0.18318594342E+02  0.35085670009E+02  0.34474499166E+01  0.39729838278E+02  0.00000000000E+00 0. -1.
</event>
<event>
 7    1  0.2564986E-009  0.2064675E+03  0.7561462E-02  0.1144394E+00
         -1   -1    0    0    0  501 -0.00000000000E+00  0.00000000000E+00  0.12658762466E+03  0.12658762466E+03  0.00000000000E+00 0.  1.
          1   -1    0    0  501    0  0.00000000000E+00 -0.00000000000E+00 -0.38719123925E+03  0.38719123925E+03  0.00000000000E+00 0. -1.
         25    2    1    2    0    0  0.17063988482E+02 -0.18623400105E+03 -0.18970903767E+03  0.29429834684E+03  0.12509082752E+03 0.  0.
          5    1    3    3  502    0 -0.39195762393E+01 -0.18408199857E+03 -0.19875798040E+03  0.27096817608E+03  0.41800000000E+01 0. -1.
         -5    1    3    3    0  502  0.20983564721E+02 -0.21520024792E+01  0.90489427329E+01  0.23330170760E+02  0.41800000000E+01 0. -1.
        -11    1    1    2    0    0 -0.53858761077E+02  0.10218890949E+03 -0.46709271531E+02  0.12459974083E+03  0.00000000000E+00 0. -1.
         11    1    1    2    0    0  0.36794772595E+02  0.84045091555E+02 -0.24185305393E+02  0.94880776249E+02  0.00000000000E+00 0.  1.
</event>
<event>
 7    1  0.2564986E-009  0.1968604E+03  0.7561462E-02  0.1152415E+00
         -2   -1    0    0    0  501 -0.00000000000E+00  0.00000000000E+00  0.82589614389E+03  0.82589614389E+03  0.00000000000E+00 0.  1.
          2   -1    0    0  501    0  0.00000000000E+00 -0.00000000000E+00 -0.68322260590E+02  0.68322260590E+02  0.00000000000E+00 0. -1.
         25    2    1    2    0    0 -0.46124291159E+02  0.17267398992E+03  0.59602984475E+03  0.63469889639E+03  0.12508939291E+03 0.  0.
          5    1    3    3  502    0  0.15428149960E+02  0.83135448010E+02  0.12290714005E+03  0.14924197802E+03  0.41800000000E+01 0.  1.
         -5    1    3    3    0  502 -0.61552441119E+02  0.89538541906E+02  0.47312270470E+03  0.48545691838E+03  0.41800000000E+01 0.  1.
        -11    1    1    2    0    0  0.39488326853E+02 -0.18346102724E+03  0.13854425643E+03  0.23326334359E+03  0.00000000000E+00 0. -1.
         11    1    1    2    0    0  0.66359643055E+01  0.10787037326E+02  0.22999782120E+02  0.26256164497E+02  0.00000000000E+00 0.  1.
</event>
<event>
 7    1  0.2564986E-009  0.1676887E+03  0.7561462E-02  0.1180280E+00
         -1   -1    0    0    0  501 -0.00000000000E+00  0.00000000000E+00  0.30030805655E+03  0.30030805655E+03  0.00000000000E+00 0.  1.
          1   -1    0    0  501    0  0.00000000000E+00 -0.00000000000E+00 -0.13540954156E+03  0.13540954156E+03  0.00000000000E+00 0. -1.
         25    2    1    2    0    0 -0.11061608283E+03  0.91221590738E+02 -0.11612798679E+02  0.19063356123E+03  0.12509596786E+03 0.  0.
          5    1    3    3  502    0 -0.12741847466E+03  0.36289313203E+02 -0.48321006081E+01  0.13263937399E+03  0.41800000000E+01 0. -1.
         -5    1    3    3    0  502  0.16802391830E+02  0.54932277535E+02 -0.67806980706E+01  0.57994187232E+02  0.41800000000E+01 0. -1.
        -11    1    1    2    0    0  0.62625664407E+02 -0.66121891391E+02  0.16682768967E+03  0.19006724180E+03  0.00000000000E+00 0.  1.
         11    1    1    2    0    0  0.47990418422E+02 -0.25099699347E+02  0.96836240006E+01  0.55016795085E+02  0.00000000000E+00 0. -1.
</event>
<event>
 7    1  0.2564986E-009  0.1198030E+03  0.7561462E-02  0.1243422E+00
          1   -1    0    0  501    0  0.00000000000E+00  0.00000000000E+00  0.62252083390E+02  0.62252083390E+02  0.00000000000E+00 0. -1.
         -1   -1    0    0    0  501 -0.00000000000E+00 -0.00000000000E+00 -0.26072798596E+03  0.26072798596E+03  0.00000000000E+00 0.  1.
         25    2    1    2    0    0 -0.64898886854E+02  0.80650169923E+01 -0.97484211640E+02  0.17154492435E+03  0.12509028555E+03 0.  0.
          5    1    3    3  502    0 -0.81581243497E+02 -0.37650396386E+02 -0.77650909674E+02  0.11882839649E+03  0.41800000000E+01 0.  1.
         -5    1    3    3    0  502  0.16682356643E+02  0.45715413378E+02 -0.19833301966E+02  0.52716527867E+02  0.41800000000E+01 0.  1.
        -11    1    1    2    0    0  0.71817173765E+02  0.17842084319E+02 -0.38463097972E+02  0.83399378451E+02  0.00000000000E+00 0.  1.
         11    1    1    2    0    0 -0.69182869110E+01 -0.25907101311E+02 -0.62528592962E+02  0.68035766549E+02  0.00000000000E+00 0. -1.
</event>
<event>
 7    1  0.2564986E-009  0.1294992E+03  0.7561462E-02  0.1228201E+00
          1   -1    0    0  501    0  0.00000000000E+00  0.00000000000E+00  0.64456006641E+02  0.64456006641E+02  0.00000000000E+00 0. -1.
         -1   -1    0    0    0  501 -0.00000000000E+00 -0.00000000000E+00 -0.38713346466E+03  0.38713346466E+03  0.00000000000E+00 0.  1.
         25    2    1    2    0    0 -0.35760267664E+02  0.82332450482E+01 -0.27736062752E+03  0.30646922033E+03  0.12509149549E+03 0.  0.
          5    1    3    3  502    0 -0.19662538651E+02 -0.53818601468E+02 -0.77059567880E+02  0.96118191265E+02  0.41800000000E+01 0.  1.
         -5    1    3    3    0  502 -0.16097729013E+02  0.62051846516E+02 -0.20030105964E+03  0.21035102907E+03  0.41800000000E+01 0.  1.
        -11    1    1    2    0    0  0.81991254332E+02  0.18290765963E+02 -0.34038113866E+02  0.90640559917E+02  0.00000000000E+00 0. -1.
         11    1    1    2    0    0 -0.46230986668E+02 -0.26524011012E+02 -0.11278716631E+02  0.54479691054E+02  0.00000000000E+00 0.  1.
</event>
<event>
 7    1  0.2564986E-009  0.1688458E+03  0.7561462E-02  0.1179057E+00
          4   -1    0    0  501    0  0.00000000000E+00  0.00000000000E+00  0.17089812586E+03  0.17089812586E+03  0.00000000000E+00 0.  1.
         -4   -1    0    0    0  501 -0.00000000000E+00 -0.00000000000E+00 -0.32698643578E+03  0.32698643578E+03  0.00000000000E+00 0. -1.
         25    2    1    2    0    0  0.11664892196E+03 -0.10735966472E+03 -0.22530428168E+03  0.30255175464E+03  0.12506988563E+03 0.  0.
          5    1    3    3  502    0  0.84632289901E+02 -0.72011676836E+02 -0.52004973201E+02  0.12276113282E+03  0.41800000000E+01 0.  1.
         -5    1    3    3    0  502  0.32016632057E+02 -0.35347987886E+02 -0.17329930847E+03  0.17979062182E+03  0.41800000000E+01 0.  1.
        -11    1    1    2    0    0 -0.12909276307E+03  0.10386699200E+03  0.74114410006E+02  0.18151098940E+03  0.00000000000E+00 0. -1.
         11    1    1    2    0    0  0.12443841109E+02  0.34926727255E+01 -0.48984382513E+01  0.13821817595E+02  0.00000000000E+00 0.  1.
</event>
<event>
 7    1  0.2564986E-009  0.6716149E+02  0.7561462E-02  0.1370020E+00
          1   -1    0    0  501    0  0.00000000000E+00  0.00000000000E+00  0.10474682069E+03  0.10474682069E+03  0.00000000000E+00 0. -1.
         -1   -1    0    0    0  501 -0.00000000000E+00 -0.00000000000E+00 -0.13876741059E+03  0.13876741059E+03  0.00000000000E+00 0.  1.
         25    2    1    2    0    0 -0.95641047113E+01  0.49334600931E+02 -0.78943754634E+01  0.13503736214E+03  0.12508954018E+03 0.  0.
          5    1    3    3  502    0 -0.59211223100E+01  0.26259686605E+02  0.58498564138E+02  0.64530498497E+02  0.41800000000E+01 0. -1.
         -5    1    3    3    0  502 -0.36429824013E+01  0.23074914326E+02 -0.66392939602E+02  0.70506863644E+02  0.41800000000E+01 0. -1.
        -11    1    1    2    0    0  0.36359460323E+02 -0.13903182951E+02 -0.45615189970E+02  0.59967111046E+02  0.00000000000E+00 0. -1.
         11    1    1    2    0    0 -0.26795355612E+02 -0.35431417981E+02  0.19488975536E+02  0.48509758090E+02  0.00000000000E+00 0.  1.
</event>
<event>
 7    1  0.2564986E-009  0.9676205E+02  0.7561462E-02  0.1287256E+00
          1   -1    0    0  501    0  0.00000000000E+00  0.00000000000E+00  0.12860159912E+03  0.12860159912E+03  0.00000000000E+00 0. -1.
         -1   -1    0    0    0  501 -0.00000000000E+00 -0.00000000000E+00 -0.11445150057E+03  0.11445150057E+03  0.00000000000E+00 0.  1.
         25    2    1    2    0    0 -0.43571616941E+02 -0.24000277294E+02 -0.14291183073E+02  0.13536059555E+03  0.12507499271E+03 0.  0.
          5    1    3    3  502    0 -0.10043284206E+02 -0.55418342316E+02  0.36107834544E+02  0.67032144066E+02  0.41800000000E+01 0. -1.
         -5    1    3    3    0  502 -0.33528332735E+02  0.31418065022E+02 -0.50399017618E+02  0.68328451486E+02  0.41800000000E+01 0. -1.
        -11    1    1    2    0    0 -0.20154046511E+02 -0.51982977549E+01 -0.14611496696E+02  0.25430370150E+02  0.00000000000E+00 0.  1.
         11    1    1    2    0    0  0.63725663452E+02  0.29198575049E+02  0.43052778320E+02  0.82262133988E+02  0.00000000000E+00 0. -1.
</event>
<event>
 7    1  0.2908568E-009  0.1280368E+03  0.7561462E-02  0.1230398E+00
          2   -1    0    0  501    0  0.00000000000E+00  0.00000000000E+00  0.14556671120E+04  0.14556671120E+04  0.00000000000E+00 0.  1.
         -2   -1    0    0    0  501 -0.00000000000E+00 -0.00000000000E+00 -0.12548472936E+02  0.12548472936E+02  0.00000000000E+00 0. -1.
         25    2    1    2    0    0 -0.59610215893E+02 -0.53871335460E+02  0.81612123924E+03  0.82955208191E+03  0.12508909162E+03 0.  0.
          5    1    3    3  502    0  0.31628706258E+02 -0.16370022849E+02  0.41147270768E+03  0.41303221941E+03  0.41800000000E+01 0. -1.
         -5    1    3    3    0  502 -0.91238922151E+02 -0.37501312611E+02  0.40464853156E+03  0.41651986250E+03  0.41800000000E+01 0. -1.
        -11    1    1    2    0    0  0.38924187758E+02 -0.20705564322E+02  0.23456907097E+03  0.23867647945E+03  0.00000000000E+00 0.  1.
         11    1    1    2    0    0  0.20686028135E+02  0.74576899782E+02  0.39242832888E+03  0.39998702360E+03  0.00000000000E+00 0. -1.
</event>
<event>
 7    1  0.2564986E-009  0.1001580E+03  0.7561462E-02  0.1279964E+00
         -1   -1    0    0    0  501 -0.00000000000E+00  0.00000000000E+00  0.50503248872E+02  0.50503248872E+02  0.00000000000E+00 0.  1.
          1   -1    0    0  501    0  0.00000000000E+00 -0.00000000000E+00 -0.29671741556E+03  0.29671741556E+03  0.00000000000E+00 0. -1.
         25    2    1    2    0    0  0.11751516476E+01  0.21328941933E+02 -0.62401530553E+02  0.14141239679E+03  0.12508880927E+03 0.  0.
          5    1    3    3  502    0  0.21092731172E+01  0.73930376490E+02 -0.38305406438E+02  0.83396199934E+02  0.41800000000E+01 0.  1.
         -5    1    3    3    0  502 -0.93412146962E+00 -0.52601434557E+02 -0.24096124115E+02  0.58016196857E+02  0.41800000000E+01 0.  1.
        -11    1    1    2    0    0 -0.35221235433E+02 -0.45757929448E+01 -0.27397446919E+02  0.44856364143E+02  0.00000000000E+00 0.  1.
         11    1    1    2    0    0  0.34046083785E+02 -0.16753148989E+02 -0.15641518921E+03  0.16095190349E+03  0.00000000000E+00 0. -1.
</event>
<event>
 7    1  0.2564986E-009  0.1075581E+03  0.7561462E-02  0.1265160E+00
          2   -1    0    0  501    0  0.00000000000E+00  0.00000000000E+00  0.11212889030E+03  0.11212889030E+03  0.00000000000E+00 0. -1.
         -2   -1    0    0    0  501 -0.00000000000E+00 -0.00000000000E+00 -0.14052545462E+03  0.14052545462E+03  0.00000000000E+00 0.  1.
         25    2    1    2    0    0  0.14679460918E+02 -0.55598697956E+02 -0.30750940529E+02  0.14106760526E+03  0.12509095540E+03 0.  0.
          5    1    3    3  502    0  0.29830620009E+02  0.16660490688E+02 -0.53571727469E+02  0.63677627344E+02  0.41800000000E+01 0. -1.
         -5    1    3    3    0  502 -0.15151159091E+02 -0.72259188644E+02  0.22820786940E+02  0.77389977916E+02  0.41800000000E+01 0. -1.
        -11    1    1    2    0    0  0.11488726834E+02  0.73915563646E+02  0.16582897719E+02  0.76619148326E+02  0.00000000000E+00 0. -1.
         11    1    1    2    0    0 -0.26168187752E+02 -0.18316865690E+02 -0.14228521507E+02  0.34967591327E+02  0.00000000000E+00 0.  1.
</event>
<event>
 7    1  0.2564986E-009  0.1433403E+03  0.7561462E-02  0.1208904E+00
          2   -1    0    0  501    0  0.00000000000E+00  0.00000000000E+00  0.15609535698E+04  0.15609535698E+04  0.00000000000E+00 0. -1.
         -2   -1    0    0    0  501 -0.00000000000E+00 -0.00000000000E+00 -0.18276761875E+02  0.18276761875E+02  0.00000000000E+00 0.  1.
         25    2    1    2    0    0 -0.11372013458E+03 -0.24855093906E+02  0.10756935394E+04  0.10891801546E+04  0.12508706429E+03 0.  0.
          5    1    3    3  502    0 -0.86884513993E+02  0.33128856059E+02  0.41092342487E+03  0.42133356546E+03  0.41800000000E+01 0. -1.
         -5    1    3    3    0  502 -0.26835620588E+02 -0.57983949965E+02  0.66477011454E+03  0.66784658910E+03  0.41800000000E+01 0. -1.
        -11    1    1    2    0    0  0.60660942912E+02 -0.15849171308E+02  0.10790333744E+03  0.12479613959E+03  0.00000000000E+00 0.  1.
         11    1    1    2    0    0  0.53059191669E+02  0.40704265214E+02  0.35907993105E+03  0.36525403750E+03  0.00000000000E+00 0. -1.
</event>
<event>
 7    1  0.2790372E-009  0.2018370E+03  0.7561462E-02  0.1148198E+00
          2   -1    0    0  501    0  0.00000000000E+00  0.00000000000E+00  0.18161162683E+04  0.18161162683E+04  0.00000000000E+00 0. -1.
         -2   -1    0    0    0  501 -0.00000000000E+00 -0.00000000000E+00 -0.27011394369E+02  0.27011394369E+02  0.00000000000E+00 0.  1.
         25    2    1    2    0    0  0.17319116806E+03  0.83085024231E+02  0.99624525503E+03  0.10222772571E+04  0.12509148723E+03 0.  0.
          5    1    3    3  502    0  0.17232675642E+03  0.62403913850E+02  0.97584496944E+03  0.99291572463E+03  0.41800000000E+01 0.  1.
         -5    1    3    3    0  502  0.86441164023E+00  0.20681110381E+02  0.20400285592E+02  0.29361532424E+02  0.41800000000E+01 0.  1.
        -11    1    1    2    0    0 -0.78576925666E+02 -0.90548027731E+01  0.18445988565E+03  0.20070319409E+03  0.00000000000E+00 0.  1.
         11    1    1    2    0    0 -0.94614242393E+02 -0.74030221458E+02  0.60839973325E+03  0.62014721153E+03  0.00000000000E+00 0. -1.
</event>
<event>
 7    1  0.2564986E-009  0.8486662E+02  0.7561462E-02  0.1315782E+00
          2   -1    0    0  501    0  0.00000000000E+00  0.00000000000E+00  0.33120068053E+02  0.33120068053E+02  0.00000000000E+00 0. -1.
         -2   -1    0    0    0  501 -0.00000000000E+00 -0.00000000000E+00 -0.49175072355E+03  0.49175072355E+03  0.00000000000E+00 0.  1.
         25    2    1    2    0    0 -0.22591737026E+02 -0.37830390466E+02 -0.14685689687E+03  0.19787763873E+03  0.12508831570E+03 0.  0.
          5    1    3    3  502    0 -0.44222151311E+02 -0.35996146938E+02 -0.16152644163E+03  0.17134638895E+03  0.41800000000E+01 0. -1.
         -5    1    3    3    0  502  0.21630414286E+02 -0.18342435281E+01  0.14669544756E+02  0.26531249779E+02  0.41800000000E+01 0. -1.
        -11    1    1    2    0    0  0.49993618573E+02  0.38409833462E+02 -0.14690396690E+03  0.15986072906E+03  0.00000000000E+00 0. -1.
         11    1    1    2    0    0 -0.27401881548E+02 -0.57944299565E+00 -0.16486979173E+03  0.16713242381E+03  0.00000000000E+00 0.  1.
</event>
<event>
 7    1  0.2564986E-009  0.9774191E+02  0.7561462E-02  0.1285117E+00
         -1   -1    0    0    0  501 -0.00000000000E+00  0.00000000000E+00  0.10407096613E+04  0.10407096613E+04  0.00000000000E+00 0.  1.
          1   -1    0    0  501    0  0.00000000000E+00 -0.00000000000E+00 -0.14270357636E+02  0.14270357636E+02  0.00000000000E+00 0. -1.
         25    2    1    2    0    0  0.54405486640E+01 -0.23675363713E+02  0.79961976846E+03  0.80970891289E+03  0.12508647843E+03 0.  0.
          5    1    3    3  502    0  0.46087994734E+02  0.12206596724E+02  0.62470938363E+03  0.62654001521E+03  0.41800000000E+01 0.  1.
         -5    1    3    3    0  502 -0.40647446070E+02 -0.35881960437E+02  0.17491038483E+03  0.18316889769E+03  0.41800000000E+01 0.  1.
        -11    1    1    2    0    0 -0.48903018565E+01 -0.34610975840E+02  0.79925898163E+02  0.87235221660E+02  0.00000000000E+00 0.  1.
         11    1    1    2    0    0 -0.55024680742E+00  0.58286339554E+02  0.14689363702E+03  0.15803588436E+03  0.00000000000E+00 0. -1.
</event>
<event>
 7    1  0.2564986E-009  0.2055917E+03  0.7561462E-02  0.1145105E+00
          2   -1    0    0  501    0  0.00000000000E+00  0.00000000000E+00  0.64037437374E+03  0.64037437374E+03  0.00000000000E+00 0. -1.
         -2   -1    0    0    0  501 -0.00000000000E+00 -0.00000000000E+00 -0.82347253985E+02  0.82347253985E+02  0.00000000000E+00 0.  1.
         25    2    1    2    0    0 -0.33840404699E+02 -0.19886020626E+03  0.30265705575E+03  0.38463130016E+03  0.12509751812E+03 0.  0.
          5    1    3    3  502    0 -0.28055649126E+02 -0.56080405591E+02  0.19723603297E+03  0.20700641643E+03  0.41800000000E+01 0.  1.
         -5    1    3    3    0  502 -0.57847555727E+01 -0.14277980067E+03  0.10542102278E+03  0.17762488373E+03  0.41800000000E+01 0.  1.
        -11    1    1    2    0    0  0.41887332309E+02  0.14526606294E+03  0.12247112057E+03  0.19456606339E+03  0.00000000000E+00 0.  1.
         11    1    1    2    0    0 -0.80469276101E+01  0.53594143319E+02  0.13289894343E+03  0.14352426418E+03  0.00000000000E+00 0. -1.
</event>
<event>
 7    1  0.2564986E-009  0.1039621E+03  0.7561462E-02  0.1272178E+00
          2   -1    0    0  501    0  0.00000000000E+00  0.00000000000E+00  0.16166058577E+04  0.16166058577E+04  0.00000000000E+00 0. -1.
         -2   -1    0    0    0  501 -0.00000000000E+00 -0.00000000000E+00 -0.12630914419E+02  0.12630914419E+02  0.00000000000E+00 0.  1.
         25    2    1    2    0    0 -0.21751831197E+02  0.79685931650E+02  0.10965678992E+04  0.11067664559E+04  0.12509132840E+03 0.  0.
          5    1    3    3  502    0 -0.14552048822E+01  0.39057944253E+02  0.99086137746E+03  0.99164075268E+03  0.41800000000E+01 0.  1.
         -5    1    3    3    0  502 -0.20296626314E+02  0.40627987397E+02  0.10570652177E+03  0.11512570323E+03  0.41800000000E+01 0.  1.
        -11    1    1    2    0    0 -0.18766954744E+02  0.12337948744E+02  0.12855528493E+03  0.13050243237E+03  0.00000000000E+00 0. -1.
         11    1    1    2    0    0  0.40518785940E+02 -0.92023880394E+02  0.37885175910E+03  0.39196788383E+03  0.00000000000E+00 0.  1.
</event>
<event>
 7    1  0.2564986E-009  0.1762784E+03  0.7561462E-02  0.1171454E+00
          2   -1    0    0  501    0  0.00000000000E+00  0.00000000000E+00  0.73203040707E+03  0.73203040707E+03  0.00000000000E+00 0. -1.
         -2   -1    0    0    0  501 -0.00000000000E+00 -0.00000000000E+00 -0.54730207103E+02  0.54730207103E+02  0.00000000000E+00 0.  1.
         25    2    1    2    0    0 -0.43806162181E+01  0.15446439819E+03  0.23226353237E+03  0.30573243766E+03  0.12509010697E+03 0.  0.
          5    1    3    3  502    0  0.39747593552E+02  0.64047261860E+02  0.32840577861E+02  0.82327995841E+02  0.41800000000E+01 0. -1.
         -5    1    3    3    0  502 -0.44128209770E+02  0.90417136335E+02  0.19942295451E+03  0.22340444182E+03  0.41800000000E+01 0. -1.
        -11    1    1    2    0    0  0.42654448948E+02 -0.10830392003E+03  0.34807973613E+03  0.36702676171E+03  0.00000000000E+00 0. -1.
         11    1    1    2    0    0 -0.38273832730E+02 -0.46160478165E+02  0.96956931463E+02  0.11400141479E+03  0.00000000000E+00 0.  1.
</event>
<event>
 7    1  0.2564986E-009  0.1558521E+03  0.7561462E-02  0.1193461E+00
          1   -1    0    0  501    0  0.00000000000E+00  0.00000000000E+00  0.53664435575E+03  0.53664435575E+03  0.00000000000E+00 0. -1.
         -1   -1    0    0    0  501 -0.00000000000E+00 -0.00000000000E+00 -0.58779356528E+02  0.58779356528E+02  0.00000000000E+00 0.  1.
         25    2    1    2    0    0 -0.12084137599E+03  0.55939605211E+02  0.32610298585E+03  0.37379502582E+03  0.12509071257E+03 0.  0.
          5    1    3    3  502    0  0.19147394104E+02 -0.11232943479E+02  0.18494271020E+02  0.29194386117E+02  0.41800000000E+01 0.  1.
         -5    1    3    3    0  502 -0.13998877009E+03  0.67172548690E+02  0.30760871483E+03  0.34460063971E+03  0.41800000000E+01 0.  1.
        -11    1    1    2    0    0  0.82691519371E+02 -0.44787820307E+02  0.38539384832E+02  0.10163228034E+03  0.00000000000E+00 0.  1.
         11    1    1    2    0    0  0.38149856615E+02 -0.11151784904E+02  0.11322262854E+03  0.11999640612E+03  0.00000000000E+00 0. -1.
</event>
<event>
 7    1  0.2564986E-009  0.1078784E+03  0.7561462E-02  0.1264550E+00
          2   -1    0    0  501    0  0.00000000000E+00  0.00000000000E+00  0.17616400363E+03  0.17616400363E+03  0.00000000000E+00 0. -1.
         -2   -1    0    0    0  501 -0.00000000000E+00 -0.00000000000E+00 -0.77269877140E+02  0.77269877140E+02  0.00000000000E+00 0.  1.
         25    2    1    2    0    0  0.21903139472E+01 -0.37207115328E+02  0.36615403163E+02  0.13556747804E+03  0.12509470991E+03 0.  0.
          5    1    3    3  502    0 -0.58411328414E+02 -0.33633143001E+02  0.70027862264E+01  0.67893909963E+02  0.41800000000E+01 0. -1.
         -5    1    3    3    0  502  0.60601642361E+02 -0.35739723267E+01  0.29612616936E+02  0.67673568081E+02  0.41800000000E+01 0. -1.
        -11    1    1    2    0    0  0.38422671093E+02  0.19085981925E+02  0.59437440070E+02  0.73303380836E+02  0.00000000000E+00 0. -1.
         11    1    1    2    0    0 -0.40612985040E+02  0.18121133403E+02  0.28412832627E+01  0.44563021893E+02  0.00000000000E+00 0.  1.
</event>
<event>
 7    1  0.2564986E-009  0.1169288E+03  0.7561462E-02  0.1248251E+00
          3   -1    0    0  501    0  0.00000000000E+00  0.00000000000E+00  0.33809036293E+03  0.33809036293E+03  0.00000000000E+00 0. -1.
         -3   -1    0    0    0  501 -0.00000000000E+00 -0.00000000000E+00 -0.57016102000E+02  0.57016102000E+02  0.00000000000E+00 0.  1.
         25    2    1    2    0    0  0.39431353842E+02 -0.14760628774E+02  0.47995318032E+02  0.14044281836E+03  0.12509167378E+03 0.  0.
          5    1    3    3  502    0  0.51184800543E+02 -0.63085427899E+02  0.36857377271E+02  0.89306179401E+02  0.41800000000E+01 0. -1.
         -5    1    3    3    0  502 -0.11753446701E+02  0.48324799126E+02  0.11137940761E+02  0.51136638961E+02  0.41800000000E+01 0. -1.
        -11    1    1    2    0    0 -0.37175370786E+02  0.52757284856E+02  0.14737028913E+03  0.16088300537E+03  0.00000000000E+00 0. -1.
         11    1    1    2    0    0 -0.22559830555E+01 -0.37996656083E+02  0.85708653773E+02  0.93780641204E+02  0.00000000000E+00 0.  1.
</event>
<event>
 7    1  0.2564986E-009  0.8320448E+02  0.7561462E-02  0.1320196E+00
          4   -1    0    0  501    0  0.00000000000E+00  0.00000000000E+00  0.15712739166E+03  0.15712739166E+03  0.00000000000E+00 0. -1.
         -4   -1    0    0    0  501 -0.00000000000E+00 -0.00000000000E+00 -0.10286241674E+03  0.10286241674E+03  0.00000000000E+00 0.  1.
         25    2    1    2    0    0  0.75596292889E+01  0.27631882709E+02 -0.30962223439E+02  0.13200998906E+03  0.12508920415E+03 0.  0.
          5    1    3    3  502    0 -0.12133483098E+02 -0.20338301014E+02 -0.65359435226E+02  0.69643349096E+02  0.41800000000E+01 0.  1.
         -5    1    3    3    0  502  0.19693112387E+02  0.47970183723E+02  0.34397211787E+02  0.62366639966E+02  0.41800000000E+01 0.  1.
        -11    1    1    2    0    0  0.29879129656E+02  0.15138490104E+02  0.52831187887E+02  0.62554541683E+02  0.00000000000E+00 0. -1.
         11    1    1    2    0    0 -0.37438758945E+02 -0.42770372813E+02  0.32396010472E+02  0.65425277656E+02  0.00000000000E+00 0.  1.
</event>
<event>
 7    1  0.2564986E-009  0.1226603E+03  0.7561462E-02  0.1238772E+00
          2   -1    0    0  501    0  0.00000000000E+00  0.00000000000E+00  0.41153922913E+03  0.41153922913E+03  0.00000000000E+00 0. -1.
         -2   -1    0    0    0  501 -0.00000000000E+00 -0.00000000000E+00 -0.47712901542E+02  0.47712901542E+02  0.00000000000E+00 0.  1.
         25    2    1    2    0    0 -0.80458386457E+02 -0.60239176779E+01  0.18091443257E+03  0.23428094622E+03  0.12509072834E+03 0.  0.
          5    1    3    3  502    0 -0.62719006009E+02  0.34434723930E+02  0.17550844536E+03  0.18957877181E+03  0.41800000000E+01 0. -1.
         -5    1    3    3    0  502 -0.17739380448E+02 -0.40458641608E+02  0.54059872010E+01  0.44702174411E+02  0.41800000000E+01 0. -1.
        -11    1    1    2    0    0 -0.14013169112E+02  0.28859800962E+02  0.62275272358E+02  0.70053312323E+02  0.00000000000E+00 0. -1.
         11    1    1    2    0    0  0.94471555568E+02 -0.22835883284E+02  0.12063662266E+03  0.15491787213E+03  0.00000000000E+00 0.  1.
</event>
<event>
 7    1  0.2564986E-009  0.1595168E+03  0.7561462E-02  0.1189243E+00
         -1   -1    0    0    0  501 -0.00000000000E+00  0.00000000000E+00  0.22671810806E+02  0.22671810806E+02  0.00000000000E+00 0.  1.
          1   -1    0    0  501    0  0.00000000000E+00 -0.00000000000E+00 -0.26289840510E+04  0.26289840510E+04  0.00000000000E+00 0. -1.
         25    2    1    2    0    0  0.15251124632E+03  0.11534270882E+02 -0.21900037068E+04  0.21988987991E+04  0.12508786238E+03 0.  0.
          5    1    3    3  502    0  0.48674925551E+02  0.27651417395E+02 -0.25806983046E+03  0.26410482589E+03  0.41800000000E+01 0.  1.
         -5    1    3    3    0  502  0.10383632077E+03 -0.16117146513E+02 -0.19319338763E+04  0.19347939732E+04  0.41800000000E+01 0.  1.
        -11    1    1    2    0    0 -0.16870529797E+02 -0.14224338581E+02 -0.96856810147E+01  0.24098941895E+02  0.00000000000E+00 0.  1.
         11    1    1    2    0    0 -0.13564071652E+03  0.26900676993E+01 -0.40662285237E+03  0.42865812078E+03  0.00000000000E+00 0. -1.
</event>
<event>
 7    1  0.2564986E-009  0.1012752E+03  0.7561462E-02  0.1277637E+00
          1   -1    0    0  501    0  0.00000000000E+00  0.00000000000E+00  0.26472326467E+03  0.26472326467E+03  0.00000000000E+00 0. -1.
         -1   -1    0    0    0  501 -0.00000000000E+00 -0.00000000000E+00 -0.93083758777E+02  0.93083758777E+02  0.00000000000E+00 0.  1.
         25    2    1    2    0    0 -0.62156569185E+02 -0.38781097392E+01 -0.15679471719E+02  0.14061114503E+03  0.12508864635E+03 0.  0.
          5    1    3    3  502    0 -0.71203311768E+02  0.48077021475E+02 -0.23171415968E+01  0.86047388954E+02  0.41800000000E+01 0.  1.
         -5    1    3    3    0  502  0.90467425823E+01 -0.51955131214E+02 -0.13362330122E+02  0.54563756076E+02  0.41800000000E+01 0.  1.
        -11    1    1    2    0    0  0.46572299197E+02 -0.28454517243E+01  0.19356580490E+03  0.19911001098E+03  0.00000000000E+00 0. -1.
         11    1    1    2    0    0  0.15584269989E+02  0.67235614635E+01 -0.62468272835E+01  0.18085867437E+02  0.00000000000E+00 0.  1.
</event>
<event>
 7    1  0.2564986E-009  0.1920150E+03  0.7561462E-02  0.1156656E+00
         -1   -1    0    0    0  501 -0.00000000000E+00  0.00000000000E+00  0.13418805501E+04  0.13418805501E+04  0.00000000000E+00 0.  1.
          1   -1    0    0  501    0  0.00000000000E+00 -0.00000000000E+00 -0.42648759793E+02  0.42648759793E+02  0.00000000000E+00 0. -1.
         25    2    1    2    0    0 -0.17772959030E+03 -0.58452029024E+02  0.96352257740E+03  0.98945831682E+03  0.12509019390E+03 0.  0.
          5    1    3    3  502    0 -0.17042328944E+03 -0.68434151094E+02  0.95770518557E+03  0.97516358909E+03  0.41800000000E+01 0. -1.
         -5    1    3    3    0  502 -0.73063008606E+01  0.99821220701E+01  0.58173918282E+01  0.14294727733E+02  0.41800000000E+01 0. -1.
        -11    1    1    2    0    0  0.31604157409E+02  0.13741907151E+02  0.10957586377E+02  0.36162570108E+02  0.00000000000E+00 0. -1.
         11    1    1    2    0    0  0.14612543290E+03  0.44710121873E+02  0.32475162654E+03  0.35890842297E+03  0.00000000000E+00 0.  1.
</event>
<event>
 7    1  0.2564986E-009  0.1427089E+03  0.7561462E-02  0.1209730E+00
         -1   -1    0    0    0  501 -0.00000000000E+00  0.00000000000E+00  0.59144239590E+02  0.59144239590E+02  0.00000000000E+00 0.  1.
          1   -1    0    0  501    0  0.00000000000E+00 -0.00000000000E+00 -0.39678417202E+03  0.39678417202E+03  0.00000000000E+00 0. -1.
         25    2    1    2    0    0  0.10436454732E+03 -0.21890103435E+02 -0.12742942958E+03  0.20798188774E+03  0.12508825181E+03 0.  0.
          5    1    3    3  502    0  0.36097238091E+02  0.51826317845E+02 -0.57344468694E+02  0.85409825600E+02  0.41800000000E+01 0.  1.
         -5    1    3    3    0  502  0.68267309229E+02 -0.73716421279E+02 -0.70084960887E+02  0.12257206214E+03  0.41800000000E+01 0.  1.
        -11    1    1    2    0    0 -0.10072369916E+03  0.13811518272E+01 -0.12662980749E+03  0.16180939188E+03  0.00000000000E+00 0.  1.
         11    1    1    2    0    0 -0.36408481557E+01  0.20508951608E+02 -0.83580695362E+02  0.86137131996E+02  0.00000000000E+00 0. -1.
</event>
<event>
 7    1  0.2564986E-009  0.1287044E+03  0.7561462E-02  0.1229391E+00
         -1   -1    0    0    0  501 -0.00000000000E+00  0.00000000000E+00  0.29953681654E+02  0.29953681654E+02  0.00000000000E+00 0.  1.
          1   -1    0    0  501    0  0.00000000000E+00 -0.00000000000E+00 -0.58375702070E+03  0.58375702070E+03  0.00000000000E+00 0. -1.
         25    2    1    2    0    0  0.25826286497E+02 -0.71700130098E+02 -0.33539774333E+03  0.36598897523E+03  0.12509347716E+03 0.  0.
          5    1    3    3  502    0  0.71254564391E+02 -0.71227401680E+02 -0.22807612574E+03  0.24937270747E+03  0.41800000000E+01 0. -1.
         -5    1    3    3    0  502 -0.45428277894E+02 -0.47272841855E+00 -0.10732161759E+03  0.11661626776E+03  0.41800000000E+01 0. -1.
        -11    1    1    2    0    0 -0.34671154219E+02  0.86789703219E+02 -0.14691231058E+03  0.17411998311E+03  0.00000000000E+00 0.  1.
         11    1    1    2    0    0  0.88448677217E+01 -0.15089573121E+02 -0.71493285133E+02  0.73601744009E+02  0.00000000000E+00 0. -1.
</event>
<event>
 7    1  0.2564986E-009  0.1213799E+03  0.7561462E-02  0.1240838E+00
          1   -1    0    0  501    0  0.00000000000E+00  0.00000000000E+00  0.43226285486E+03  0.43226285486E+03  0.00000000000E+00 0. -1.
         -1   -1    0    0    0  501 -0.00000000000E+00 -0.00000000000E+00 -0.77213330295E+02  0.77213330295E+02  0.00000000000E+00 0.  1.
         25    2    1    2    0    0  0.75398225806E+01  0.11860830920E+03  0.67809302999E+02  0.18539365931E+03  0.12509167599E+03 0.  0.
          5    1    3    3  502    0  0.11696867262E+02  0.75003818606E+02 -0.27155989076E+02  0.80729856013E+02  0.41800000000E+01 0. -1.
         -5    1    3    3    0  502 -0.41570446815E+01  0.43604490597E+02  0.94965292075E+02  0.10466380329E+03  0.41800000000E+01 0. -1.
        -11    1    1    2    0    0  0.12000035198E+02 -0.43503556870E+02  0.20924536390E+03  0.21405649398E+03  0.00000000000E+00 0. -1.
         11    1    1    2    0    0 -0.19539857779E+02 -0.75104752333E+02  0.77994857670E+02  0.11002603187E+03  0.00000000000E+00 0.  1.
</event>
<event>
 7    1  0.2564986E-009  0.8899712E+02  0.7561462E-02  0.1305299E+00
         -2   -1    0    0    0  501 -0.00000000000E+00  0.00000000000E+00  0.30522887053E+03  0.30522887053E+03  0.00000000000E+00 0.  1.
          2   -1    0    0  501    0  0.00000000000E+00 -0.00000000000E+00 -0.59258565517E+02  0.59258565517E+02  0.00000000000E+00 0. -1.
         25    2    1    2    0    0  0.71365900271E+02  0.99194240070E+01  0.10208116146E+03  0.17679525525E+03  0.12507802388E+03 0.  0.
          5    1    3    3  502    0  0.40532749477E+02 -0.88983386318E+01  0.12636435103E+03  0.13306955257E+03  0.41800000000E+01 0. -1.
         -5    1    3    3    0  502  0.30833150794E+02  0.18817762639E+02 -0.24283189570E+02  0.43725702674E+02  0.41800000000E+01 0. -1.
        -11    1    1    2    0    0 -0.96726515396E+01  0.26549859760E+02  0.15142869301E+01  0.28297496461E+02  0.00000000000E+00 0. -1.
         11    1    1    2    0    0 -0.61693248732E+02 -0.36469283767E+02  0.14237485663E+03  0.15939468434E+03  0.00000000000E+00 0.  1.
</event>
<event>
 7    1  0.2564986E-009  0.9297329E+02  0.7561462E-02  0.1295807E+00
         -1   -1    0    0    0  501 -0.00000000000E+00  0.00000000000E+00  0.14229368860E+02  0.14229368860E+02  0.00000000000E+00 0.  1.
          1   -1    0    0  501    0  0.00000000000E+00 -0.00000000000E+00 -0.86038892946E+03  0.86038892946E+03  0.00000000000E+00 0. -1.
         25    2    1    2    0    0 -0.21655128863E+02 -0.14294599110E+02 -0.53131379589E+03  0.54645630487E+03  0.12508742248E+03 0.  0.
          5    1    3    3  502    0  0.32562687144E+02  0.96669271432E+01 -0.45050928312E+02  0.56575936725E+02  0.41800000000E+01 0.  1.
         -5    1    3    3    0  502 -0.54217816007E+02 -0.23961526253E+02 -0.48626286758E+03  0.48988036815E+03  0.41800000000E+01 0.  1.
        -11    1    1    2    0    0 -0.84327844963E+01  0.47063061837E+02 -0.15140575212E+03  0.15877577089E+03  0.00000000000E+00 0. -1.
         11    1    1    2    0    0  0.30087913359E+02 -0.32768462727E+02 -0.16344001259E+03  0.16938622256E+03  0.00000000000E+00 0.  1.
</event>
<event>
 7    1  0.2564986E-009  0.1035775E+03  0.7561462E-02  0.1272948E+00
         -1   -1    0    0    0  501 -0.00000000000E+00  0.00000000000E+00  0.96215074280E+02  0.96215074280E+02  0.00000000000E+00 0.  1.
          1   -1    0    0  501    0  0.00000000000E+00 -0.00000000000E+00 -0.15924939116E+03  0.15924939116E+03  0.00000000000E+00 0. -1.
         25    2    1    2    0    0  0.14516197906E+02 -0.49358086925E+02 -0.71569727921E+01  0.13544495623E+03  0.12508866120E+03 0.  0.
          5    1    3    3  502    0  0.66870589917E+02 -0.48523796995E+02 -0.40755359107E+01  0.82827030996E+02  0.41800000000E+01 0. -1.
         -5    1    3    3    0  502 -0.52354392012E+02 -0.83428993041E+00 -0.30814368814E+01  0.52617925233E+02  0.41800000000E+01 0. -1.
        -11    1    1    2    0    0  0.17673758852E+02  0.77599222563E+01 -0.63955040899E+02  0.66804381607E+02  0.00000000000E+00 0. -1.
         11    1    1    2    0    0 -0.32189956758E+02  0.41598164669E+02  0.80776968135E+01  0.53215127602E+02  0.00000000000E+00 0.  1.
</event>
<event>
 7    1  0.2564986E-009  0.2176114E+03  0.7561462E-02  0.1135676E+00
         -2   -1    0    0    0  501 -0.00000000000E+00  0.00000000000E+00  0.43495629425E+02  0.43495629425E+02  0.00000000000E+00 0.  1.
          2   -1    0    0  501    0  0.00000000000E+00 -0.00000000000E+00 -0.13081135786E+04  0.13081135786E+04  0.00000000000E+00 0. -1.
         25    2    1    2    0    0 -0.58675882435E+02  0.19179043987E+03 -0.89005707170E+03  0.92091010743E+03  0.12508958019E+03 0.  0.
          5    1    3    3  502    0 -0.95651637282E+02  0.13104133705E+03 -0.54866076007E+03  0.57216009103E+03  0.41800000000E+01 0. -1.
         -5    1    3    3    0  502  0.36975754848E+02  0.60749102819E+02 -0.34139631163E+03  0.34875001640E+03  0.41800000000E+01 0. -1.
        -11    1    1    2    0    0  0.31170441240E+02 -0.13551555218E+03 -0.18754207779E+03  0.23346968161E+03  0.00000000000E+00 0.  1.
         11    1    1    2    0    0  0.27505441195E+02 -0.56274887689E+02 -0.18701879967E+03  0.19722941897E+03  0.00000000000E+00 0. -1.
</event>
<event>
 7    1  0.2564986E-009  0.1082249E+03  0.7561462E-02  0.1263893E+00
          3   -1    0    0  501    0  0.00000000000E+00  0.00000000000E+00  0.11210738015E+02  0.11210738015E+02  0.00000000000E+00 0. -1.
         -3   -1    0    0    0  501 -0.00000000000E+00 -0.00000000000E+00 -0.13215391444E+04  0.13215391444E+04  0.00000000000E+00 0.  1.
         25    2    1    2    0    0  0.20645671642E+02  0.43676877512E+02 -0.89424329726E+03  0.90424119909E+03  0.12508860084E+03 0.  0.
          5    1    3    3  502    0  0.61687707814E+02  0.38783501593E+02 -0.76526102249E+03  0.76873365884E+03  0.41800000000E+01 0. -1.
         -5    1    3    3    0  502 -0.41042036172E+02  0.48933759184E+01 -0.12898227477E+03  0.13550754025E+03  0.41800000000E+01 0. -1.
        -11    1    1    2    0    0 -0.55762518419E+02 -0.34686434946E+02 -0.24694511647E+03  0.25552788063E+03  0.00000000000E+00 0. -1.
         11    1    1    2    0    0  0.35116846777E+02 -0.89904425654E+01 -0.16913999266E+03  0.17298080270E+03  0.00000000000E+00 0.  1.
</event>
<event>
 7    1  0.2564986E-009  0.1008350E+03  0.7561462E-02  0.1278550E+00
         -1   -1    0    0    0  501 -0.00000000000E+00  0.00000000000E+00  0.11289619812E+03  0.11289619812E+03  0.00000000000E+00 0.  1.
          1   -1    0    0  501    0  0.00000000000E+00 -0.00000000000E+00 -0.12188057189E+03  0.12188057189E+03  0.00000000000E+00 0. -1.
         25    2    1    2    0    0 -0.31605889758E+02 -0.18110187966E+02 -0.20756767187E+02  0.13193328677E+03  0.12509451467E+03 0.  0.
          5    1    3    3  502    0  0.10510730136E+02 -0.62052412955E+02  0.95781812442E+01  0.63798051361E+02  0.41800000000E+01 0.  1.
         -5    1    3    3    0  502 -0.42116619894E+02  0.43942224990E+02 -0.30334948431E+02  0.68135235412E+02  0.41800000000E+01 0.  1.
        -11    1    1    2    0    0 -0.68138133643E+01  0.34970975168E+02 -0.27783080238E+02  0.45180711640E+02  0.00000000000E+00 0. -1.
         11    1    1    2    0    0  0.38419703123E+02 -0.16860787203E+02  0.39555473654E+02  0.57662771605E+02  0.00000000000E+00 0.  1.
</event>
<event>
 7    1  0.2564986E-009  0.1048771E+03  0.7561462E-02  0.1270362E+00
         -2   -1    0    0    0  501 -0.00000000000E+00  0.00000000000E+00  0.24013493748E+03  0.24013493748E+03  0.00000000000E+00 0.  1.
          2   -1    0    0  501    0  0.00000000000E+00 -0.00000000000E+00 -0.63634697190E+02  0.63634697190E+02  0.00000000000E+00 0. -1.
         25    2    1    2    0    0  0.96443546115E+01  0.50465180708E+02  0.58453262091E+02  0.14731508159E+03  0.12508077940E+03 0.  0.
          5    1    3    3  502    0  0.19425480446E+02 -0.30861803781E+02  0.53845620148E+02  0.65166121814E+02  0.41800000000E+01 0.  1.
         -5    1    3    3    0  502 -0.97811258346E+01  0.81326984489E+02  0.46076419430E+01  0.82148959780E+02  0.41800000000E+01 0.  1.
        -11    1    1    2    0    0 -0.35718992643E+02 -0.53970832546E+02  0.45034861290E+02  0.78846914541E+02  0.00000000000E+00 0. -1.
         11    1    1    2    0    0  0.26074638032E+02  0.35056518381E+01  0.73012116910E+02  0.77607638535E+02  0.00000000000E+00 0.  1.
</event>
<event>
 7    1  0.2564986E-009  0.1160628E+03  0.7561462E-02  0.1249737E+00
          1   -1    0    0  501    0  0.00000000000E+00  0.00000000000E+00  0.22863749161E+03  0.22863749161E+03  0.00000000000E+00 0. -1.
         -1   -1    0    0    0  501 -0.00000000000E+00 -0.00000000000E+00 -0.90206120480E+02  0.90206120480E+02  0.00000000000E+00 0.  1.
         25    2    1    2    0    0  0.76132956055E+02  0.54486099467E+02  0.80445144897E+02  0.17572835792E+03  0.12507626637E+03 0.  0.
          5    1    3    3  502    0  0.88310764842E+02  0.63572848294E+02  0.10188147159E+03  0.14912278458E+03  0.41800000000E+01 0. -1.
         -5    1    3    3    0  502 -0.12177808786E+02 -0.90867488261E+01 -0.21436326691E+02  0.26605573346E+02  0.41800000000E+01 0. -1.
        -11    1    1    2    0    0 -0.65071058087E+02 -0.65170050591E+02  0.98945004602E+01  0.92624398697E+02  0.00000000000E+00 0.  1.
         11    1    1    2    0    0 -0.11061897968E+02  0.10683951123E+02  0.48091725770E+02  0.50490855467E+02  0.00000000000E+00 0. -1.
</event>
<event>
 7    1  0.2564986E-009  0.8757646E+02  0.7561462E-02  0.1308829E+00
         -3   -1    0    0    0  501 -0.00000000000E+00  0.00000000000E+00  0.18923756277E+03  0.18923756277E+03  0.00000000000E+00 0.  1.
          3   -1    0    0  501    0  0.00000000000E+00 -0.00000000000E+00 -0.10113095757E+03  0.10113095757E+03  0.00000000000E+00 0. -1.
         25    2    1    2    0    0 -0.26305716370E+02  0.77543057453E+02  0.67891437070E+02  0.16419933847E+03  0.12508900453E+03 0.  0.
          5    1    3    3  502    0 -0.34537251630E+02  0.36810780042E+02  0.99615035948E+02  0.11175188170E+03  0.41800000000E+01 0. -1.
         -5    1    3    3    0  502  0.82315352600E+01  0.40732277411E+02 -0.31723598878E+02  0.52447456770E+02  0.41800000000E+01 0. -1.
        -11    1    1    2    0    0  0.16300325280E+02 -0.29883995472E+02 -0.37505440499E+02  0.50649894931E+02  0.00000000000E+00 0. -1.
         11    1    1    2    0    0  0.10005391090E+02 -0.47659061982E+02  0.57720608626E+02  0.75519286941E+02  0.00000000000E+00 0.  1.
</event>
<event>
 7    1  0.2564986E-009  0.1179690E+03  0.7561462E-02  0.1246486E+00
         -1   -1    0    0    0  501 -0.00000000000E+00  0.00000000000E+00  0.60063879089E+02  0.60063879089E+02  0.00000000000E+00 0.  1.
          1   -1    0    0  501    0  0.00000000000E+00 -0.00000000000E+00 -0.69675018846E+03  0.69675018846E+03  0.00000000000E+00 0. -1.
         25    2    1    2    0    0 -0.51451306388E+02  0.19226600313E+02 -0.63539076650E+03  0.64991095745E+03  0.12508368148E+03 0.  0.
          5    1    3    3  502    0 -0.50690308028E+02  0.65407923397E+02 -0.49947754541E+03  0.50630326341E+03  0.41800000000E+01 0.  1.
         -5    1    3    3    0  502 -0.76099835981E+00 -0.46181323084E+02 -0.13591322108E+03  0.14360769403E+03  0.41800000000E+01 0.  1.
        -11    1    1    2    0    0  0.12113982606E+02 -0.53302174086E+02  0.25203081235E+01  0.54719487296E+02  0.00000000000E+00 0. -1.
         11    1    1    2    0    0  0.39337323781E+02  0.34075573773E+02 -0.38158509966E+01  0.52183622805E+02  0.00000000000E+00 0.  1.
</event>
<event>
 7    1  0.2564986E-009  0.1556596E+03  0.7561462E-02  0.1193686E+00
          2   -1    0    0  501    0  0.00000000000E+00  0.00000000000E+00  0.61212181176E+03  0.61212181176E+03  0.00000000000E+00 0.  1.
         -2   -1    0    0    0  501 -0.00000000000E+00 -0.00000000000E+00 -0.43142475719E+02  0.43142475719E+02  0.00000000000E+00 0. -1.
         25    2    1    2    0    0  0.65961986978E+02  0.97884827726E+02  0.36209745674E+03  0.40087169957E+03  0.12510446879E+03 0.  0.
          5    1    3    3  502    0 -0.15809868292E+02  0.83401021515E+02  0.14072003087E+03  0.16439367936E+03  0.41800000000E+01 0. -1.
         -5    1    3    3    0  502  0.81771855271E+02  0.14483806211E+02  0.22137742587E+03  0.23647802021E+03  0.41800000000E+01 0. -1.
        -11    1    1    2    0    0 -0.77689434156E+02 -0.46647676065E+02  0.97926746628E+02  0.13342151838E+03  0.00000000000E+00 0. -1.
         11    1    1    2    0    0  0.11727447177E+02 -0.51237151662E+02  0.10895513268E+03  0.12097106954E+03  0.00000000000E+00 0.  1.
</event>
<event>
 7    1  0.2564986E-009  0.1100082E+03  0.7561462E-02  0.1260555E+00
         -2   -1    0    0    0  501 -0.00000000000E+00  0.00000000000E+00  0.11895804268E+03  0.11895804268E+03  0.00000000000E+00 0.  1.
          2   -1    0    0  501    0  0.00000000000E+00 -0.00000000000E+00 -0.28710299307E+03  0.28710299307E+03  0.00000000000E+00 0. -1.
         25    2    1    2    0    0 -0.93430391978E+02  0.36547049061E+02  0.32570659773E+02  0.16361545747E+03  0.12507695672E+03 0.  0.
          5    1    3    3  502    0 -0.35487308266E+02  0.12341882569E+02 -0.48177222458E+02  0.61238780827E+02  0.41800000000E+01 0.  1.
         -5    1    3    3    0  502 -0.57943083712E+02  0.24205166492E+02  0.80747882231E+02  0.10237667664E+03  0.41800000000E+01 0.  1.
        -11    1    1    2    0    0 -0.46321993031E+01 -0.19127108591E+02 -0.95734436135E+02  0.97736307561E+02  0.00000000000E+00 0. -1.
         11    1    1    2    0    0  0.98062591281E+02 -0.17419940470E+02 -0.10498117402E+03  0.14470927073E+03  0.00000000000E+00 0.  1.
</event>
<event>
 7    1  0.2564986E-009  0.9242219E+02  0.7561462E-02  0.1297090E+00
          2   -1    0    0  501    0  0.00000000000E+00  0.00000000000E+00  0.71817846662E+03  0.71817846662E+03  0.00000000000E+00 0.  1.
         -2   -1    0    0    0  501 -0.00000000000E+00 -0.00000000000E+00 -0.21341004440E+02  0.21341004440E+02  0.00000000000E+00 0. -1.
         25    2    1    2    0    0  0.20481735403E+01 -0.34270999095E+02  0.54055615742E+03  0.55590355949E+03  0.12509640978E+03 0.  0.
          5    1    3    3  502    0  0.66655619882E+01  0.42991827933E+02  0.30001005948E+03  0.30317690409E+03  0.41800000000E+01 0. -1.
         -5    1    3    3    0  502 -0.46173884479E+01 -0.77262827028E+02  0.24054609794E+03  0.25272665540E+03  0.41800000000E+01 0. -1.
        -11    1    1    2    0    0  0.94848417760E+01  0.46122826166E+02  0.15989855391E+03  0.16668780657E+03  0.00000000000E+00 0.  1.
         11    1    1    2    0    0 -0.11533015316E+02 -0.11851827071E+02 -0.36172491519E+01  0.16928104992E+02  0.00000000000E+00 0. -1.
</event>
<event>
 7    1  0.2564986E-009  0.1779006E+03  0.7561462E-02  0.1169850E+00
         -1   -1    0    0    0  501 -0.00000000000E+00  0.00000000000E+00  0.40284192132E+02  0.40284192132E+02  0.00000000000E+00 0.  1.
          1   -1    0    0  501    0  0.00000000000E+00 -0.00000000000E+00 -0.10135671059E+04  0.10135671059E+04  0.00000000000E+00 0. -1.
         25    2    1    2    0    0 -0.10114649143E+02  0.16849628199E+03 -0.46282664516E+03  0.50828228945E+03  0.12509627942E+03 0.  0.
          5    1    3    3  502    0  0.10398035240E+02  0.57342909310E+02 -0.40550904792E+02  0.71120859559E+02  0.41800000000E+01 0. -1.
         -5    1    3    3    0  502 -0.20512684383E+02  0.11115337268E+03 -0.42227574037E+03  0.43716142989E+03  0.41800000000E+01 0. -1.
        -11    1    1    2    0    0  0.41749061856E+02 -0.79171306914E+02 -0.16938651142E+03  0.19157993177E+03  0.00000000000E+00 0.  1.
         11    1    1    2    0    0 -0.31634412713E+02 -0.89324975074E+02 -0.34106975719E+03  0.35398907682E+03  0.00000000000E+00 0. -1.
</event>
<event>
 7    1  0.2564986E-009  0.2292278E+03  0.7561462E-02  0.1127184E+00
         -1   -1    0    0    0  501 -0.00000000000E+00  0.00000000000E+00  0.10116730879E+04  0.10116730879E+04  0.00000000000E+00 0.  1.
          1   -1    0    0  501    0  0.00000000000E+00 -0.00000000000E+00 -0.11460859489E+03  0.11460859489E+03  0.00000000000E+00 0. -1.
         25    2    1    2    0    0 -0.20362255565E+03  0.70295254368E+02  0.58776138531E+02  0.25594676768E+03  0.12510214015E+03 0.  0.
          5    1    3    3  502    0 -0.61746246050E+02 -0.25630701884E+02  0.51473888299E+02  0.84478194565E+02  0.41800000000E+01 0. -1.
         -5    1    3    3    0  502 -0.14187630960E+03  0.95925956252E+02  0.73022502316E+01  0.17146857312E+03  0.41800000000E+01 0. -1.
        -11    1    1    2    0    0  0.90840706031E+02 -0.76924156952E+01  0.50090496257E+03  0.50913356662E+03  0.00000000000E+00 0. -1.
         11    1    1    2    0    0  0.11278184962E+03 -0.62602838673E+02  0.33738339187E+03  0.36120134845E+03  0.00000000000E+00 0.  1.
</event>
<event>
 7    1  0.2564986E-009  0.1433597E+03  0.7561462E-02  0.1208878E+00
         -1   -1    0    0    0  501 -0.00000000000E+00  0.00000000000E+00  0.32123181573E+02  0.32123181573E+02  0.00000000000E+00 0.  1.
          1   -1    0    0  501    0  0.00000000000E+00 -0.00000000000E+00 -0.71691824215E+03  0.71691824215E+03  0.00000000000E+00 0. -1.
         25    2    1    2    0    0 -0.10447374360E+03  0.10508152715E+02 -0.33938955825E+03  0.37664582207E+03  0.12510642931E+03 0.  0.
          5    1    3    3  502    0  0.25898296851E+02 -0.15025372987E+02 -0.56181161790E+02  0.63798737865E+02  0.41800000000E+01 0.  1.
         -5    1    3    3    0  502 -0.13037204046E+03  0.25533525702E+02 -0.28320839646E+03  0.31284708420E+03  0.41800000000E+01 0.  1.
        -11    1    1    2    0    0  0.63411213250E+02 -0.38215894527E+02 -0.11533926717E+03  0.13705686087E+03  0.00000000000E+00 0.  1.
         11    1    1    2    0    0  0.41062530354E+02  0.27707741812E+02 -0.23006623516E+03  0.23533874079E+03  0.00000000000E+00 0. -1.
</event>
<event>
 7    1  0.2564986E-009  0.9158898E+02  0.7561462E-02  0.1299049E+00
          1   -1    0    0  501    0  0.00000000000E+00  0.00000000000E+00  0.39621255260E+02  0.39621255260E+02  0.00000000000E+00 0.  1.
         -1   -1    0    0    0  501 -0.00000000000E+00 -0.00000000000E+00 -0.36292366205E+03  0.36292366205E+03  0.00000000000E+00 0. -1.
         25    2    1    2    0    0 -0.13438189488E+02  0.28310964093E+02 -0.11365071366E+03  0.17188926323E+03  0.12508932198E+03 0.  0.
          5    1    3    3  502    0 -0.56500313337E+02  0.18310180186E+02 -0.11271474830E+03  0.12747405615E+03  0.41800000000E+01 0.  1.
         -5    1    3    3    0  502  0.43062123849E+02  0.10000783908E+02 -0.93596535811E+00  0.44415207083E+02  0.41800000000E+01 0.  1.
        -11    1    1    2    0    0  0.29333934322E+02  0.15107566150E+02 -0.28196644264E+02  0.43402407831E+02  0.00000000000E+00 0.  1.
         11    1    1    2    0    0 -0.15895744834E+02 -0.43418530243E+02 -0.18145504886E+03  0.18725324625E+03  0.00000000000E+00 0. -1.
</event>
<event>
 7    1  0.2564986E-009  0.8883549E+02  0.7561462E-02  0.1305696E+00
         -1   -1    0    0    0  501 -0.00000000000E+00  0.00000000000E+00  0.18580376300E+02  0.18580376300E+02  0.00000000000E+00 0.  1.
          1   -1    0    0  501    0  0.00000000000E+00 -0.00000000000E+00 -0.82237784143E+03  0.82237784143E+03  0.00000000000E+00 0. -1.
         25    2    1    2    0    0  0.33748404976E+02  0.54237091176E+01 -0.28722083719E+03  0.31513858555E+03  0.12509255505E+03 0.  0.
          5    1    3    3  502    0  0.56337181547E+02  0.25041024550E+01 -0.28644005904E+03  0.29196836879E+03  0.41800000000E+01 0.  1.
         -5    1    3    3    0  502 -0.22588776571E+02  0.29196066626E+01 -0.78077815096E+00  0.23170216757E+02  0.41800000000E+01 0.  1.
        -11    1    1    2    0    0 -0.61821384627E+01 -0.47370647460E+02 -0.26831536936E+03  0.27253501521E+03  0.00000000000E+00 0. -1.
         11    1    1    2    0    0 -0.27566266513E+02  0.41946938342E+02 -0.24826125858E+03  0.25328461698E+03  0.00000000000E+00 0.  1.
</event>
<event>
 7    1  0.2627788E-009  0.1330207E+03  0.7561462E-02  0.1223041E+00
         -2   -1    0    0    0  501 -0.00000000000E+00  0.00000000000E+00  0.22096555258E+02  0.22096555258E+02  0.00000000000E+00 0.  1.
          2   -1    0    0  501    0  0.00000000000E+00 -0.00000000000E+00 -0.10832731630E+04  0.10832731630E+04  0.00000000000E+00 0. -1.
         25    2    1    2    0    0  0.22379626467E+02 -0.97671817384E+02 -0.73596879183E+03  0.75321827632E+03  0.12508827936E+03 0.  0.
          5    1    3    3  502    0 -0.28709545122E+02  0.87446679176E+01 -0.62365439513E+02  0.69337058229E+02  0.41800000000E+01 0. -1.
         -5    1    3    3    0  502  0.51089171589E+02 -0.10641648530E+03 -0.67360335232E+03  0.68388121809E+03  0.41800000000E+01 0. -1.
        -11    1    1    2    0    0  0.12806106090E+02  0.74264935258E+02 -0.28126159103E+03  0.29118269103E+03  0.00000000000E+00 0. -1.
         11    1    1    2    0    0 -0.35185732557E+02  0.23406882126E+02 -0.43946224849E+02  0.60968750888E+02  0.00000000000E+00 0.  1.
</event>
<event>
 7    1  0.2564986E-009  0.1121927E+03  0.7561462E-02  0.1256562E+00
         -2   -1    0    0    0  501 -0.00000000000E+00  0.00000000000E+00  0.38267096631E+02  0.38267096631E+02  0.00000000000E+00 0. -1.
          2   -1    0    0  501    0  0.00000000000E+00 -0.00000000000E+00 -0.54179144473E+03  0.54179144473E+03  0.00000000000E+00 0.  1.
         25    2    1    2    0    0 -0.87708184570E+02 -0.32687044873E+02 -0.24868411411E+03  0.29368762704E+03  0.12508982821E+03 0.  0.
          5    1    3    3  502    0 -0.80016488177E+02 -0.21339041641E+02 -0.26158002598E+03  0.27440768114E+03  0.41800000000E+01 0. -1.
         -5    1    3    3    0  502 -0.76916963935E+01 -0.11348003233E+02  0.12895911871E+02  0.19279945897E+02  0.41800000000E+01 0. -1.
        -11    1    1    2    0    0  0.54089688164E+02  0.62179418186E+02 -0.19471149886E+03  0.21143448678E+03  0.00000000000E+00 0.  1.
         11    1    1    2    0    0  0.33618496406E+02 -0.29492373312E+02 -0.60128735126E+02  0.74936427537E+02  0.00000000000E+00 0. -1.
</event>
<event>
 7    1  0.2564986E-009  0.1469528E+03  0.7561462E-02  0.1204268E+00
          2   -1    0    0  501    0  0.00000000000E+00  0.00000000000E+00  0.79422118712E+03  0.79422118712E+03  0.00000000000E+00 0. -1.
         -2   -1    0    0    0  501 -0.00000000000E+00 -0.00000000000E+00 -0.36223436786E+02  0.36223436786E+02  0.00000000000E+00 0.  1.
         25    2    1    2    0    0  0.48867327538E+02  0.11745461345E+03  0.46434793675E+03  0.49744358459E+03  0.12509001388E+03 0.  0.
          5    1    3    3  502    0 -0.14142268227E+02  0.19487510697E+02  0.69196464206E+01  0.25399226964E+02  0.41800000000E+01 0.  1.
         -5    1    3    3    0  502  0.63009595764E+02  0.97967102756E+02  0.45742829033E+03  0.47204435763E+03  0.41800000000E+01 0.  1.
        -11    1    1    2    0    0 -0.63223215106E+02 -0.41534364668E+02  0.10745376407E+03  0.13141000643E+03  0.00000000000E+00 0.  1.
         11    1    1    2    0    0  0.14355887568E+02 -0.75920248785E+02  0.18619604952E+03  0.20159103288E+03  0.00000000000E+00 0. -1.
</event>
<event>
 7    1  0.2564986E-009  0.1194631E+03  0.7561462E-02  0.1243985E+00
         -2   -1    0    0    0  501 -0.00000000000E+00  0.00000000000E+00  0.33716041758E+02  0.33716041758E+02  0.00000000000E+00 0.  1.
          2   -1    0    0  501    0  0.00000000000E+00 -0.00000000000E+00 -0.50138793553E+03  0.50138793553E+03  0.00000000000E+00 0. -1.
         25    2    1    2    0    0  0.79527256311E+01 -0.66165980453E+02 -0.20638116930E+03  0.25036259592E+03  0.12508820721E+03 0.  0.
          5    1    3    3  502    0  0.51421830167E+02 -0.52175434535E+01 -0.33002312388E+02  0.61465863699E+02  0.41800000000E+01 0.  1.
         -5    1    3    3    0  502 -0.43469104536E+02 -0.60948437000E+02 -0.17337885691E+03  0.18889673222E+03  0.41800000000E+01 0.  1.
        -11    1    1    2    0    0  0.28991940464E+02 -0.72684642134E+01 -0.88093553986E+02  0.93026004094E+02  0.00000000000E+00 0. -1.
         11    1    1    2    0    0 -0.36944666095E+02  0.73434444667E+02 -0.17319717049E+03  0.19171537727E+03  0.00000000000E+00 0.  1.
</event>
<event>
 7    1  0.2564986E-009  0.1141319E+03  0.7561462E-02  0.1253104E+00
         -1   -1    0    0    0  501 -0.00000000000E+00  0.00000000000E+00  0.23904544163E+03  0.23904544163E+03  0.00000000000E+00 0.  1.
          1   -1    0    0  501    0  0.00000000000E+00 -0.00000000000E+00 -0.90554563298E+02  0.90554563298E+02  0.00000000000E+00 0. -1.
         25    2    1    2    0    0  0.96296620656E+02  0.25906903342E+02  0.85812567317E+02  0.18153612171E+03  0.12508940797E+03 0.  0.
          5    1    3    3  502    0 -0.50487230168E+01  0.60347761711E-01  0.76135279990E+02  0.76416925515E+02  0.41800000000E+01 0. -1.
         -5    1    3    3    0  502  0.10134534367E+03  0.25846555580E+02  0.96772873265E+01  0.10511919620E+03  0.41800000000E+01 0. -1.
        -11    1    1    2    0    0 -0.92510093731E+02 -0.16904568359E+01  0.76384262882E+02  0.11998137648E+03  0.00000000000E+00 0.  1.
         11    1    1    2    0    0 -0.37865269249E+01 -0.24216446506E+02 -0.13705951870E+02  0.28082506729E+02  0.00000000000E+00 0. -1.
</event>
<event>
 7    1  0.2564986E-009  0.1082562E+03  0.7561462E-02  0.1263834E+00
          1   -1    0    0  501    0  0.00000000000E+00  0.00000000000E+00  0.11012757806E+03  0.11012757806E+03  0.00000000000E+00 0. -1.
         -1   -1    0    0    0  501 -0.00000000000E+00 -0.00000000000E+00 -0.13247827997E+03  0.13247827997E+03  0.00000000000E+00 0.  1.
         25    2    1    2    0    0  0.54577261814E+02 -0.44161585537E+02  0.56194106798E+01  0.14355395641E+03  0.12508891829E+03 0.  0.
          5    1    3    3  502    0  0.87705473057E+02 -0.40423283228E+02 -0.23063658952E+02  0.99376539462E+02  0.41800000000E+01 0.  1.
         -5    1    3    3    0  502 -0.33128211243E+02 -0.37383023088E+01  0.28683069632E+02  0.44177416944E+02  0.41800000000E+01 0.  1.
        -11    1    1    2    0    0 -0.27400160734E+02  0.51292900561E+02 -0.37715947912E+02  0.69312503801E+02  0.00000000000E+00 0. -1.
         11    1    1    2    0    0 -0.27177101080E+02 -0.71313150242E+01  0.97458353228E+01  0.29739397829E+02  0.00000000000E+00 0.  1.
</event>
<event>
 7    1  0.2564986E-009  0.6895258E+02  0.7561462E-02  0.1363692E+00
          1   -1    0    0  501    0  0.00000000000E+00  0.00000000000E+00  0.20187226095E+03  0.20187226095E+03  0.00000000000E+00 0. -1.
         -1   -1    0    0    0  501 -0.00000000000E+00 -0.00000000000E+00 -0.17427031739E+03  0.17427031739E+03  0.00000000000E+00 0.  1.
         25    2    1    2    0    0 -0.66647687877E+01 -0.98056083043E+01 -0.13798852676E+03  0.18662613553E+03  0.12509161381E+03 0.  0.
          5    1    3    3  502    0 -0.11023239915E+02 -0.27794263694E+02 -0.15693423810E+03  0.15981195325E+03  0.41800000000E+01 0. -1.
         -5    1    3    3    0  502  0.43584711273E+01  0.17988655389E+02  0.18945711338E+02  0.26814182280E+02  0.41800000000E+01 0. -1.
        -11    1    1    2    0    0 -0.13880875041E+02  0.45490888849E+02  0.11388739978E+03  0.12341976944E+03  0.00000000000E+00 0. -1.
         11    1    1    2    0    0  0.20545643829E+02 -0.35685280545E+02  0.51703070541E+02  0.66096673375E+02  0.00000000000E+00 0.  1.
</event>
<event>
 7    1  0.2564986E-009  0.9167546E+02  0.7561462E-02  0.1298844E+00
         -1   -1    0    0    0  501 -0.00000000000E+00  0.00000000000E+00  0.12253743119E+03  0.12253743119E+03  0.00000000000E+00 0.  1.
          1   -1    0    0  501    0  0.00000000000E+00 -0.00000000000E+00 -0.13966786240E+03  0.13966786240E+03  0.00000000000E+00 0. -1.
         25    2    1    2    0    0  0.50164106680E+02  0.26435230925E+02  0.38500941180E+02  0.14263227905E+03  0.12508551284E+03 0.  0.
          5    1    3    3  502    0  0.16287823641E+02 -0.41365044703E+02  0.48666130732E+02  0.66047140761E+02  0.41800000000E+01 0. -1.
         -5    1    3    3    0  502  0.33876283039E+02  0.67800275628E+02 -0.10165189552E+02  0.76585138287E+02  0.41800000000E+01 0. -1.
        -11    1    1    2    0    0 -0.16115030896E+02 -0.23663121471E+02  0.21110546656E+02  0.35570953300E+02  0.00000000000E+00 0.  1.
         11    1    1    2    0    0 -0.34049075784E+02 -0.27721094535E+01 -0.76741919050E+02  0.84002061237E+02  0.00000000000E+00 0. -1.
</event>
<event>
 7    1  0.2723299E-009  0.8860925E+02  0.7561462E-02  0.1306255E+00
          1   -1    0    0  501    0  0.00000000000E+00  0.00000000000E+00  0.13795599700E+03  0.13795599700E+03  0.00000000000E+00 0. -1.
         -1   -1    0    0    0  501 -0.00000000000E+00 -0.00000000000E+00 -0.15408375344E+03  0.15408375344E+03  0.00000000000E+00 0.  1.
         25    2    1    2    0    0  0.42721340486E+02 -0.55226381540E+02 -0.76402995500E+02  0.16235455908E+03  0.12508604631E+03 0.  0.
          5    1    3    3  502    0 -0.63499795985E+00 -0.36357648221E+02  0.29037368469E+02  0.46721761249E+02  0.41800000000E+01 0. -1.
         -5    1    3    3    0  502  0.43356338446E+02 -0.18868733319E+02 -0.10544036397E+03  0.11563279783E+03  0.41800000000E+01 0. -1.
        -11    1    1    2    0    0  0.40560098072E+01  0.45105475658E+02  0.67498476829E+02  0.81283451724E+02  0.00000000000E+00 0. -1.
         11    1    1    2    0    0 -0.46777350293E+02  0.10120905882E+02 -0.72232377670E+01  0.48401739640E+02  0.00000000000E+00 0.  1.
</event>
<event>
 7    1  0.2564986E-009  0.9179223E+02  0.7561462E-02  0.1298569E+00
         -1   -1    0    0    0  501 -0.00000000000E+00  0.00000000000E+00  0.29083379414E+02  0.29083379414E+02  0.00000000000E+00 0.  1.
          1   -1    0    0  501    0  0.00000000000E+00 -0.00000000000E+00 -0.46809850219E+03  0.46809850219E+03  0.00000000000E+00 0. -1.
         25    2    1    2    0    0 -0.14702355316E+02 -0.37613568357E+02 -0.20939749004E+03  0.24723528241E+03  0.12508811397E+03 0.  0.
          5    1    3    3  502    0  0.11511687352E+02 -0.63412322604E+02 -0.44983897964E+02  0.78706194672E+02  0.41800000000E+01 0. -1.
         -5    1    3    3    0  502 -0.26214042667E+02  0.25798754246E+02 -0.16441359207E+03  0.16852908773E+03  0.41800000000E+01 0. -1.
        -11    1    1    2    0    0  0.17160005575E+02 -0.18836065344E+02 -0.15097606015E+03  0.15311118146E+03  0.00000000000E+00 0. -1.
         11    1    1    2    0    0 -0.24576502589E+01  0.56449633701E+02 -0.78641572582E+02  0.96835417735E+02  0.00000000000E+00 0.  1.
</event>
<event>
 7    1  0.2564986E-009  0.1213167E+03  0.7561462E-02  0.1240941E+00
          2   -1    0    0  501    0  0.00000000000E+00  0.00000000000E+00  0.80434150606E+03  0.80434150606E+03  0.00000000000E+00 0. -1.
         -2   -1    0    0    0  501 -0.00000000000E+00 -0.00000000000E+00 -0.20239094429E+02  0.20239094429E+02  0.00000000000E+00 0.  1.
         25    2    1    2    0    0  0.22208902098E+02  0.54833046649E+02  0.53408665154E+03  0.55172148690E+03  0.12509256337E+03 0.  0.
          5    1    3    3  502    0 -0.48919327133E+02  0.42714486360E+02  0.28672121309E+03  0.29401386761E+03  0.41800000000E+01 0.  1.
         -5    1    3    3    0  502  0.71128229232E+02  0.12118560288E+02  0.24736543845E+03  0.25770761928E+03  0.41800000000E+01 0.  1.
        -11    1    1    2    0    0  0.14373829691E+01 -0.74507136047E+02  0.20677170065E+03  0.21979061759E+03  0.00000000000E+00 0.  1.
         11    1    1    2    0    0 -0.23646285068E+02  0.19674089399E+02  0.43244059447E+02  0.53068496008E+02  0.00000000000E+00 0. -1.
</event>
<event>
 7    1  0.2564986E-009  0.8890174E+02  0.7561462E-02  0.1305533E+00
         -1   -1    0    0    0  501 -0.00000000000E+00  0.00000000000E+00  0.32339286217E+03  0.32339286217E+03  0.00000000000E+00 0.  1.
          1   -1    0    0  501    0  0.00000000000E+00 -0.00000000000E+00 -0.49245530399E+02  0.49245530399E+02  0.00000000000E+00 0. -1.
         25    2    1    2    0    0 -0.30903203058E+02  0.56640197147E+02  0.12270552990E+03  0.18672682543E+03  0.12508853015E+03 0.  0.
          5    1    3    3  502    0 -0.28599029238E+02  0.23935607173E+02 -0.18404865470E+02  0.41797478836E+02  0.41800000000E+01 0.  1.
         -5    1    3    3    0  502 -0.23041738205E+01  0.32704589973E+02  0.14111039537E+03  0.14492934659E+03  0.41800000000E+01 0.  1.
        -11    1    1    2    0    0  0.18047237793E+02  0.21479484817E+02  0.48726456391E+02  0.56225782452E+02  0.00000000000E+00 0. -1.
         11    1    1    2    0    0  0.12855965265E+02 -0.78119681963E+02  0.10271534548E+03  0.12968578469E+03  0.00000000000E+00 0.  1.
</event>
<event>
 7    1  0.2564986E-009  0.1026172E+03  0.7561462E-02  0.1274887E+00
          3   -1    0    0  501    0  0.00000000000E+00  0.00000000000E+00  0.43406969377E+03  0.43406969377E+03  0.00000000000E+00 0. -1.
         -3   -1    0    0    0  501 -0.00000000000E+00 -0.00000000000E+00 -0.38381950421E+02  0.38381950421E+02  0.00000000000E+00 0.  1.
         25    2    1    2    0    0  0.23765687894E+01  0.18031971197E+02  0.96348942160E+02  0.15893947849E+03  0.12509132306E+03 0.  0.
          5    1    3    3  502    0  0.43710791776E+02  0.54568764939E+02  0.43636860027E+02  0.82522914258E+02  0.41800000000E+01 0. -1.
         -5    1    3    3    0  502 -0.41334222986E+02 -0.36536793742E+02  0.52712082133E+02  0.76416564236E+02  0.41800000000E+01 0. -1.
        -11    1    1    2    0    0  0.37634817986E+01  0.30609192927E+02  0.45400211062E+02  0.54884111101E+02  0.00000000000E+00 0.  1.
         11    1    1    2    0    0 -0.61400505880E+01 -0.48641164124E+02  0.25393859013E+03  0.25862805460E+03  0.00000000000E+00 0. -1.
</event>
<event>
 7    1  0.2564986E-009  0.1299768E+03  0.7561462E-02  0.1227490E+00
         -2   -1    0    0    0  501 -0.00000000000E+00  0.00000000000E+00  0.26507688364E+02  0.26507688364E+02  0.00000000000E+00 0. -1.
          2   -1    0    0  501    0  0.00000000000E+00 -0.00000000000E+00 -0.83969224702E+03  0.83969224702E+03  0.00000000000E+00 0.  1.
         25    2    1    2    0    0  0.99930356596E+02 -0.86632839287E+01 -0.50466185839E+03  0.52952090868E+03  0.12509065813E+03 0.  0.
          5    1    3    3  502    0  0.12120876362E+03 -0.19211393670E+02 -0.31100423163E+03  0.33436768162E+03  0.41800000000E+01 0.  1.
         -5    1    3    3    0  502 -0.21278407024E+02  0.10548109741E+02 -0.19365762677E+03  0.19515322706E+03  0.41800000000E+01 0.  1.
        -11    1    1    2    0    0 -0.69927761891E+02  0.30142427825E+02 -0.10424082316E+03  0.12909146777E+03  0.00000000000E+00 0. -1.
         11    1    1    2    0    0 -0.30002594705E+02 -0.21479143897E+02 -0.20428187710E+03  0.20758755893E+03  0.00000000000E+00 0.  1.
</event>
<event>
 7    1  0.2564986E-009  0.9923484E+02  0.7561462E-02  0.1281913E+00
          1   -1    0    0  501    0  0.00000000000E+00  0.00000000000E+00  0.29108868218E+03  0.29108868218E+03  0.00000000000E+00 0. -1.
         -1   -1    0    0    0  501 -0.00000000000E+00 -0.00000000000E+00 -0.53914331705E+02  0.53914331705E+02  0.00000000000E+00 0.  1.
         25    2    1    2    0    0  0.12722447496E+02  0.21206815585E+02  0.21275959616E+03  0.24804330292E+03  0.12508894703E+03 0.  0.
          5    1    3    3  502    0  0.67915013972E+02  0.16648504360E+02  0.96995010582E+02  0.11964583694E+03  0.41800000000E+01 0.  1.
         -5    1    3    3    0  502 -0.55192566475E+02  0.45583112247E+01  0.11576458557E+03  0.12839746597E+03  0.41800000000E+01 0.  1.
        -11    1    1    2    0    0  0.23288897266E+02  0.98894625382E+01  0.39620013119E+02  0.47009782437E+02  0.00000000000E+00 0. -1.
         11    1    1    2    0    0 -0.36011344763E+02 -0.31096278123E+02 -0.15205258803E+02  0.49949928528E+02  0.00000000000E+00 0.  1.
</event>
<event>
 7    1  0.2564986E-009  0.1132514E+03  0.7561462E-02  0.1254665E+00
         -1   -1    0    0    0  501 -0.00000000000E+00  0.00000000000E+00  0.25299407356E+02  0.25299407356E+02  0.00000000000E+00 0.  1.
          1   -1    0    0  501    0  0.00000000000E+00 -0.00000000000E+00 -0.58399987928E+03  0.58399987928E+03  0.00000000000E+00 0. -1.
         25    2    1    2    0    0 -0.37401594877E+02 -0.77996849313E+01 -0.40855688824E+03  0.42898163926E+03  0.12508717567E+03 0.  0.
          5    1    3    3  502    0  0.42776553167E+02 -0.16275071748E+02 -0.10030068574E+03  0.11032865186E+03  0.41800000000E+01 0.  1.
         -5    1    3    3    0  502 -0.80178148044E+02  0.84753868162E+01 -0.30825620250E+03  0.31865298741E+03  0.41800000000E+01 0.  1.
        -11    1    1    2    0    0  0.34601578870E+02 -0.39452355319E+02 -0.76217384783E+02  0.92535654446E+02  0.00000000000E+00 0.  1.
         11    1    1    2    0    0  0.28000160073E+01  0.47252040251E+02 -0.73926198909E+02  0.87781992930E+02  0.00000000000E+00 0. -1.
</event>
<event>
 7    1  0.2564986E-009  0.8601598E+02  0.7561462E-02  0.1312797E+00
          1   -1    0    0  501    0  0.00000000000E+00  0.00000000000E+00  0.92017359156E+02  0.92017359156E+02  0.00000000000E+00 0.  1.
         -1   -1    0    0    0  501 -0.00000000000E+00 -0.00000000000E+00 -0.15494336834E+03  0.15494336834E+03  0.00000000000E+00 0. -1.
         25    2    1    2    0    0 -0.49721982399E+02 -0.10068915865E+02 -0.34859013601E+02  0.13941888175E+03  0.12509522436E+03 0.  0.
          5    1    3    3  502    0 -0.42750711669E+02 -0.57345726730E+02  0.11665756424E+02  0.72592823305E+02  0.41800000000E+01 0. -1.
         -5    1    3    3    0  502 -0.69712707306E+01  0.47276810865E+02 -0.46524770025E+02  0.66826058443E+02  0.41800000000E+01 0. -1.
        -11    1    1    2    0    0  0.18777222591E+02  0.10401300504E+02  0.32834634864E+02  0.39228616940E+02  0.00000000000E+00 0.  1.
         11    1    1    2    0    0  0.30944759808E+02 -0.33238463840E+00 -0.60901630449E+02  0.68313228811E+02  0.00000000000E+00 0. -1.
</event>
<event>
 7    1  0.2564986E-009  0.1942039E+03  0.7561462E-02  0.1154723E+00
         -2   -1    0    0    0  501 -0.00000000000E+00  0.00000000000E+00  0.32023470782E+03  0.32023470782E+03  0.00000000000E+00 0.  1.
          2   -1    0    0  501    0  0.00000000000E+00 -0.00000000000E+00 -0.88577369596E+03  0.88577369596E+03  0.00000000000E+00 0. -1.
         25    2    1    2    0    0  0.16213756248E+03 -0.21386436653E+02 -0.84603614149E+03  0.87072998327E+03  0.12509029630E+03 0.  0.
          5    1    3    3  502    0  0.14486725711E+02  0.41667508620E+02 -0.22024151016E+03  0.22465493917E+03  0.41800000000E+01 0.  1.
         -5    1    3    3    0  502  0.14765083677E+03 -0.63053945273E+02 -0.62579463133E+03  0.64607504410E+03  0.41800000000E+01 0.  1.
        -11    1    1    2    0    0 -0.11644722346E+03  0.52988607171E+02  0.18875600776E+03  0.22802758343E+03  0.00000000000E+00 0.  1.
         11    1    1    2    0    0 -0.45690339028E+02 -0.31602170518E+02  0.91741145589E+02  0.10725083709E+03  0.00000000000E+00 0. -1.
</event>
<event>
 7    1  0.2564986E-009  0.2006912E+03  0.7561462E-02  0.1149157E+00
          2   -1    0    0  501    0  0.00000000000E+00  0.00000000000E+00  0.47863981493E+03  0.47863981493E+03  0.00000000000E+00 0. -1.
         -2   -1    0    0    0  501 -0.00000000000E+00 -0.00000000000E+00 -0.12626868670E+03  0.12626868670E+03  0.00000000000E+00 0.  1.
         25    2    1    2    0    0 -0.12296053904E+03 -0.15181871311E+03  0.56556182742E+02  0.23877948298E+03  0.12509525919E+03 0.  0.
          5    1    3    3  502    0 -0.11079264047E+03 -0.91242282946E+02 -0.14740422930E+02  0.14434304918E+03  0.41800000000E+01 0.  1.
         -5    1    3    3    0  502 -0.12167898568E+02 -0.60576430163E+02  0.71296605672E+02  0.94436433792E+02  0.41800000000E+01 0.  1.
        -11    1    1    2    0    0  0.49358199218E+02  0.50286434957E+02  0.39494377338E+02  0.80776006413E+02  0.00000000000E+00 0.  1.
         11    1    1    2    0    0  0.73602339820E+02  0.10153227815E+03  0.25632056815E+03  0.28535301224E+03  0.00000000000E+00 0. -1.
</event>
<event>
 7    1  0.2779958E-009  0.1600952E+03  0.7561462E-02  0.1188589E+00
         -2   -1    0    0    0  501 -0.00000000000E+00  0.00000000000E+00  0.32707642788E+02  0.32707642788E+02  0.00000000000E+00 0.  1.
          2   -1    0    0  501    0  0.00000000000E+00 -0.00000000000E+00 -0.11465442831E+04  0.11465442831E+04  0.00000000000E+00 0. -1.
         25    2    1    2    0    0 -0.12231277297E+03 -0.84106808942E+02 -0.76584419483E+03  0.79006276499E+03  0.12508985619E+03 0.  0.
          5    1    3    3  502    0 -0.12890275331E+03 -0.61140736137E+02 -0.74352652529E+03  0.75710189251E+03  0.41800000000E+01 0.  1.
         -5    1    3    3    0  502  0.65899803392E+01 -0.22966072805E+02 -0.22317669536E+02  0.32960872478E+02  0.41800000000E+01 0.  1.
        -11    1    1    2    0    0  0.79413881687E+02  0.75247059489E+02 -0.31749223582E+03  0.33581245416E+03  0.00000000000E+00 0.  1.
         11    1    1    2    0    0  0.42898891279E+02  0.88597494534E+01 -0.30500209679E+02  0.53376706753E+02  0.00000000000E+00 0. -1.
</event>
<event>
 7    1  0.2564986E-009  0.5971330E+02  0.7561462E-02  0.1399039E+00
         -1   -1    0    0    0  501 -0.00000000000E+00  0.00000000000E+00  0.84341748737E+02  0.84341748737E+02  0.00000000000E+00 0.  1.
          1   -1    0    0  501    0  0.00000000000E+00 -0.00000000000E+00 -0.14612915878E+03  0.14612915878E+03  0.00000000000E+00 0. -1.
         25    2    1    2    0    0 -0.11384980878E+02  0.12121263713E+02 -0.18366070487E+02  0.12752235173E+03  0.12509234517E+03 0.  0.
          5    1    3    3  502    0  0.81288844334E+01 -0.60546996761E+00 -0.70065761741E+02  0.70662074158E+02  0.41800000000E+01 0.  1.
         -5    1    3    3    0  502 -0.19513865311E+02  0.12726733680E+02  0.51699691253E+02  0.56860277569E+02  0.41800000000E+01 0.  1.
        -11    1    1    2    0    0  0.37430200708E+02 -0.35507633165E+02 -0.63820657227E+01  0.51985985621E+02  0.00000000000E+00 0.  1.
         11    1    1    2    0    0 -0.26045219831E+02  0.23386369453E+02 -0.37039273831E+02  0.50962570168E+02  0.00000000000E+00 0. -1.
</event>
<event>
 7    1  0.2564986E-009  0.8352921E+02  0.7561462E-02  0.1319324E+00
         -2   -1    0    0    0  501 -0.00000000000E+00  0.00000000000E+00  0.53018024414E+02  0.53018024414E+02  0.00000000000E+00 0. -1.
          2   -1    0    0  501    0  0.00000000000E+00 -0.00000000000E+00 -0.25834919250E+03  0.25834919250E+03  0.00000000000E+00 0.  1.
         25    2    1    2    0    0  0.13782875067E+02 -0.12427410134E+02 -0.17092394960E+03  0.21261936811E+03  0.12509033128E+03 0.  0.
          5    1    3    3  502    0  0.43358833838E+02  0.42171020820E+01 -0.59822115316E+01  0.44170484224E+02  0.41800000000E+01 0.  1.
         -5    1    3    3    0  502 -0.29575958770E+02 -0.16644512216E+02 -0.16494173807E+03  0.16844888388E+03  0.41800000000E+01 0.  1.
        -11    1    1    2    0    0 -0.99309334061E+01 -0.37618207726E+02 -0.28455942826E+02  0.48202631391E+02  0.00000000000E+00 0.  1.
         11    1    1    2    0    0 -0.38519416614E+01  0.50045617861E+02 -0.59512756586E+01  0.50545217415E+02  0.00000000000E+00 0. -1.
</event>
<event>
 7    1  0.2564986E-009  0.1759020E+03  0.7561462E-02  0.1171829E+00
          2   -1    0    0  501    0  0.00000000000E+00  0.00000000000E+00  0.14617770233E+03  0.14617770233E+03  0.00000000000E+00 0. -1.
         -2   -1    0    0    0  501 -0.00000000000E+00 -0.00000000000E+00 -0.51189573951E+03  0.51189573951E+03  0.00000000000E+00 0.  1.
         25    2    1    2    0    0  0.88388664031E+02  0.12551288070E+03 -0.43342070936E+03  0.47651562451E+03  0.12509032714E+03 0.  0.
          5    1    3    3  502    0  0.43730448675E+02  0.13954679207E+03 -0.27800778554E+03  0.31415197045E+03  0.41800000000E+01 0. -1.
         -5    1    3    3    0  502  0.44658215356E+02 -0.14033911365E+02 -0.15541292382E+03  0.16236365406E+03  0.41800000000E+01 0. -1.
        -11    1    1    2    0    0 -0.32859427656E+02 -0.17913222847E+02 -0.86497127349E+01  0.38411496574E+02  0.00000000000E+00 0.  1.
         11    1    1    2    0    0 -0.55529236375E+02 -0.10759965786E+03  0.76352384923E+02  0.14314632076E+03  0.00000000000E+00 0. -1.
</event>
<event>
 7    1  0.2564986E-009  0.2520815E+03  0.7561462E-02  0.1111996E+00
         -1   -1    0    0    0  501 -0.00000000000E+00  0.00000000000E+00  0.13907868319E+03  0.13907868319E+03  0.00000000000E+00 0.  1.
          1   -1    0    0  501    0  0.00000000000E+00 -0.00000000000E+00 -0.51471684324E+03  0.51471684324E+03  0.00000000000E+00 0. -1.
         25    2    1    2    0    0  0.94317541262E+01 -0.24282218055E+03 -0.22029052432E+03  0.35103730366E+03  0.12509078345E+03 0.  0.
          5    1    3    3  502    0  0.40542961704E+02 -0.21503765287E+03 -0.21821756773E+03  0.30906520859E+03  0.41800000000E+01 0. -1.
         -5    1    3    3    0  502 -0.31111207578E+02 -0.27784527678E+02 -0.20729565880E+01  0.41972095066E+02  0.41800000000E+01 0. -1.
        -11    1    1    2    0    0 -0.76885084795E+01  0.53894817328E+02  0.53803107926E+01  0.54705687471E+02  0.00000000000E+00 0.  1.
         11    1    1    2    0    0 -0.17432456467E+01  0.18892736322E+03 -0.16072794652E+03  0.24805253530E+03  0.00000000000E+00 0. -1.
</event>
<event>
 7    1  0.2564986E-009  0.2919419E+03  0.7561462E-02  0.1089340E+00
          2   -1    0    0  501    0  0.00000000000E+00  0.00000000000E+00  0.11838563189E+04  0.11838563189E+04  0.00000000000E+00 0. -1.
         -2   -1    0    0    0  501 -0.00000000000E+00 -0.00000000000E+00 -0.78334262653E+02  0.78334262653E+02  0.00000000000E+00 0.  1.
         25    2    1    2    0    0 -0.23238805522E+03 -0.16362912796E+03  0.55257130368E+03  0.63384603232E+03  0.12508815818E+03 0.  0.
          5    1    3    3  502    0 -0.43766284174E+02  0.58176532485E+00  0.26490678518E+02  0.51332782212E+02  0.41800000000E+01 0.  1.
         -5    1    3    3    0  502 -0.18862177105E+03 -0.16421089329E+03  0.52608062516E+03  0.58251325011E+03  0.41800000000E+01 0.  1.
        -11    1    1    2    0    0  0.72606360631E+02  0.20922697121E+02  0.85269683554E+02  0.11393139072E+03  0.00000000000E+00 0. -1.
         11    1    1    2    0    0  0.15978169459E+03  0.14270643084E+03  0.46768106905E+03  0.51441315854E+03  0.00000000000E+00 0.  1.
</event>
<event>
 7    1  0.2564986E-009  0.1438438E+03  0.7561462E-02  0.1208248E+00
         -3   -1    0    0    0  501 -0.00000000000E+00  0.00000000000E+00  0.42580676552E+02  0.42580676552E+02  0.00000000000E+00 0.  1.
          3   -1    0    0  501    0  0.00000000000E+00 -0.00000000000E+00 -0.55115598863E+03  0.55115598863E+03  0.00000000000E+00 0. -1.
         25    2    1    2    0    0 -0.10416048815E+03  0.32841114268E+02 -0.27433113662E+03  0.32067681437E+03  0.12509236857E+03 0.  0.
          5    1    3    3  502    0 -0.10256237803E+03 -0.26195553781E+02 -0.15940559487E+03  0.19139713817E+03  0.41800000000E+01 0. -1.
         -5    1    3    3    0  502 -0.15981101258E+01  0.59036668049E+02 -0.11492554175E+03  0.12927967619E+03  0.41800000000E+01 0. -1.
        -11    1    1    2    0    0  0.46483210041E+02  0.13668216169E+02 -0.16383135296E+03  0.17084560621E+03  0.00000000000E+00 0. -1.
         11    1    1    2    0    0  0.57677278110E+02 -0.46509330437E+02 -0.70412822493E+02  0.10221424460E+03  0.00000000000E+00 0.  1.
</event>
<event>
 7    1  0.2564986E-009  0.1593639E+03  0.7561462E-02  0.1189417E+00
          2   -1    0    0  501    0  0.00000000000E+00  0.00000000000E+00  0.13281408902E+04  0.13281408902E+04  0.00000000000E+00 0. -1.
         -2   -1    0    0    0  501 -0.00000000000E+00 -0.00000000000E+00 -0.22903937405E+02  0.22903937405E+02  0.00000000000E+00 0.  1.
         25    2    1    2    0    0 -0.10359283593E+02  0.13572347089E+03  0.74275726186E+03  0.76541720787E+03  0.12508787611E+03 0.  0.
          5    1    3    3  502    0  0.32670808090E+02  0.66497485177E+02  0.15307862840E+03  0.17011712468E+03  0.41800000000E+01 0.  1.
         -5    1    3    3    0  502 -0.43030091682E+02  0.69225985714E+02  0.58967863346E+03  0.59530008319E+03  0.41800000000E+01 0.  1.
        -11    1    1    2    0    0  0.44928249336E+02 -0.11281655490E+03  0.42883943662E+03  0.44570100410E+03  0.00000000000E+00 0.  1.
         11    1    1    2    0    0 -0.34568965743E+02 -0.22906915994E+02  0.13364025435E+03  0.13992661568E+03  0.00000000000E+00 0. -1.
</event>
<event>
 7    1  0.2564986E-009  0.1034313E+03  0.7561462E-02  0.1273241E+00
         -2   -1    0    0    0  501 -0.00000000000E+00  0.00000000000E+00  0.74446952199E+02  0.74446952199E+02  0.00000000000E+00 0.  1.
          2   -1    0    0  501    0  0.00000000000E+00 -0.00000000000E+00 -0.18644647296E+03  0.18644647296E+03  0.00000000000E+00 0. -1.
         25    2    1    2    0    0 -0.66498441877E+02  0.12160941823E+02 -0.52455145105E+02  0.15155169034E+03  0.12508573587E+03 0.  0.
          5    1    3    3  502    0 -0.28655431946E+02  0.61899518272E+02 -0.56660967789E+02  0.88772866424E+02  0.41800000000E+01 0.  1.
         -5    1    3    3    0  502 -0.37843009931E+02 -0.49738576449E+02  0.42058226838E+01  0.62778823916E+02  0.41800000000E+01 0.  1.
        -11    1    1    2    0    0  0.21508317507E+02  0.12196608051E+02 -0.52064266319E+02  0.57637251820E+02  0.00000000000E+00 0. -1.
         11    1    1    2    0    0  0.44990124369E+02 -0.24357549874E+02 -0.74801093376E+01  0.51704483000E+02  0.00000000000E+00 0.  1.
</event>
<event>
 7    1  0.2564986E-009  0.1559437E+03  0.7561462E-02  0.1193354E+00
          2   -1    0    0  501    0  0.00000000000E+00  0.00000000000E+00  0.37655842392E+03  0.37655842392E+03  0.00000000000E+00 0. -1.
         -2   -1    0    0    0  501 -0.00000000000E+00 -0.00000000000E+00 -0.11486618119E+03  0.11486618119E+03  0.00000000000E+00 0.  1.
         25    2    1    2    0    0  0.44455671302E+02 -0.14013714364E+03  0.25187725410E+03  0.31733980661E+03  0.12509067107E+03 0.  0.
          5    1    3    3  502    0  0.46925705263E+02 -0.91487025407E+02  0.24775348678E+03  0.26827441220E+03  0.41800000000E+01 0. -1.
         -5    1    3    3    0  502 -0.24700339611E+01 -0.48650118234E+02  0.41237673248E+01  0.49065394413E+02  0.41800000000E+01 0. -1.
        -11    1    1    2    0    0 -0.53689327042E+02  0.64630423904E+02 -0.28742333036E+02  0.88801786246E+02  0.00000000000E+00 0.  1.
         11    1    1    2    0    0  0.92336557399E+01  0.75506719737E+02  0.38557321662E+02  0.85283012245E+02  0.00000000000E+00 0. -1.
</event>
<event>
 7    1  0.2564986E-009  0.9708837E+02  0.7561462E-02  0.1286541E+00
          2   -1    0    0  501    0  0.00000000000E+00  0.00000000000E+00  0.26907644252E+03  0.26907644252E+03  0.00000000000E+00 0. -1.
         -2   -1    0    0    0  501 -0.00000000000E+00 -0.00000000000E+00 -0.11096946660E+03  0.11096946660E+03  0.00000000000E+00 0.  1.
         25    2    1    2    0    0 -0.32626173363E+02 -0.70761777255E+01 -0.58604857580E+02  0.14211506056E+03  0.12509045378E+03 0.  0.
          5    1    3    3  502    0  0.39596709179E+02  0.26436529033E+02 -0.10289441307E+02  0.48889001294E+02  0.41800000000E+01 0. -1.
         -5    1    3    3    0  502 -0.72222882542E+02 -0.33512706758E+02 -0.48315416274E+02  0.93226059268E+02  0.41800000000E+01 0. -1.
        -11    1    1    2    0    0  0.89428478630E+01 -0.25131856390E+02  0.11823117365E+02  0.29178259676E+02  0.00000000000E+00 0.  1.
         11    1    1    2    0    0  0.23683325500E+02  0.32208034115E+02  0.20488871613E+03  0.20875258889E+03  0.00000000000E+00 0. -1.
</event>
<event>
 7    1  0.2564986E-009  0.1716541E+03  0.7561462E-02  0.1176134E+00
          1   -1    0    0  501    0  0.00000000000E+00  0.00000000000E+00  0.68490877444E+02  0.68490877444E+02  0.00000000000E+00 0. -1.
         -1   -1    0    0    0  501 -0.00000000000E+00 -0.00000000000E+00 -0.56591442009E+03  0.56591442009E+03  0.00000000000E+00 0.  1.
         25    2    1    2    0    0 -0.61915775735E+02 -0.14894730351E+03 -0.31414609110E+03  0.37464250429E+03  0.12510146665E+03 0.  0.
          5    1    3    3  502    0 -0.39527547811E+02 -0.15113350654E+03 -0.17919132872E+03  0.23776199975E+03  0.41800000000E+01 0.  1.
         -5    1    3    3    0  502 -0.22388227924E+02  0.21862030371E+01 -0.13495476239E+03  0.13688050454E+03  0.41800000000E+01 0.  1.
        -11    1    1    2    0    0  0.70032080632E+01  0.54159285630E+02 -0.12334756082E+03  0.13489586318E+03  0.00000000000E+00 0.  1.
         11    1    1    2    0    0  0.54912567672E+02  0.94788017877E+02 -0.59929890722E+02  0.12486693006E+03  0.00000000000E+00 0. -1.
</event>
<event>
 7    1  0.2564986E-009  0.2928223E+03  0.7561462E-02  0.1088885E+00
         -2   -1    0    0    0  501 -0.00000000000E+00  0.00000000000E+00  0.25849837418E+03  0.25849837418E+03  0.00000000000E+00 0.  1.
          2   -1    0    0  501    0  0.00000000000E+00 -0.00000000000E+00 -0.45303123471E+03  0.45303123471E+03  0.00000000000E+00 0. -1.
         25    2    1    2    0    0  0.11472219013E+03  0.26254922903E+03  0.58968210035E+02  0.31814909908E+03  0.12509324873E+03 0.  0.
          5    1    3    3  502    0  0.12844926994E+02  0.73165782940E+01 -0.26233112360E+02  0.30400214662E+02  0.41800000000E+01 0. -1.
         -5    1    3    3    0  502  0.10187726314E+03  0.25523265074E+03  0.85201322395E+02  0.28774888442E+03  0.41800000000E+01 0. -1.
        -11    1    1    2    0    0 -0.11855500088E+03 -0.19804292673E+03 -0.22637292300E+03  0.32329706051E+03  0.00000000000E+00 0.  1.
         11    1    1    2    0    0  0.38328107480E+01 -0.64506302298E+02 -0.27128147561E+02  0.70083449291E+02  0.00000000000E+00 0. -1.
</event>
<event>
 7    1  0.2564986E-009  0.2218181E+03  0.7561462E-02  0.1132535E+00
          1   -1    0    0  501    0  0.00000000000E+00  0.00000000000E+00  0.12352399109E+03  0.12352399109E+03  0.00000000000E+00 0. -1.
         -1   -1    0    0    0  501 -0.00000000000E+00 -0.00000000000E+00 -0.49788292865E+03  0.49788292865E+03  0.00000000000E+00 0.  1.
         25    2    1    2    0    0 -0.60017757459E+01 -0.19295654683E+03 -0.53867027611E+02  0.23625354273E+03  0.12508329029E+03 0.  0.
          5    1    3    3  502    0 -0.64273185605E+02 -0.12337234069E+03 -0.32449054703E+02  0.14290622934E+03  0.41800000000E+01 0.  1.
         -5    1    3    3    0  502  0.58271409859E+02 -0.69584206149E+02 -0.21417972907E+02  0.93347313383E+02  0.41800000000E+01 0.  1.
        -11    1    1    2    0    0  0.46691263697E+02  0.70443120421E+02 -0.12611521607E+03  0.15181355356E+03  0.00000000000E+00 0.  1.
         11    1    1    2    0    0 -0.40689487951E+02  0.12251342641E+03 -0.19437669388E+03  0.23333982345E+03  0.00000000000E+00 0. -1.
</event>
<event>
 7    1  0.2564986E-009  0.1426821E+03  0.7561462E-02  0.1209765E+00
         -1   -1    0    0    0  501 -0.00000000000E+00  0.00000000000E+00  0.68954144211E+02  0.68954144211E+02  0.00000000000E+00 0.  1.
          1   -1    0    0  501    0  0.00000000000E+00 -0.00000000000E+00 -0.42963369207E+03  0.42963369207E+03  0.00000000000E+00 0. -1.
         25    2    1    2    0    0 -0.10747040074E+03  0.78648470509E+02 -0.19187410670E+03  0.26495028019E+03  0.12509000441E+03 0.  0.
          5    1    3    3  502    0 -0.32077971610E+02  0.29856225176E+01  0.12097627214E+02  0.34666052394E+02  0.41800000000E+01 0.  1.
         -5    1    3    3    0  502 -0.75392429131E+02  0.75662847991E+02 -0.20397173392E+03  0.23028422780E+03  0.41800000000E+01 0.  1.
        -11    1    1    2    0    0  0.25109165883E+02  0.80817490054E+01 -0.81209248356E+02  0.85385753477E+02  0.00000000000E+00 0. -1.
         11    1    1    2    0    0  0.82361234858E+02 -0.86730219514E+02 -0.87596192804E+02  0.14825180261E+03  0.00000000000E+00 0.  1.
</event>
<event>
 7    1  0.2564986E-009  0.1272982E+03  0.7561462E-02  0.1231521E+00
          2   -1    0    0  501    0  0.00000000000E+00  0.00000000000E+00  0.37489589297E+03  0.37489589297E+03  0.00000000000E+00 0. -1.
         -2   -1    0    0    0  501 -0.00000000000E+00 -0.00000000000E+00 -0.15812641113E+03  0.15812641113E+03  0.00000000000E+00 0.  1.
         25    2    1    2    0    0  0.10409412499E+03  0.33690194906E+02  0.31703361797E+03  0.35794953431E+03  0.12508772161E+03 0.  0.
          5    1    3    3  502    0  0.11357609608E+03  0.71971808697E+01  0.30755944620E+03  0.32796587377E+03  0.41800000000E+01 0. -1.
         -5    1    3    3    0  502 -0.94819710889E+01  0.26493014036E+02  0.94741717736E+01  0.29983660538E+02  0.41800000000E+01 0. -1.
        -11    1    1    2    0    0 -0.36361417121E+02 -0.24663521669E+02  0.10271560340E+02  0.45121468371E+02  0.00000000000E+00 0. -1.
         11    1    1    2    0    0 -0.67732707872E+02 -0.90266732376E+01 -0.11053569648E+03  0.12995130142E+03  0.00000000000E+00 0.  1.
</event>
<event>
 7    1  0.2564986E-009  0.7587156E+02  0.7561462E-02  0.1341193E+00
          2   -1    0    0  501    0  0.00000000000E+00  0.00000000000E+00  0.27961213944E+03  0.27961213944E+03  0.00000000000E+00 0. -1.
         -2   -1    0    0    0  501 -0.00000000000E+00 -0.00000000000E+00 -0.41489103475E+02  0.41489103475E+02  0.00000000000E+00 0.  1.
         25    2    1    2    0    0 -0.51798766767E+00  0.16921926123E+01  0.15117006621E+03  0.19622301253E+03  0.12509176593E+03 0.  0.
          5    1    3    3  502    0  0.29604468843E+02  0.24255266562E+02  0.15352882488E+03  0.15828239005E+03  0.41800000000E+01 0.  1.
         -5    1    3    3    0  502 -0.30122456510E+02 -0.22563073949E+02 -0.23587586641E+01  0.37940622487E+02  0.41800000000E+01 0.  1.
        -11    1    1    2    0    0  0.37515057555E+02  0.47769071520E+01  0.97969734796E+01  0.39066341967E+02  0.00000000000E+00 0.  1.
         11    1    1    2    0    0 -0.36997069888E+02 -0.64690997643E+01  0.77155996275E+02  0.85811888414E+02  0.00000000000E+00 0. -1.
</event>
<event>
 7    1  0.2564986E-009  0.1568158E+03  0.7561462E-02  0.1192339E+00
         -1   -1    0    0    0  501 -0.00000000000E+00  0.00000000000E+00  0.20386351919E+03  0.20386351919E+03  0.00000000000E+00 0.  1.
          1   -1    0    0  501    0  0.00000000000E+00 -0.00000000000E+00 -0.13747514136E+03  0.13747514136E+03  0.00000000000E+00 0. -1.
         25    2    1    2    0    0  0.99073861634E+02 -0.77050590835E+02  0.54221322720E+02  0.18530546442E+03  0.12508293129E+03 0.  0.
          5    1    3    3  502    0  0.12721416184E+03 -0.75551770887E+02  0.51357031561E+02  0.15667332303E+03  0.41800000000E+01 0.  1.
         -5    1    3    3    0  502 -0.28140300210E+02 -0.14988199484E+01  0.28642911585E+01  0.28632141397E+02  0.41800000000E+01 0.  1.
        -11    1    1    2    0    0 -0.62244055490E+02  0.13525020860E+02  0.42512260680E+02  0.76580290814E+02  0.00000000000E+00 0.  1.
         11    1    1    2    0    0 -0.36829806144E+02  0.63525569975E+02 -0.30345205576E+02  0.79452905314E+02  0.00000000000E+00 0. -1.
</event>
<event>
 7    1  0.2564986E-009  0.1843506E+03  0.7561462E-02  0.1163658E+00
          2   -1    0    0  501    0  0.00000000000E+00  0.00000000000E+00  0.11336674048E+04  0.11336674048E+04  0.00000000000E+00 0.  1.
         -2   -1    0    0    0  501 -0.00000000000E+00 -0.00000000000E+00 -0.49315254517E+02  0.49315254517E+02  0.00000000000E+00 0. -1.
         25    2    1    2    0    0  0.83736201049E+02 -0.15495900866E+03  0.84709575456E+03  0.87420980568E+03  0.12509005247E+03 0.  0.
          5    1    3    3  502    0 -0.34388306326E+01 -0.55337122011E+02  0.91306537094E+02  0.10690359556E+03  0.41800000000E+01 0. -1.
         -5    1    3    3    0  502  0.87175031682E+02 -0.99621886649E+02  0.75578921746E+03  0.76730621011E+03  0.41800000000E+01 0. -1.
        -11    1    1    2    0    0 -0.35184538940E+02  0.28772713169E+02  0.12511282074E+03  0.13311287961E+03  0.00000000000E+00 0.  1.
         11    1    1    2    0    0 -0.48551662109E+02  0.12618629549E+03  0.11214357497E+03  0.17565997401E+03  0.00000000000E+00 0. -1.
</event>
<event>
 7    1  0.2564986E-009  0.1218258E+03  0.7561462E-02  0.1240115E+00
         -2   -1    0    0    0  501 -0.00000000000E+00  0.00000000000E+00  0.14674590808E+02  0.14674590808E+02  0.00000000000E+00 0. -1.
          2   -1    0    0  501    0  0.00000000000E+00 -0.00000000000E+00 -0.16479986573E+04  0.16479986573E+04  0.00000000000E+00 0.  1.
         25    2    1    2    0    0  0.76947190519E+02 -0.19685166608E+02 -0.12975966602E+04  0.13060293733E+04  0.12508898947E+03 0.  0.
          5    1    3    3  502    0  0.70910005494E+02  0.31303230637E+02 -0.10636224720E+04  0.10664512912E+04  0.41800000000E+01 0.  1.
         -5    1    3    3    0  502  0.60371850247E+01 -0.50988397245E+02 -0.23397418824E+03  0.23957808209E+03  0.41800000000E+01 0.  1.
        -11    1    1    2    0    0  0.15781454671E+02  0.14831273714E+02 -0.11755784191E+03  0.11953604973E+03  0.00000000000E+00 0.  1.
         11    1    1    2    0    0 -0.92728645190E+02  0.48538928949E+01 -0.21816956431E+03  0.23710782506E+03  0.00000000000E+00 0. -1.
</event>
<event>
 7    1  0.2564986E-009  0.2168750E+03  0.7561462E-02  0.1136235E+00
         -1   -1    0    0    0  501 -0.00000000000E+00  0.00000000000E+00  0.34269371413E+03  0.34269371413E+03  0.00000000000E+00 0.  1.
          1   -1    0    0  501    0  0.00000000000E+00 -0.00000000000E+00 -0.21974502647E+03  0.21974502647E+03  0.00000000000E+00 0. -1.
         25    2    1    2    0    0 -0.10519371200E+03  0.16649509382E+03 -0.97694575079E+02  0.25293932920E+03  0.12509093071E+03 0.  0.
          5    1    3    3  502    0  0.21024846964E+02  0.62195888052E+02 -0.82019436949E+01  0.66295678297E+02  0.41800000000E+01 0.  1.
         -5    1    3    3    0  502 -0.12621855896E+03  0.10429920577E+03 -0.89492631385E+02  0.18664365091E+03  0.41800000000E+01 0.  1.
        -11    1    1    2    0    0  0.11149298590E+03 -0.15333769161E+03  0.22504797018E+03  0.29426131661E+03  0.00000000000E+00 0.  1.
         11    1    1    2    0    0 -0.62992739031E+01 -0.13157402217E+02 -0.44047074471E+01  0.15238094780E+02  0.00000000000E+00 0. -1.
</event>
<event>
 7    1  0.2564986E-009  0.1022548E+03  0.7561462E-02  0.1275625E+00
          2   -1    0    0  501    0  0.00000000000E+00  0.00000000000E+00  0.41591580192E+03  0.41591580192E+03  0.00000000000E+00 0.  1.
         -2   -1    0    0    0  501 -0.00000000000E+00 -0.00000000000E+00 -0.48841122722E+02  0.48841122722E+02  0.00000000000E+00 0. -1.
         25    2    1    2    0    0 -0.60909673505E+02  0.68490564502E+02  0.17950978954E+03  0.23721747519E+03  0.12508964884E+03 0.  0.
          5    1    3    3  502    0 -0.47367869210E+02  0.75081990298E+01  0.11132453854E+01  0.48153917820E+02  0.41800000000E+01 0. -1.
         -5    1    3    3    0  502 -0.13541804296E+02  0.60982365472E+02  0.17839654415E+03  0.18906355737E+03  0.41800000000E+01 0. -1.
        -11    1    1    2    0    0  0.35771941970E+02 -0.25393756013E+02  0.16851913861E+03  0.17413550688E+03  0.00000000000E+00 0.  1.
         11    1    1    2    0    0  0.25137731535E+02 -0.43096808490E+02  0.19045751045E+02  0.53403942566E+02  0.00000000000E+00 0. -1.
</event>
<event>
 7    1  0.2564986E-009  0.8775077E+02  0.7561462E-02  0.1308392E+00
          1   -1    0    0  501    0  0.00000000000E+00  0.00000000000E+00  0.22362861940E+02  0.22362861940E+02  0.00000000000E+00 0. -1.
         -1   -1    0    0    0  501 -0.00000000000E+00 -0.00000000000E+00 -0.67456752464E+03  0.67456752464E+03  0.00000000000E+00 0.  1.
         25    2    1    2    0    0 -0.56286510097E+01 -0.26915430654E+02 -0.51731466527E+03  0.53293422644E+03  0.12509318404E+03 0.  0.
          5    1    3    3  502    0 -0.44190562278E+02 -0.12314154855E+02 -0.70585055887E+02  0.84286219033E+02  0.41800000000E+01 0. -1.
         -5    1    3    3    0  502  0.38561911268E+02 -0.14601275799E+02 -0.44672960938E+03  0.44864800741E+03  0.41800000000E+01 0. -1.
        -11    1    1    2    0    0 -0.19000961726E+02 -0.24486649135E+02 -0.23589959317E+02  0.38950208124E+02  0.00000000000E+00 0. -1.
         11    1    1    2    0    0  0.24629612736E+02  0.51402079789E+02 -0.11130003811E+03  0.12504595201E+03  0.00000000000E+00 0.  1.
</event>
<event>
 7    1  0.2564986E-009  0.3881513E+03  0.7561462E-02  0.1047961E+00
         -2   -1    0    0    0  501 -0.00000000000E+00  0.00000000000E+00  0.98157460425E+02  0.98157460425E+02  0.00000000000E+00 0.  1.
          2   -1    0    0  501    0  0.00000000000E+00 -0.00000000000E+00 -0.16745437445E+04  0.16745437445E+04  0.00000000000E+00 0. -1.
         25    2    1    2    0    0 -0.36963300222E+03  0.86537333280E+02 -0.99666848686E+03  0.10738302547E+04  0.12508427900E+03 0.  0.
          5    1    3    3  502    0 -0.32840318202E+03  0.35607169574E+02 -0.87983506774E+03  0.93981048053E+03  0.41800000000E+01 0. -1.
         -5    1    3    3    0  502 -0.41229820194E+02  0.50930163706E+02 -0.11683341912E+03  0.13401977418E+03  0.41800000000E+01 0. -1.
        -11    1    1    2    0    0  0.33363068845E+03 -0.71136787152E+02 -0.55821613944E+03  0.65419808704E+03  0.00000000000E+00 0.  1.
         11    1    1    2    0    0  0.36002313761E+02 -0.15400546128E+02 -0.21501657790E+02  0.44672863183E+02  0.00000000000E+00 0. -1.
</event>
<event>
 7    1  0.2564986E-009  0.9133391E+02  0.7561462E-02  0.1299653E+00
          1   -1    0    0  501    0  0.00000000000E+00  0.00000000000E+00  0.45483799212E+02  0.45483799212E+02  0.00000000000E+00 0. -1.
         -1   -1    0    0    0  501 -0.00000000000E+00 -0.00000000000E+00 -0.33454600221E+03  0.33454600221E+03  0.00000000000E+00 0.  1.
         25    2    1    2    0    0  0.31017025408E+02  0.91612792790E+01 -0.86151388580E+02  0.15529045228E+03  0.12508828047E+03 0.  0.
          5    1    3    3  502    0  0.18067274790E+02  0.49310433174E+02 -0.98009073901E+02  0.11127082369E+03  0.41800000000E+01 0. -1.
         -5    1    3    3    0  502  0.12949750617E+02 -0.40149153895E+02  0.11857685321E+02  0.44019628584E+02  0.41800000000E+01 0. -1.
        -11    1    1    2    0    0  0.27613938606E+02  0.27964504875E+01 -0.11564252331E+03  0.11892662838E+03  0.00000000000E+00 0.  1.
         11    1    1    2    0    0 -0.58630964014E+02 -0.11957729767E+02 -0.87268291104E+02  0.10581272076E+03  0.00000000000E+00 0. -1.
</event>
<event>
 7    1  0.3287796E-009  0.1332852E+03  0.7561462E-02  0.1222661E+00
         -2   -1    0    0    0  501 -0.00000000000E+00  0.00000000000E+00  0.32877127890E+02  0.32877127890E+02  0.00000000000E+00 0.  1.
          2   -1    0    0  501    0  0.00000000000E+00 -0.00000000000E+00 -0.80329552127E+03  0.80329552127E+03  0.00000000000E+00 0. -1.
         25    2    1    2    0    0  0.17980081408E+02 -0.11621411353E+03 -0.34349169123E+03  0.38400939955E+03  0.12509066108E+03 0.  0.
          5    1    3    3  502    0  0.26228452178E+02 -0.57142373470E+02 -0.39894086567E+02  0.74580111910E+02  0.41800000000E+01 0.  1.
         -5    1    3    3    0  502 -0.82483707697E+01 -0.59071740061E+02 -0.30359760466E+03  0.30942928764E+03  0.41800000000E+01 0.  1.
        -11    1    1    2    0    0 -0.50991458710E+02  0.61793221657E+02 -0.29498604688E+03  0.30567188120E+03  0.00000000000E+00 0.  1.
         11    1    1    2    0    0  0.33011377302E+02  0.54420891875E+02 -0.13194065527E+03  0.14649136840E+03  0.00000000000E+00 0. -1.
</event>
<event>
 7    1  0.2564986E-009  0.1475024E+03  0.7561462E-02  0.1203576E+00
         -2   -1    0    0    0  501 -0.00000000000E+00  0.00000000000E+00  0.35447803547E+02  0.35447803547E+02  0.00000000000E+00 0.  1.
          2   -1    0    0  501    0  0.00000000000E+00 -0.00000000000E+00 -0.73431215954E+03  0.73431215954E+03  0.00000000000E+00 0. -1.
         25    2    1    2    0    0 -0.11566120856E+03 -0.16880256695E+01 -0.30602428829E+03  0.35025508648E+03  0.12508955188E+03 0.  0.
          5    1    3    3  502    0  0.22875590664E+02  0.15647803983E+02 -0.30996566239E+02  0.41790021971E+02  0.41800000000E+01 0.  1.
         -5    1    3    3    0  502 -0.13853679922E+03 -0.17335829653E+02 -0.27502772205E+03  0.30846506451E+03  0.41800000000E+01 0.  1.
        -11    1    1    2    0    0  0.70419501461E+02  0.27043371791E+02 -0.32754669607E+03  0.33612064538E+03  0.00000000000E+00 0. -1.
         11    1    1    2    0    0  0.45241707094E+02 -0.25355346122E+02 -0.65293371635E+02  0.83384231227E+02  0.00000000000E+00 0.  1.
</event>
<event>
 7    1  0.2564986E-009  0.8599797E+02  0.7561462E-02  0.1312843E+00
         -2   -1    0    0    0  501 -0.00000000000E+00  0.00000000000E+00  0.11644371913E+03  0.11644371913E+03  0.00000000000E+00 0.  1.
          2   -1    0    0  501    0  0.00000000000E+00 -0.00000000000E+00 -0.15037361003E+03  0.15037361003E+03  0.00000000000E+00 0. -1.
         25    2    1    2    0    0 -0.36811805303E+02  0.51395091607E+02  0.22605286033E+02  0.14195981176E+03  0.12508007334E+03 0.  0.
          5    1    3    3  502    0 -0.25597504974E+02  0.40892705461E+02  0.73843222483E+02  0.88304810331E+02  0.41800000000E+01 0. -1.
         -5    1    3    3    0  502 -0.11214300329E+02  0.10502386146E+02 -0.51237936450E+02  0.53655001429E+02  0.41800000000E+01 0. -1.
        -11    1    1    2    0    0  0.20222123233E+02  0.23462775893E+02 -0.25393183518E+01  0.31078678517E+02  0.00000000000E+00 0.  1.
         11    1    1    2    0    0  0.16589682070E+02 -0.74857867501E+02 -0.53995858581E+02  0.93778838881E+02  0.00000000000E+00 0. -1.
</event>
<event>
 7    1  0.2564986E-009  0.9695894E+02  0.7561462E-02  0.1286824E+00
          1   -1    0    0  501    0  0.00000000000E+00  0.00000000000E+00  0.18027098350E+03  0.18027098350E+03  0.00000000000E+00 0. -1.
         -1   -1    0    0    0  501 -0.00000000000E+00 -0.00000000000E+00 -0.88674719965E+02  0.88674719965E+02  0.00000000000E+00 0.  1.
         25    2    1    2    0    0  0.43761998497E+02 -0.47005937411E+02  0.44844227991E+02  0.14758659623E+03  0.12508448320E+03 0.  0.
          5    1    3    3  502    0 -0.62061824043E+01  0.32580019209E+02 -0.14423397887E+02  0.36407158064E+02  0.41800000000E+01 0.  1.
         -5    1    3    3    0  502  0.49968180901E+02 -0.79585956619E+02  0.59267625877E+02  0.11117943817E+03  0.41800000000E+01 0.  1.
        -11    1    1    2    0    0 -0.31337381162E+02  0.43317099805E+02 -0.17156705962E+02  0.56149400292E+02  0.00000000000E+00 0.  1.
         11    1    1    2    0    0 -0.12424617334E+02  0.36888376057E+01  0.63908741509E+02  0.65209706946E+02  0.00000000000E+00 0. -1.
</event>
<event>
 7    1  0.2564986E-009  0.9066841E+02  0.7561462E-02  0.1301241E+00
          2   -1    0    0  501    0  0.00000000000E+00  0.00000000000E+00  0.18033541335E+03  0.18033541335E+03  0.00000000000E+00 0. -1.
         -2   -1    0    0    0  501 -0.00000000000E+00 -0.00000000000E+00 -0.10243641796E+03  0.10243641796E+03  0.00000000000E+00 0.  1.
         25    2    1    2    0    0 -0.49272760260E+01  0.45719140502E+02  0.11444063986E+03  0.17566838541E+03  0.12509278046E+03 0.  0.
          5    1    3    3  502    0 -0.67207278701E+01  0.63306026851E+02  0.41954936809E+01  0.63936654480E+02  0.41800000000E+01 0. -1.
         -5    1    3    3    0  502  0.17934518441E+01 -0.17586886350E+02  0.11024514618E+03  0.11173173093E+03  0.41800000000E+01 0. -1.
        -11    1    1    2    0    0  0.41215078781E+02 -0.27283469355E+00 -0.23706804380E+02  0.47547552320E+02  0.00000000000E+00 0.  1.
         11    1    1    2    0    0 -0.36287802755E+02 -0.45446305808E+02 -0.12834840093E+02  0.59555893584E+02  0.00000000000E+00 0. -1.
</event>
<event>
 7    1  0.2564986E-009  0.1405911E+03  0.7561462E-02  0.1212536E+00
         -2   -1    0    0    0  501 -0.00000000000E+00  0.00000000000E+00  0.49970034785E+02  0.49970034785E+02  0.00000000000E+00 0.  1.
          2   -1    0    0  501    0  0.00000000000E+00 -0.00000000000E+00 -0.71709743161E+03  0.71709743161E+03  0.00000000000E+00 0. -1.
         25    2    1    2    0    0 -0.12430353316E+02 -0.13058258691E+03 -0.51830223708E+03  0.54908178913E+03  0.12508907429E+03 0.  0.
          5    1    3    3  502    0 -0.95963591032E+01 -0.11200315817E+03 -0.19434898525E+03  0.22455689261E+03  0.41800000000E+01 0.  1.
         -5    1    3    3    0  502 -0.28339942128E+01 -0.18579428742E+02 -0.32395325183E+03  0.32452489653E+03  0.41800000000E+01 0.  1.
        -11    1    1    2    0    0  0.42180836355E+02  0.86760257473E+02 -0.12976072474E+03  0.16169233413E+03  0.00000000000E+00 0. -1.
         11    1    1    2    0    0 -0.29750483039E+02  0.43822329442E+02 -0.19064435009E+02  0.56293343132E+02  0.00000000000E+00 0.  1.
</event>
<event>
 7    1  0.2564986E-009  0.1102689E+03  0.7561462E-02  0.1260073E+00
         -1   -1    0    0    0  501 -0.00000000000E+00  0.00000000000E+00  0.10912241701E+02  0.10912241701E+02  0.00000000000E+00 0.  1.
          1   -1    0    0  501    0  0.00000000000E+00 -0.00000000000E+00 -0.14528401093E+04  0.14528401093E+04  0.00000000000E+00 0. -1.
         25    2    1    2    0    0  0.22663870428E+02 -0.12178510833E+02 -0.11156634156E+04  0.11229487151E+04  0.12508793905E+03 0.  0.
          5    1    3    3  502    0  0.28009841476E+00  0.54375629509E+02 -0.37371997756E+03  0.37767827786E+03  0.41800000000E+01 0.  1.
         -5    1    3    3    0  502  0.22383772013E+02 -0.66554140342E+02 -0.74194343809E+03  0.74527043720E+03  0.41800000000E+01 0.  1.
        -11    1    1    2    0    0  0.50252272530E+01 -0.38009298343E+02 -0.92851917193E+02  0.10045615061E+03  0.00000000000E+00 0.  1.
         11    1    1    2    0    0 -0.27689097681E+02  0.50187809176E+02 -0.23341253472E+03  0.24034748529E+03  0.00000000000E+00 0. -1.
</event>
<event>
 7    1  0.2564986E-009  0.1326970E+03  0.7561462E-02  0.1223508E+00
         -2   -1    0    0    0  501 -0.00000000000E+00  0.00000000000E+00  0.31711620775E+02  0.31711620775E+02  0.00000000000E+00 0.  1.
          2   -1    0    0  501    0  0.00000000000E+00 -0.00000000000E+00 -0.74395666637E+03  0.74395666637E+03  0.00000000000E+00 0. -1.
         25    2    1    2    0    0 -0.57446630828E+02 -0.92848348344E+02 -0.39398257247E+03  0.42754152984E+03  0.12509420906E+03 0.  0.
          5    1    3    3  502    0  0.14733808744E+02 -0.15681688253E+02 -0.25390718247E+01  0.22066258231E+02  0.41800000000E+01 0.  1.
         -5    1    3    3    0  502 -0.72180439571E+02 -0.77166660091E+02 -0.39144350065E+03  0.40547527161E+03  0.41800000000E+01 0.  1.
        -11    1    1    2    0    0  0.99658381667E+01  0.89582874077E+02 -0.17006592775E+03  0.19247552841E+03  0.00000000000E+00 0.  1.
         11    1    1    2    0    0  0.47480792661E+02  0.32654742677E+01 -0.14819654537E+03  0.15565122889E+03  0.00000000000E+00 0. -1.
</event>
<event>
 7    1  0.3155024E-009  0.1122483E+03  0.7561462E-02  0.1256462E+00
          1   -1    0    0  501    0  0.00000000000E+00  0.00000000000E+00  0.44240472592E+03  0.44240472592E+03  0.00000000000E+00 0. -1.
         -1   -1    0    0    0  501 -0.00000000000E+00 -0.00000000000E+00 -0.47076829395E+02  0.47076829395E+02  0.00000000000E+00 0.  1.
         25    2    1    2    0    0  0.38917220355E+02  0.84963486727E+02  0.24239569104E+03  0.28833541006E+03  0.12509313947E+03 0.  0.
          5    1    3    3  502    0  0.45860842769E+01  0.87466565686E+02  0.69200621501E+02  0.11170331552E+03  0.41800000000E+01 0. -1.
         -5    1    3    3    0  502  0.34331136078E+02 -0.25030789595E+01  0.17319506954E+03  0.17663209454E+03  0.41800000000E+01 0. -1.
        -11    1    1    2    0    0 -0.42283887139E+02 -0.43965854370E+02  0.23559240839E+02  0.65390834916E+02  0.00000000000E+00 0.  1.
         11    1    1    2    0    0  0.33666667834E+01 -0.40997632357E+02  0.12937296465E+03  0.13575531034E+03  0.00000000000E+00 0. -1.
</event>
<event>
 7    1  0.2564986E-009  0.4095714E+03  0.7561462E-02  0.1040515E+00
          1   -1    0    0  501    0  0.00000000000E+00  0.00000000000E+00  0.30431285421E+03  0.30431285421E+03  0.00000000000E+00 0. -1.
         -1   -1    0    0    0  501 -0.00000000000E+00 -0.00000000000E+00 -0.58891971325E+03  0.58891971325E+03  0.00000000000E+00 0.  1.
         25    2    1    2    0    0  0.34541202164E+03 -0.20319418165E+03 -0.22910898780E+03  0.47826340641E+03  0.12509043713E+03 0.  0.
          5    1    3    3  502    0  0.32671395735E+03 -0.20927383064E+03 -0.23915048847E+03  0.45579378523E+03  0.41800000000E+01 0.  1.
         -5    1    3    3    0  502  0.18698064295E+02  0.60796489830E+01  0.10041500673E+02  0.22469621178E+02  0.41800000000E+01 0.  1.
        -11    1    1    2    0    0 -0.21481770923E+03  0.17581900197E+03 -0.43734219357E+02  0.28101895238E+03  0.00000000000E+00 0. -1.
         11    1    1    2    0    0 -0.13059431241E+03  0.27375179678E+02 -0.11763651885E+02  0.13395020867E+03  0.00000000000E+00 0.  1.
</event>
<event>
 7    1  0.2564986E-009  0.1484122E+03  0.7561462E-02  0.1202438E+00
          3   -1    0    0  501    0  0.00000000000E+00  0.00000000000E+00  0.63082964925E+03  0.63082964925E+03  0.00000000000E+00 0. -1.
         -3   -1    0    0    0  501 -0.00000000000E+00 -0.00000000000E+00 -0.48849650664E+02  0.48849650664E+02  0.00000000000E+00 0.  1.
         25    2    1    2    0    0  0.11054390756E+03  0.17754654871E+02  0.46697673782E+03  0.49623583960E+03  0.12509017376E+03 0.  0.
          5    1    3    3  502    0  0.45635788423E+02  0.65469863521E+02  0.16014323978E+03  0.17897557896E+03  0.41800000000E+01 0.  1.
         -5    1    3    3    0  502  0.64908119133E+02 -0.47715208650E+02  0.30683349803E+03  0.31726026064E+03  0.41800000000E+01 0.  1.
        -11    1    1    2    0    0  0.12156438915E+02 -0.38739294368E+01 -0.24847873840E+01  0.12998480862E+02  0.00000000000E+00 0.  1.
         11    1    1    2    0    0 -0.12270034647E+03 -0.13880725434E+02  0.11748804815E+03  0.17044497945E+03  0.00000000000E+00 0. -1.
</event>
<event>
 7    1  0.2564986E-009  0.1002595E+03  0.7561462E-02  0.1279751E+00
          1   -1    0    0  501    0  0.00000000000E+00  0.00000000000E+00  0.39256571730E+03  0.39256571730E+03  0.00000000000E+00 0. -1.
         -1   -1    0    0    0  501 -0.00000000000E+00 -0.00000000000E+00 -0.63253407130E+02  0.63253407130E+02  0.00000000000E+00 0.  1.
         25    2    1    2    0    0  0.59126128527E+02 -0.77484876092E+02  0.26350611977E+03  0.30754290801E+03  0.12508940807E+03 0.  0.
          5    1    3    3  502    0  0.37603986054E+02 -0.35106009512E+02  0.13948918794E+02  0.53465282255E+02  0.41800000000E+01 0.  1.
         -5    1    3    3    0  502  0.21522142472E+02 -0.42378866579E+02  0.24955720097E+03  0.25407762575E+03  0.41800000000E+01 0.  1.
        -11    1    1    2    0    0 -0.58139268210E+02  0.59534563540E+02  0.33467708662E+01  0.83281088124E+02  0.00000000000E+00 0.  1.
         11    1    1    2    0    0 -0.98686031622E+00  0.17950312552E+02  0.62459419536E+02  0.64995128300E+02  0.00000000000E+00 0. -1.
</event>
<event>
 7    1  0.2564986E-009  0.1456359E+03  0.7561462E-02  0.1205940E+00
         -2   -1    0    0    0  501 -0.00000000000E+00  0.00000000000E+00  0.66193067897E+02  0.66193067897E+02  0.00000000000E+00 0.  1.
          2   -1    0    0  501    0  0.00000000000E+00 -0.00000000000E+00 -0.41290452338E+03  0.41290452338E+03  0.00000000000E+00 0. -1.
         25    2    1    2    0    0 -0.10868170681E+03 -0.56570444887E+02 -0.20335866655E+03  0.26835149234E+03  0.12508336239E+03 0.  0.
          5    1    3    3  502    0 -0.53427159266E+02  0.12486208212E+02 -0.10332476471E+02  0.55987491574E+02  0.41800000000E+01 0.  1.
         -5    1    3    3    0  502 -0.55254547547E+02 -0.69056653099E+02 -0.19302619008E+03  0.21236400076E+03  0.41800000000E+01 0.  1.
        -11    1    1    2    0    0  0.51570796503E+02 -0.17243847128E+02 -0.24532517613E+02  0.59655190354E+02  0.00000000000E+00 0.  1.
         11    1    1    2    0    0  0.57110910310E+02  0.73814292015E+02 -0.11882027132E+03  0.15109090859E+03  0.00000000000E+00 0. -1.
</event>
<event>
 7    1  0.2564986E-009  0.1332152E+03  0.7561462E-02  0.1222761E+00
          2   -1    0    0  501    0  0.00000000000E+00  0.00000000000E+00  0.37469899318E+03  0.37469899318E+03  0.00000000000E+00 0. -1.
         -2   -1    0    0    0  501 -0.00000000000E+00 -0.00000000000E+00 -0.55100052446E+02  0.55100052446E+02  0.00000000000E+00 0.  1.
         25    2    1    2    0    0  0.60507423280E+02 -0.68034825202E+02  0.13410642205E+03  0.20474957599E+03  0.12509184914E+03 0.  0.
          5    1    3    3  502    0  0.57936274553E+02 -0.10260617194E+03  0.11605571392E+03  0.16544195224E+03  0.41800000000E+01 0. -1.
         -5    1    3    3    0  502  0.25711487268E+01  0.34571346734E+02  0.18050708130E+02  0.39307623749E+02  0.41800000000E+01 0. -1.
        -11    1    1    2    0    0 -0.26079783682E+02 -0.10299093479E+02  0.99311902973E+01  0.29746512133E+02  0.00000000000E+00 0.  1.
         11    1    1    2    0    0 -0.34427639598E+02  0.78333918680E+02  0.17556132839E+03  0.19530295750E+03  0.00000000000E+00 0. -1.
</event>
<event>
 7    1  0.2564986E-009  0.1117498E+03  0.7561462E-02  0.1257363E+00
          2   -1    0    0  501    0  0.00000000000E+00  0.00000000000E+00  0.38560952870E+03  0.38560952870E+03  0.00000000000E+00 0. -1.
         -2   -1    0    0    0  501 -0.00000000000E+00 -0.00000000000E+00 -0.33352186184E+02  0.33352186184E+02  0.00000000000E+00 0.  1.
         25    2    1    2    0    0 -0.44964636988E+01  0.33108834328E+02  0.22537761014E+03  0.25992267677E+03  0.12509323583E+03 0.  0.
          5    1    3    3  502    0 -0.59725502222E+02 -0.63091243444E+01  0.87691884051E+02  0.10636860248E+03  0.41800000000E+01 0. -1.
         -5    1    3    3    0  502  0.55229038524E+02  0.39417958673E+02  0.13768572609E+03  0.15355407429E+03  0.41800000000E+01 0. -1.
        -11    1    1    2    0    0  0.29353367449E+02  0.20783568032E+02  0.39627788274E+02  0.53515777899E+02  0.00000000000E+00 0. -1.
         11    1    1    2    0    0 -0.24856903750E+02 -0.53892402360E+02  0.87251944103E+02  0.10552326021E+03  0.00000000000E+00 0.  1.
</event>
<event>
 7    1  0.2564986E-009  0.2107656E+03  0.7561462E-02  0.1140961E+00
         -1   -1    0    0    0  501 -0.00000000000E+00  0.00000000000E+00  0.51170848349E+02  0.51170848349E+02  0.00000000000E+00 0.  1.
          1   -1    0    0  501    0  0.00000000000E+00 -0.00000000000E+00 -0.94954496473E+03  0.94954496473E+03  0.00000000000E+00 0. -1.
         25    2    1    2    0    0  0.12206655511E+03 -0.14597231146E+03 -0.43231095412E+03  0.48861965874E+03  0.12509296648E+03 0.  0.
          5    1    3    3  502    0 -0.96546710217E+01  0.84604421095E+01 -0.31543611731E+01  0.13864131694E+02  0.41800000000E+01 0.  1.
         -5    1    3    3    0  502  0.13172122613E+03 -0.15443275357E+03 -0.42915659295E+03  0.47475552704E+03  0.41800000000E+01 0.  1.
        -11    1    1    2    0    0 -0.12102734996E+03  0.94561636132E+02 -0.28351862216E+03  0.32244740901E+03  0.00000000000E+00 0.  1.
         11    1    1    2    0    0 -0.10392051456E+01  0.51410675325E+02 -0.18254454010E+03  0.18964874533E+03  0.00000000000E+00 0. -1.
</event>
<event>
 7    1  0.2564986E-009  0.9405695E+02  0.7561462E-02  0.1293314E+00
         -1   -1    0    0    0  501 -0.00000000000E+00  0.00000000000E+00  0.34692851043E+03  0.34692851043E+03  0.00000000000E+00 0.  1.
          1   -1    0    0  501    0  0.00000000000E+00 -0.00000000000E+00 -0.39773982141E+02  0.39773982141E+02  0.00000000000E+00 0. -1.
         25    2    1    2    0    0 -0.25372498733E+02 -0.33895295790E+02  0.14967357580E+03  0.19960476836E+03  0.12508888636E+03 0.  0.
          5    1    3    3  502    0  0.15558831712E+02 -0.44669474521E+02  0.14972337322E+03  0.15707323160E+03  0.41800000000E+01 0. -1.
         -5    1    3    3    0  502 -0.40931330445E+02  0.10774178730E+02 -0.49797413671E-01  0.42531536759E+02  0.41800000000E+01 0. -1.
        -11    1    1    2    0    0 -0.28105915596E+02 -0.90306987431E+01  0.69791304023E+02  0.75778111144E+02  0.00000000000E+00 0.  1.
         11    1    1    2    0    0  0.53478414329E+02  0.42925994533E+02  0.87689648460E+02  0.11131961306E+03  0.00000000000E+00 0. -1.
</event>
<event>
 7    1  0.2564986E-009  0.1122080E+03  0.7561462E-02  0.1256535E+00
          1   -1    0    0  501    0  0.00000000000E+00  0.00000000000E+00  0.23361312103E+03  0.23361312103E+03  0.00000000000E+00 0. -1.
         -1   -1    0    0    0  501 -0.00000000000E+00 -0.00000000000E+00 -0.63146654240E+02  0.63146654240E+02  0.00000000000E+00 0.  1.
         25    2    1    2    0    0  0.15271352988E+02 -0.46403264460E+02  0.12335245964E+03  0.18234587310E+03  0.12509081086E+03 0.  0.
          5    1    3    3  502    0  0.47934412999E+02 -0.76032839593E+02  0.81360090504E+02  0.12130802683E+03  0.41800000000E+01 0.  1.
         -5    1    3    3    0  502 -0.32663060011E+02  0.29629575133E+02  0.41992369131E+02  0.61037846268E+02  0.41800000000E+01 0.  1.
        -11    1    1    2    0    0 -0.42297638461E+02  0.77913224054E+01  0.51479404351E+02  0.67081472826E+02  0.00000000000E+00 0. -1.
         11    1    1    2    0    0  0.27026285473E+02  0.38611942055E+02 -0.43653971912E+01  0.47332429352E+02  0.00000000000E+00 0.  1.
</event>
<event>
 7    1  0.2564986E-009  0.1479909E+03  0.7561462E-02  0.1202964E+00
          1   -1    0    0  501    0  0.00000000000E+00  0.00000000000E+00  0.31956164851E+03  0.31956164851E+03  0.00000000000E+00 0. -1.
         -1   -1    0    0    0  501 -0.00000000000E+00 -0.00000000000E+00 -0.74103834059E+02  0.74103834059E+02  0.00000000000E+00 0.  1.
         25    2    1    2    0    0 -0.72132293821E+02  0.79291685940E+02  0.12318035464E+03  0.20569997202E+03  0.12509532144E+03 0.  0.
          5    1    3    3  502    0 -0.25493900059E+02  0.10485649123E+03  0.61993101547E+02  0.12452084056E+03  0.41800000000E+01 0. -1.
         -5    1    3    3    0  502 -0.46638393762E+02 -0.25564805294E+02  0.61187253098E+02  0.81179131457E+02  0.41800000000E+01 0. -1.
        -11    1    1    2    0    0  0.39543926052E+02  0.89751589099E+01  0.68468747845E+02  0.79575404469E+02  0.00000000000E+00 0. -1.
         11    1    1    2    0    0  0.32588367769E+02 -0.88266844849E+02  0.53808711956E+02  0.10839010608E+03  0.00000000000E+00 0.  1.
</event>
<event>
 7    1  0.2564986E-009  0.2844078E+03  0.7561462E-02  0.1093306E+00
          2   -1    0    0  501    0  0.00000000000E+00  0.00000000000E+00  0.46622004426E+03  0.46622004426E+03  0.00000000000E+00 0.  1.
         -2   -1    0    0    0  501 -0.00000000000E+00 -0.00000000000E+00 -0.21168846027E+03  0.21168846027E+03  0.00000000000E+00 0. -1.
         25    2    1    2    0    0 -0.14031528682E+03 -0.23708523516E+03  0.16623021642E+02  0.30302036487E+03  0.12508888132E+03 0.  0.
          5    1    3    3  502    0 -0.31438770126E+02 -0.20135065568E+02 -0.38793859594E+02  0.54002343233E+02  0.41800000000E+01 0. -1.
         -5    1    3    3    0  502 -0.10887651669E+03 -0.21695016959E+03  0.55416881236E+02  0.24901802163E+03  0.41800000000E+01 0. -1.
        -11    1    1    2    0    0  0.10043516789E+03  0.22564323318E+03  0.21522339419E+03  0.32760219938E+03  0.00000000000E+00 0. -1.
         11    1    1    2    0    0  0.39880118925E+02  0.11442001977E+02  0.22685168161E+02  0.47285940291E+02  0.00000000000E+00 0.  1.
</event>
<event>
 7    1  0.2564986E-009  0.1489345E+03  0.7561462E-02  0.1201788E+00
          4   -1    0    0  501    0  0.00000000000E+00  0.00000000000E+00  0.75437575979E+02  0.75437575979E+02  0.00000000000E+00 0. -1.
         -4   -1    0    0    0  501 -0.00000000000E+00 -0.00000000000E+00 -0.58089583571E+03  0.58089583571E+03  0.00000000000E+00 0.  1.
         25    2    1    2    0    0 -0.11093128578E+03 -0.38308002324E+02 -0.47465006913E+03  0.50469126868E+03  0.12508930949E+03 0.  0.
          5    1    3    3  502    0 -0.41120422179E+02  0.46077457259E+02 -0.16709379939E+03  0.17819043572E+03  0.41800000000E+01 0. -1.
         -5    1    3    3    0  502 -0.69810863598E+02 -0.84385459583E+02 -0.30755626974E+03  0.32650083296E+03  0.41800000000E+01 0. -1.
        -11    1    1    2    0    0  0.92944983397E+02  0.49381926556E+02  0.99681349404E+01  0.10571995234E+03  0.00000000000E+00 0. -1.
         11    1    1    2    0    0  0.17986302380E+02 -0.11073924232E+02 -0.40776325541E+02  0.45922190669E+02  0.00000000000E+00 0.  1.
</event>
<event>
 7    1  0.2564986E-009  0.1047483E+03  0.7561462E-02  0.1270616E+00
         -2   -1    0    0    0  501 -0.00000000000E+00  0.00000000000E+00  0.28302359265E+02  0.28302359265E+02  0.00000000000E+00 0.  1.
          2   -1    0    0  501    0  0.00000000000E+00 -0.00000000000E+00 -0.39418784260E+03  0.39418784260E+03  0.00000000000E+00 0. -1.
         25    2    1    2    0    0  0.18594838819E+02 -0.37043119502E+01 -0.21925944870E+03  0.25314482341E+03  0.12509238914E+03 0.  0.
          5    1    3    3  502    0 -0.53630519253E+02  0.31279466822E+00 -0.85327262063E+02  0.10086894709E+03  0.41800000000E+01 0. -1.
         -5    1    3    3    0  502  0.72225358072E+02 -0.40171066184E+01 -0.13393218663E+03  0.15227587633E+03  0.41800000000E+01 0. -1.
        -11    1    1    2    0    0 -0.85368452253E+01  0.42406426058E+02 -0.91848946280E+02  0.10152542357E+03  0.00000000000E+00 0.  1.
         11    1    1    2    0    0 -0.10057993594E+02 -0.38702114107E+02 -0.54777088364E+02  0.67819954889E+02  0.00000000000E+00 0. -1.
</event>
<event>
 7    1  0.2564986E-009  0.9075414E+02  0.7561462E-02  0.1301036E+00
          2   -1    0    0  501    0  0.00000000000E+00  0.00000000000E+00  0.14283766627E+02  0.14283766627E+02  0.00000000000E+00 0.  1.
         -2   -1    0    0    0  501 -0.00000000000E+00 -0.00000000000E+00 -0.92663066902E+03  0.92663066902E+03  0.00000000000E+00 0. -1.
         25    2    1    2    0    0 -0.73379956591E+00  0.31377143060E+02 -0.62003351357E+03  0.63330343911E+03  0.12508646800E+03 0.  0.
          5    1    3    3  502    0 -0.47470818730E+02  0.27470462423E+02 -0.13197618516E+03  0.14298003632E+03  0.41800000000E+01 0.  1.
         -5    1    3    3    0  502  0.46737019164E+02  0.39066806371E+01 -0.48805732841E+03  0.49032340279E+03  0.41800000000E+01 0.  1.
        -11    1    1    2    0    0  0.16200377263E+02  0.20013995509E+02 -0.28563567950E+02  0.38456334377E+02  0.00000000000E+00 0.  1.
         11    1    1    2    0    0 -0.15466577698E+02 -0.51391138569E+02 -0.26374982088E+03  0.26915466216E+03  0.00000000000E+00 0. -1.
</event>
<event>
 7    1  0.2564986E-009  0.1205468E+03  0.7561462E-02  0.1242198E+00
         -1   -1    0    0    0  501 -0.00000000000E+00  0.00000000000E+00  0.92916185915E+02  0.92916185915E+02  0.00000000000E+00 0.  1.
          1   -1    0    0  501    0  0.00000000000E+00 -0.00000000000E+00 -0.18960854658E+03  0.18960854658E+03  0.00000000000E+00 0. -1.
         25    2    1    2    0    0 -0.70890317242E+02 -0.11349826608E+02 -0.80949995327E+02  0.16538904103E+03  0.12508548080E+03 0.  0.
          5    1    3    3  502    0 -0.75869875925E+02 -0.54525646965E+02 -0.29842247760E+02  0.98169834476E+02  0.41800000000E+01 0.  1.
         -5    1    3    3    0  502  0.49795586832E+01  0.43175820356E+02 -0.51107747567E+02  0.67219206552E+02  0.41800000000E+01 0.  1.
        -11    1    1    2    0    0  0.84890053140E+02  0.20309484949E+02 -0.32869266834E+02  0.93269421587E+02  0.00000000000E+00 0. -1.
         11    1    1    2    0    0 -0.13999735898E+02 -0.89596583403E+01  0.17126901500E+02  0.23866269876E+02  0.00000000000E+00 0.  1.
</event>
<event>
 7    1  0.2564986E-009  0.1218290E+03  0.7561462E-02  0.1240110E+00
         -1   -1    0    0    0  501 -0.00000000000E+00  0.00000000000E+00  0.21166473481E+03  0.21166473481E+03  0.00000000000E+00 0.  1.
          1   -1    0    0  501    0  0.00000000000E+00 -0.00000000000E+00 -0.11188158577E+03  0.11188158577E+03  0.00000000000E+00 0. -1.
         25    2    1    2    0    0  0.80004428903E+02 -0.34019358163E+02 -0.15816058566E+02  0.15315126962E+03  0.12508852187E+03 0.  0.
          5    1    3    3  502    0  0.88987330146E+02  0.23704219861E+02  0.10924746285E+01  0.92191652911E+02  0.41800000000E+01 0.  1.
         -5    1    3    3    0  502 -0.89829012422E+01 -0.57723578024E+02 -0.16908533195E+02  0.60959616710E+02  0.41800000000E+01 0.  1.
        -11    1    1    2    0    0 -0.14388316647E+02  0.21862360921E+02 -0.10121388533E+02  0.28061165101E+02  0.00000000000E+00 0. -1.
         11    1    1    2    0    0 -0.65616112257E+02  0.12156997242E+02  0.12572059614E+03  0.14233388586E+03  0.00000000000E+00 0.  1.
</event>
<event>
 7    1  0.2564986E-009  0.1111421E+03  0.7561462E-02  0.1258469E+00
         -2   -1    0    0    0  501 -0.00000000000E+00  0.00000000000E+00  0.14365656583E+03  0.14365656583E+03  0.00000000000E+00 0.  1.
          2   -1    0    0  501    0  0.00000000000E+00 -0.00000000000E+00 -0.27803054102E+03  0.27803054102E+03  0.00000000000E+00 0. -1.
         25    2    1    2    0    0 -0.26846178947E+02  0.69536048729E+02  0.89128572730E+02  0.17072774183E+03  0.12509228576E+03 0.  0.
          5    1    3    3  502    0 -0.36514548417E+02 -0.54695875145E+01  0.87395032319E+02  0.94966271421E+02  0.41800000000E+01 0. -1.
         -5    1    3    3    0  502  0.96683694703E+01  0.75005636243E+02  0.17335404112E+01  0.75761470411E+02  0.41800000000E+01 0. -1.
        -11    1    1    2    0    0  0.51414488963E+02 -0.67332527651E+02 -0.13762927022E+03  0.16161353587E+03  0.00000000000E+00 0.  1.
         11    1    1    2    0    0 -0.24568310016E+02 -0.22035210779E+01 -0.85873277699E+02  0.89345829142E+02  0.00000000000E+00 0. -1.
</event>
<event>
 7    1  0.2564986E-009  0.1056556E+03  0.7561462E-02  0.1268833E+00
          1   -1    0    0  501    0  0.00000000000E+00  0.00000000000E+00  0.10288151499E+04  0.10288151499E+04  0.00000000000E+00 0. -1.
         -1   -1    0    0    0  501 -0.00000000000E+00 -0.00000000000E+00 -0.15623728573E+02  0.15623728573E+02  0.00000000000E+00 0.  1.
         25    2    1    2    0    0  0.26178452014E+02 -0.13569013692E+01  0.73765872649E+03  0.74864864324E+03  0.12508893526E+03 0.  0.
          5    1    3    3  502    0 -0.23737963461E+02  0.46001743746E+02  0.44300291397E+03  0.44603666387E+03  0.41800000000E+01 0.  1.
         -5    1    3    3    0  502  0.49916415475E+02 -0.47358645116E+02  0.29465581253E+03  0.30261197937E+03  0.41800000000E+01 0.  1.
        -11    1    1    2    0    0  0.31475653534E+02 -0.68362347708E+01  0.32042027881E+02  0.45432834184E+02  0.00000000000E+00 0.  1.
         11    1    1    2    0    0 -0.57654105548E+02  0.81931361399E+01  0.24349066697E+03  0.25035740106E+03  0.00000000000E+00 0. -1.
</event>
<event>
 7    1  0.2564986E-009  0.2562204E+03  0.7561462E-02  0.1109436E+00
          4   -1    0    0  501    0  0.00000000000E+00  0.00000000000E+00  0.42179633780E+02  0.42179633780E+02  0.00000000000E+00 0. -1.
         -4   -1    0    0    0  501 -0.00000000000E+00 -0.00000000000E+00 -0.18615544668E+04  0.18615544668E+04  0.00000000000E+00 0.  1.
         25    2    1    2    0    0 -0.24170636720E+03 -0.83070366161E+02 -0.10555375235E+04  0.10932195714E+04  0.12508762601E+03 0.  0.
          5    1    3    3  502    0 -0.22929041567E+03 -0.81128893053E+02 -0.10516499448E+04  0.10794170051E+04  0.41800000000E+01 0. -1.
         -5    1    3    3    0  502 -0.12415951531E+02 -0.19414731088E+01 -0.38875786809E+01  0.13802566365E+02  0.41800000000E+01 0. -1.
        -11    1    1    2    0    0  0.12455454290E+03  0.49953748024E+02 -0.26507776655E+03  0.29711181973E+03  0.00000000000E+00 0. -1.
         11    1    1    2    0    0  0.11715182430E+03  0.33116618137E+02 -0.49875954296E+03  0.51340270941E+03  0.00000000000E+00 0.  1.
</event>
<event>
 7    1  0.2564986E-009  0.1292489E+03  0.7561462E-02  0.1228574E+00
         -2   -1    0    0    0  501 -0.00000000000E+00  0.00000000000E+00  0.10773551444E+03  0.10773551444E+03  0.00000000000E+00 0.  1.
          2   -1    0    0  501    0  0.00000000000E+00 -0.00000000000E+00 -0.19344941255E+03  0.19344941255E+03  0.00000000000E+00 0. -1.
         25    2    1    2    0    0 -0.35106710239E+02  0.83707667853E+02 -0.13346373842E+02  0.15512884187E+03  0.12508947647E+03 0.  0.
          5    1    3    3  502    0  0.23025090084E+02  0.67075253815E+02  0.33483821948E+02  0.78535871931E+02  0.41800000000E+01 0. -1.
         -5    1    3    3    0  502 -0.58131800323E+02  0.16632414038E+02 -0.46830195791E+02  0.76592969934E+02  0.41800000000E+01 0. -1.
        -11    1    1    2    0    0  0.37304406005E+02 -0.10190549648E+03 -0.61028079040E+02  0.12450210983E+03  0.00000000000E+00 0.  1.
         11    1    1    2    0    0 -0.21976957663E+01  0.18197828626E+02 -0.11339445225E+02  0.21553975304E+02  0.00000000000E+00 0. -1.
</event>
<event>
 7    1  0.2564986E-009  0.7969703E+02  0.7561462E-02  0.1329913E+00
          1   -1    0    0  501    0  0.00000000000E+00  0.00000000000E+00  0.24107297165E+03  0.24107297165E+03  0.00000000000E+00 0. -1.
         -1   -1    0    0    0  501 -0.00000000000E+00 -0.00000000000E+00 -0.70000001763E+02  0.70000001763E+02  0.00000000000E+00 0.  1.
         25    2    1    2    0    0  0.59846213397E+02  0.21800511684E+02  0.15068735882E+03  0.20593909091E+03  0.12508955787E+03 0.  0.
          5    1    3    3  502    0  0.28757293005E+01  0.76740306369E+01 -0.21815445141E+02  0.23675865600E+02  0.41800000000E+01 0. -1.
         -5    1    3    3    0  502  0.56970484096E+02  0.14126481047E+02  0.17250280396E+03  0.18226322531E+03  0.41800000000E+01 0. -1.
        -11    1    1    2    0    0 -0.69272978669E+02 -0.18650059138E+01 -0.73650094993E+01  0.69688357605E+02  0.00000000000E+00 0.  1.
         11    1    1    2    0    0  0.94267652720E+01 -0.19935505770E+02  0.27750620570E+02  0.35445524905E+02  0.00000000000E+00 0. -1.
</event>
<event>
 7    1  0.2564986E-009  0.8590920E+02  0.7561462E-02  0.1313072E+00
         -3   -1    0    0    0  501 -0.00000000000E+00  0.00000000000E+00  0.24193443609E+02  0.24193443609E+02  0.00000000000E+00 0.  1.
          3   -1    0    0  501    0  0.00000000000E+00 -0.00000000000E+00 -0.50649994693E+03  0.50649994693E+03  0.00000000000E+00 0. -1.
         25    2    1    2    0    0 -0.23446484102E+02 -0.35764511495E+01 -0.28489171720E+03  0.31204295467E+03  0.12507992010E+03 0.  0.
          5    1    3    3  502    0 -0.55909201943E+02 -0.75703803442E+00 -0.50810333782E+02  0.75667525316E+02  0.41800000000E+01 0. -1.
         -5    1    3    3    0  502  0.32462717841E+02 -0.28194131151E+01 -0.23408138342E+03  0.23637542936E+03  0.41800000000E+01 0. -1.
        -11    1    1    2    0    0  0.52605960150E+02  0.86084319940E+01 -0.17054199235E+03  0.17867865933E+03  0.00000000000E+00 0. -1.
         11    1    1    2    0    0 -0.29159476047E+02 -0.50319808445E+01 -0.26872793771E+02  0.39971776539E+02  0.00000000000E+00 0.  1.
</event>
<event>
 7    1  0.2564986E-009  0.1294355E+03  0.7561462E-02  0.1228296E+00
         -1   -1    0    0    0  501 -0.00000000000E+00  0.00000000000E+00  0.12253304648E+03  0.12253304648E+03  0.00000000000E+00 0.  1.
          1   -1    0    0  501    0  0.00000000000E+00 -0.00000000000E+00 -0.22064830543E+03  0.22064830543E+03  0.00000000000E+00 0. -1.
         25    2    1    2    0    0  0.12284306715E+03 -0.23423925837E+02 -0.42045279585E+02  0.18180863538E+03  0.12508986736E+03 0.  0.
          5    1    3    3  502    0  0.30723155312E+02 -0.21547697194E+02 -0.74915364615E+02  0.83892787426E+02  0.41800000000E+01 0.  1.
         -5    1    3    3    0  502  0.92119911835E+02 -0.18762286426E+01  0.32870085030E+02  0.97915847953E+02  0.41800000000E+01 0.  1.
        -11    1    1    2    0    0 -0.59293160152E+02  0.27163505992E+02  0.13997947483E+02  0.66704403396E+02  0.00000000000E+00 0.  1.
         11    1    1    2    0    0 -0.63549906995E+02 -0.37395801559E+01 -0.70067926848E+02  0.94668313134E+02  0.00000000000E+00 0. -1.
</event>
<event>
 7    1  0.2564986E-009  0.1859851E+03  0.7561462E-02  0.1162133E+00
         -2   -1    0    0    0  501 -0.00000000000E+00  0.00000000000E+00  0.36510449297E+02  0.36510449297E+02  0.00000000000E+00 0.  1.
          2   -1    0    0  501    0  0.00000000000E+00 -0.00000000000E+00 -0.10838822269E+04  0.10838822269E+04  0.00000000000E+00 0. -1.
         25    2    1    2    0    0  0.16171122053E+03 -0.24176079396E+02 -0.45584507678E+03  0.50017728272E+03  0.12509028126E+03 0.  0.
          5    1    3    3  502    0  0.44589094884E+02  0.36747243528E+02 -0.24192375353E+03  0.24876318500E+03  0.41800000000E+01 0.  1.
         -5    1    3    3    0  502  0.11712212565E+03 -0.60923322924E+02 -0.21392132325E+03  0.25141409772E+03  0.41800000000E+01 0.  1.
        -11    1    1    2    0    0 -0.11851516939E+02 -0.22128688989E+02 -0.43913599048E+02  0.50582027554E+02  0.00000000000E+00 0.  1.
         11    1    1    2    0    0 -0.14985970359E+03  0.46304768385E+02 -0.54761310177E+03  0.56963336592E+03  0.00000000000E+00 0. -1.
</event>
<event>
 7    1  0.2564986E-009  0.1056705E+03  0.7561462E-02  0.1268804E+00
          1   -1    0    0  501    0  0.00000000000E+00  0.00000000000E+00  0.16411598418E+03  0.16411598418E+03  0.00000000000E+00 0. -1.
         -1   -1    0    0    0  501 -0.00000000000E+00 -0.00000000000E+00 -0.93181397849E+02  0.93181397849E+02  0.00000000000E+00 0.  1.
         25    2    1    2    0    0 -0.48677320906E+02  0.32112728403E+02  0.55883584961E+02  0.14890411898E+03  0.12509497466E+03 0.  0.
          5    1    3    3  502    0  0.16003252025E+02 -0.16829621559E+02  0.63098142761E+02  0.67366076456E+02  0.41800000000E+01 0. -1.
         -5    1    3    3    0  502 -0.64680572930E+02  0.48942349962E+02 -0.72145577996E+01  0.81538042524E+02  0.41800000000E+01 0. -1.
        -11    1    1    2    0    0  0.68293984252E+02 -0.46131654467E+02  0.17186767424E+02  0.84187782982E+02  0.00000000000E+00 0.  1.
         11    1    1    2    0    0 -0.19616663346E+02  0.14018926065E+02 -0.21357660506E+01  0.24205480071E+02  0.00000000000E+00 0. -1.
</event>
<event>
 7    1  0.2564986E-009  0.1496128E+03  0.7561462E-02  0.1200950E+00
          1   -1    0    0  501    0  0.00000000000E+00  0.00000000000E+00  0.68207237078E+02  0.68207237078E+02  0.00000000000E+00 0. -1.
         -1   -1    0    0    0  501 -0.00000000000E+00 -0.00000000000E+00 -0.35615292426E+03  0.35615292426E+03  0.00000000000E+00 0.  1.
         25    2    1    2    0    0 -0.10577735399E+03  0.46500576235E+02 -0.13445099606E+03  0.21696902954E+03  0.12508931701E+03 0.  0.
          5    1    3    3  502    0 -0.88389059652E+02  0.81712614302E+02 -0.13000878205E+03  0.17722678413E+03  0.41800000000E+01 0. -1.
         -5    1    3    3    0  502 -0.17388294341E+02 -0.35212038067E+02 -0.44422140035E+01  0.39742245409E+02  0.41800000000E+01 0. -1.
        -11    1    1    2    0    0  0.11753100496E+03 -0.34500997187E+02 -0.13825035418E+03  0.18470792177E+03  0.00000000000E+00 0. -1.
         11    1    1    2    0    0 -0.11753650966E+02 -0.11999579047E+02 -0.15244336953E+02  0.22683210035E+02  0.00000000000E+00 0.  1.
</event>
<event>
 7    1  0.2564986E-009  0.7022889E+02  0.7561462E-02  0.1359316E+00
          2   -1    0    0  501    0  0.00000000000E+00  0.00000000000E+00  0.33806529824E+03  0.33806529824E+03  0.00000000000E+00 0.  1.
         -2   -1    0    0    0  501 -0.00000000000E+00 -0.00000000000E+00 -0.42819018209E+02  0.42819018209E+02  0.00000000000E+00 0. -1.
         25    2    1    2    0    0  0.23440391231E+02 -0.34974284126E+02  0.11941544717E+03  0.17799859979E+03  0.12510315748E+03 0.  0.
          5    1    3    3  502    0  0.21139973722E+02 -0.29287575490E+02 -0.17868301045E+02  0.40514307957E+02  0.41800000000E+01 0. -1.
         -5    1    3    3    0  502  0.23004175089E+01 -0.56867086364E+01  0.13728374822E+03  0.13748429183E+03  0.41800000000E+01 0. -1.
        -11    1    1    2    0    0  0.20923678214E+02  0.46367442679E+02  0.12215135562E+03  0.13232042068E+03  0.00000000000E+00 0.  1.
         11    1    1    2    0    0 -0.44364069445E+02 -0.11393158553E+02  0.53679477242E+02  0.70565295978E+02  0.00000000000E+00 0. -1.
</event>
<event>
 7    1  0.2564986E-009  0.1094287E+03  0.7561462E-02  0.1261631E+00
          1   -1    0    0  501    0  0.00000000000E+00  0.00000000000E+00  0.19630829739E+03  0.19630829739E+03  0.00000000000E+00 0. -1.
         -1   -1    0    0    0  501 -0.00000000000E+00 -0.00000000000E+00 -0.95918420298E+02  0.95918420298E+02  0.00000000000E+00 0.  1.
         25    2    1    2    0    0  0.77257511684E+02 -0.35732504353E+02  0.46884936503E+02  0.15840124212E+03  0.12508885344E+03 0.  0.
          5    1    3    3  502    0 -0.25605177865E+01 -0.12177679196E+02  0.70565128674E+02  0.71775775208E+02  0.41800000000E+01 0.  1.
         -5    1    3    3    0  502  0.79818029470E+02 -0.23554825157E+02 -0.23680192170E+02  0.86625466913E+02  0.41800000000E+01 0.  1.
        -11    1    1    2    0    0  0.12262251467E+02  0.30337550177E+02  0.10500358432E+02  0.34365495617E+02  0.00000000000E+00 0.  1.
         11    1    1    2    0    0 -0.89519763151E+02  0.53949541759E+01  0.43004582156E+02  0.99459979950E+02  0.00000000000E+00 0. -1.
</event>
<event>
 7    1  0.2564986E-009  0.7940407E+02  0.7561462E-02  0.1330751E+00
          2   -1    0    0  501    0  0.00000000000E+00  0.00000000000E+00  0.18148821861E+03  0.18148821861E+03  0.00000000000E+00 0.  1.
         -2   -1    0    0    0  501 -0.00000000000E+00 -0.00000000000E+00 -0.80989997033E+02  0.80989997033E+02  0.00000000000E+00 0. -1.
         25    2    1    2    0    0  0.49581674525E+02  0.37023893669E+02  0.61615987902E+02  0.15255724177E+03  0.12509224957E+03 0.  0.
          5    1    3    3  502    0  0.27728291344E+02  0.70109443613E+01  0.96930091294E+02  0.10114804239E+03  0.41800000000E+01 0.  1.
         -5    1    3    3    0  502  0.21853383181E+02  0.30012949307E+02 -0.35314103392E+02  0.51409199381E+02  0.41800000000E+01 0.  1.
        -11    1    1    2    0    0 -0.64042158679E+02 -0.42739225143E+02  0.49098102886E+02  0.91316280920E+02  0.00000000000E+00 0.  1.
         11    1    1    2    0    0  0.14460484154E+02  0.57153314744E+01 -0.10215869214E+02  0.18604692946E+02  0.00000000000E+00 0. -1.
</event>
<event>
 7    1  0.2564986E-009  0.2339837E+03  0.7561462E-02  0.1123867E+00
         -2   -1    0    0    0  501 -0.00000000000E+00  0.00000000000E+00  0.61115606653E+02  0.61115606653E+02  0.00000000000E+00 0. -1.
          2   -1    0    0  501    0  0.00000000000E+00 -0.00000000000E+00 -0.11738190882E+04  0.11738190882E+04  0.00000000000E+00 0.  1.
         25    2    1    2    0    0  0.21062056667E+03  0.16526911422E+01 -0.28392305772E+03  0.37499815676E+03  0.12509020897E+03 0.  0.
          5    1    3    3  502    0  0.16892163779E+03 -0.46013195263E+02 -0.24281344349E+03  0.29937864752E+03  0.41800000000E+01 0. -1.
         -5    1    3    3    0  502  0.41698928875E+02  0.47665886405E+02 -0.41109614230E+02  0.75619509243E+02  0.41800000000E+01 0. -1.
        -11    1    1    2    0    0 -0.52938145705E+02 -0.40878284280E+02 -0.24422841127E+03  0.25322124372E+03  0.00000000000E+00 0. -1.
         11    1    1    2    0    0 -0.15768242096E+03  0.39225593138E+02 -0.58455201253E+03  0.60671529434E+03  0.00000000000E+00 0.  1.
</event>
<event>
 7    1  0.2564986E-009  0.1338838E+03  0.7561462E-02  0.1221804E+00
          2   -1    0    0  501    0  0.00000000000E+00  0.00000000000E+00  0.32195627968E+03  0.32195627968E+03  0.00000000000E+00 0. -1.
         -2   -1    0    0    0  501 -0.00000000000E+00 -0.00000000000E+00 -0.12312760079E+03  0.12312760079E+03  0.00000000000E+00 0.  1.
         25    2    1    2    0    0  0.46366231378E+02  0.77591248714E+02  0.26135483586E+03  0.30351455052E+03  0.12507798711E+03 0.  0.
          5    1    3    3  502    0  0.13247960036E+02 -0.27686275163E+02  0.16940586539E+02  0.35305724038E+02  0.41800000000E+01 0. -1.
         -5    1    3    3    0  502  0.33118271342E+02  0.10527752388E+03  0.24441424932E+03  0.26820882648E+03  0.41800000000E+01 0. -1.
        -11    1    1    2    0    0  0.81384423154E+01  0.16052522317E+02 -0.14222483793E+02  0.22938979082E+02  0.00000000000E+00 0.  1.
         11    1    1    2    0    0 -0.54504673693E+02 -0.93643771031E+02 -0.48303673176E+02  0.11863035088E+03  0.00000000000E+00 0. -1.
</event>
<event>
 7    1  0.2564986E-009  0.8897568E+02  0.7561462E-02  0.1305351E+00
         -1   -1    0    0    0  501 -0.00000000000E+00  0.00000000000E+00  0.11648637379E+03  0.11648637379E+03  0.00000000000E+00 0.  1.
          1   -1    0    0  501    0  0.00000000000E+00 -0.00000000000E+00 -0.12021747561E+03  0.12021747561E+03  0.00000000000E+00 0. -1.
         25    2    1    2    0    0  0.94115568354E+01  0.39001307346E+02  0.23234033197E+02  0.13340712052E+03  0.12509180680E+03 0.  0.
          5    1    3    3  502    0 -0.61349413394E+01  0.66226998768E+02  0.56598778835E+02  0.87433100349E+02  0.41800000000E+01 0. -1.
         -5    1    3    3    0  502  0.15546498175E+02 -0.27225691421E+02 -0.33364745638E+02  0.45974020168E+02  0.41800000000E+01 0. -1.
        -11    1    1    2    0    0  0.27572013048E+02 -0.24469780280E+01 -0.40969473023E+02  0.49443921009E+02  0.00000000000E+00 0. -1.
         11    1    1    2    0    0 -0.36983569884E+02 -0.36554329318E+02  0.14004337998E+02  0.53852807875E+02  0.00000000000E+00 0.  1.
</event>
<event>
 7    1  0.2564986E-009  0.1093347E+03  0.7561462E-02  0.1261807E+00
         -1   -1    0    0    0  501 -0.00000000000E+00  0.00000000000E+00  0.15678343348E+03  0.15678343348E+03  0.00000000000E+00 0.  1.
          1   -1    0    0  501    0  0.00000000000E+00 -0.00000000000E+00 -0.10400637684E+03  0.10400637684E+03  0.00000000000E+00 0. -1.
         25    2    1    2    0    0  0.47422916383E+02 -0.43748471626E+02  0.16467321054E+02  0.14170939425E+03  0.12509003952E+03 0.  0.
          5    1    3    3  502    0  0.75539708741E+02 -0.33161145121E+02 -0.28573931821E+02  0.87406241895E+02  0.41800000000E+01 0. -1.
         -5    1    3    3    0  502 -0.28116792358E+02 -0.10587326504E+02  0.45041252875E+02  0.54303152354E+02  0.41800000000E+01 0. -1.
        -11    1    1    2    0    0 -0.71462593510E+02  0.26817728455E+02  0.55537914850E+01  0.76530630668E+02  0.00000000000E+00 0. -1.
         11    1    1    2    0    0  0.24039677127E+02  0.16930743171E+02  0.30755944095E+02  0.42549785403E+02  0.00000000000E+00 0.  1.
</event>
<event>
 7    1  0.2564986E-009  0.2123926E+03  0.7561462E-02  0.1139685E+00
          2   -1    0    0  501    0  0.00000000000E+00  0.00000000000E+00  0.33678553482E+04  0.33678553482E+04  0.00000000000E+00 0. -1.
         -2   -1    0    0    0  501 -0.00000000000E+00 -0.00000000000E+00 -0.27052680096E+02  0.27052680096E+02  0.00000000000E+00 0.  1.
         25    2    1    2    0    0  0.18334628675E+03 -0.67830869087E+02  0.28411092228E+04  0.28505729964E+04  0.12509158323E+03 0.  0.
          5    1    3    3  502    0  0.17164752685E+03 -0.21027365620E+02  0.25085124611E+04  0.25144695789E+04  0.41800000000E+01 0.  1.
         -5    1    3    3    0  502  0.11698759902E+02 -0.46803503467E+02  0.33259676178E+03  0.33610341752E+03  0.41800000000E+01 0.  1.
        -11    1    1    2    0    0 -0.14930005458E+03  0.29635270248E+02  0.27933818909E+03  0.31811724163E+03  0.00000000000E+00 0.  1.
         11    1    1    2    0    0 -0.34046232168E+02  0.38195598839E+02  0.22035525622E+03  0.22621779028E+03  0.00000000000E+00 0. -1.
</event>
<event>
 7    1  0.2564986E-009  0.1859428E+03  0.7561462E-02  0.1162172E+00
         -1   -1    0    0    0  501 -0.00000000000E+00  0.00000000000E+00  0.69389515832E+02  0.69389515832E+02  0.00000000000E+00 0.  1.
          1   -1    0    0  501    0  0.00000000000E+00 -0.00000000000E+00 -0.51875278109E+03  0.51875278109E+03  0.00000000000E+00 0. -1.
         25    2    1    2    0    0 -0.15109601365E+03 -0.80509338599E+01 -0.19099180449E+03  0.27389843108E+03  0.12509060032E+03 0.  0.
          5    1    3    3  502    0 -0.17167602809E+03 -0.17339843932E+02 -0.16021147370E+03  0.23549632166E+03  0.41800000000E+01 0.  1.
         -5    1    3    3    0  502  0.20580014440E+02  0.92889100718E+01 -0.30780330783E+02  0.38402109418E+02  0.41800000000E+01 0.  1.
        -11    1    1    2    0    0  0.85424209159E+01 -0.28005773836E+02 -0.65218524125E+02  0.71489525193E+02  0.00000000000E+00 0. -1.
         11    1    1    2    0    0  0.14255359273E+03  0.36056707696E+02 -0.19315293664E+03  0.24275434065E+03  0.00000000000E+00 0.  1.
</event>
<event>
 7    1  0.2564986E-009  0.1199359E+03  0.7561462E-02  0.1243203E+00
          2   -1    0    0  501    0  0.00000000000E+00  0.00000000000E+00  0.16606355242E+04  0.16606355242E+04  0.00000000000E+00 0. -1.
         -2   -1    0    0    0  501 -0.00000000000E+00 -0.00000000000E+00 -0.14488367238E+02  0.14488367238E+02  0.00000000000E+00 0.  1.
         25    2    1    2    0    0  0.56626915610E+01  0.38764566357E+02  0.13797331254E+04  0.13859461643E+04  0.12509402586E+03 0.  0.
          5    1    3    3  502    0  0.58219008140E+02 -0.57124622920E+01  0.79461534050E+03  0.79677669199E+03  0.41800000000E+01 0.  1.
         -5    1    3    3    0  502 -0.52556316579E+02  0.44477028649E+02  0.58511778493E+03  0.58916947234E+03  0.41800000000E+01 0.  1.
        -11    1    1    2    0    0  0.46290303377E+02 -0.38633414673E+02  0.15194668168E+03  0.16347209851E+03  0.00000000000E+00 0.  1.
         11    1    1    2    0    0 -0.51952994938E+02 -0.13115168467E+00  0.11446734989E+03  0.12570562865E+03  0.00000000000E+00 0. -1.
</event>
<event>
 7    1  0.2564986E-009  0.1106184E+03  0.7561462E-02  0.1259429E+00
          2   -1    0    0  501    0  0.00000000000E+00  0.00000000000E+00  0.21973826983E+03  0.21973826983E+03  0.00000000000E+00 0. -1.
         -2   -1    0    0    0  501 -0.00000000000E+00 -0.00000000000E+00 -0.10567708781E+03  0.10567708781E+03  0.00000000000E+00 0.  1.
         25    2    1    2    0    0  0.30107311639E+02  0.89703502868E+01 -0.46928335373E+02  0.13724239872E+03  0.12508513080E+03 0.  0.
          5    1    3    3  502    0  0.60493370286E+02  0.45722547755E+02 -0.47116241771E+02  0.89372321556E+02  0.41800000000E+01 0.  1.
         -5    1    3    3    0  502 -0.30386058647E+02 -0.36752197468E+02  0.18790639841E+00  0.47870077164E+02  0.41800000000E+01 0.  1.
        -11    1    1    2    0    0 -0.36131980042E+02 -0.46795387141E+02  0.97305434112E+02  0.11385813869E+03  0.00000000000E+00 0.  1.
         11    1    1    2    0    0  0.60246684031E+01  0.37825036854E+02  0.63684083276E+02  0.74314820225E+02  0.00000000000E+00 0. -1.
</event>
<event>
 7    1  0.2564986E-009  0.1898763E+03  0.7561462E-02  0.1158573E+00
         -1   -1    0    0    0  501 -0.00000000000E+00  0.00000000000E+00  0.69744948881E+02  0.69744948881E+02  0.00000000000E+00 0.  1.
          1   -1    0    0  501    0  0.00000000000E+00 -0.00000000000E+00 -0.54423273394E+03  0.54423273394E+03  0.00000000000E+00 0. -1.
         25    2    1    2    0    0  0.10879528836E+02 -0.15918436956E+03 -0.29615786333E+03  0.35890755933E+03  0.12508848255E+03 0.  0.
          5    1    3    3  502    0  0.64654917525E+02 -0.54101851168E+02 -0.13170803534E+03  0.15643448352E+03  0.41800000000E+01 0. -1.
         -5    1    3    3    0  502 -0.53775388689E+02 -0.10508251840E+03 -0.16444982799E+03  0.20247307581E+03  0.41800000000E+01 0. -1.
        -11    1    1    2    0    0 -0.43826213261E+02  0.75610656587E+02 -0.57932761172E+02  0.10485186300E+03  0.00000000000E+00 0.  1.
         11    1    1    2    0    0  0.32946684425E+02  0.83573712977E+02 -0.12039716056E+03  0.15021826049E+03  0.00000000000E+00 0. -1.
</event>
<event>
 7    1  0.2564986E-009  0.9412642E+02  0.7561462E-02  0.1293156E+00
         -4   -1    0    0    0  501 -0.00000000000E+00  0.00000000000E+00  0.11405154879E+03  0.11405154879E+03  0.00000000000E+00 0.  1.
          4   -1    0    0  501    0  0.00000000000E+00 -0.00000000000E+00 -0.11889373887E+03  0.11889373887E+03  0.00000000000E+00 0. -1.
         25    2    1    2    0    0  0.41771805480E+01 -0.27399692686E+01 -0.47065043451E+02  0.13374379630E+03  0.12508928197E+03 0.  0.
          5    1    3    3  502    0  0.61889585174E+02 -0.19366156657E+02 -0.24199010087E+02  0.69342867448E+02  0.41800000000E+01 0.  1.
         -5    1    3    3    0  502 -0.57712404626E+02  0.16626187389E+02 -0.22866033364E+02  0.64400928849E+02  0.41800000000E+01 0.  1.
        -11    1    1    2    0    0  0.19050426163E+02  0.24636708605E+02  0.56279820547E+02  0.64321880793E+02  0.00000000000E+00 0.  1.
         11    1    1    2    0    0 -0.23227606711E+02 -0.21896739336E+02 -0.14056967173E+02  0.34879610565E+02  0.00000000000E+00 0. -1.
</event>
<event>
 7    1  0.2564986E-009  0.2150653E+03  0.7561462E-02  0.1137616E+00
          1   -1    0    0  501    0  0.00000000000E+00  0.00000000000E+00  0.86245420569E+03  0.86245420569E+03  0.00000000000E+00 0. -1.
         -1   -1    0    0    0  501 -0.00000000000E+00 -0.00000000000E+00 -0.60935337820E+02  0.60935337820E+02  0.00000000000E+00 0.  1.
         25    2    1    2    0    0  0.47371521171E+02 -0.18910743435E+03  0.30632754799E+03  0.38404393914E+03  0.12508995877E+03 0.  0.
          5    1    3    3  502    0  0.26643930215E+02  0.14331990900E+01  0.94779449235E+02  0.98552369197E+02  0.41800000000E+01 0. -1.
         -5    1    3    3    0  502  0.20727590956E+02 -0.19054063344E+03  0.21154809876E+03  0.28549156994E+03  0.41800000000E+01 0. -1.
        -11    1    1    2    0    0 -0.64426401076E+02  0.89051210379E+02  0.21768711012E+03  0.24386175825E+03  0.00000000000E+00 0.  1.
         11    1    1    2    0    0  0.17054879906E+02  0.10005622397E+03  0.27750420976E+03  0.29548384612E+03  0.00000000000E+00 0. -1.
</event>
<event>
 7    1  0.2564986E-009  0.1193617E+03  0.7561462E-02  0.1244154E+00
         -1   -1    0    0    0  501 -0.00000000000E+00  0.00000000000E+00  0.99745933842E+03  0.99745933842E+03  0.00000000000E+00 0.  1.
          1   -1    0    0  501    0  0.00000000000E+00 -0.00000000000E+00 -0.25829795066E+02  0.25829795066E+02  0.00000000000E+00 0. -1.
         25    2    1    2    0    0  0.12064893816E+02  0.49534681648E+02  0.86107376789E+03  0.87160311482E+03  0.12507881384E+03 0.  0.
          5    1    3    3  502    0  0.60272270043E+02 -0.66406978760E+01  0.40821198766E+03  0.41271218139E+03  0.41800000000E+01 0. -1.
         -5    1    3    3    0  502 -0.48207376227E+02  0.56175379524E+02  0.45286178023E+03  0.45889093342E+03  0.41800000000E+01 0. -1.
        -11    1    1    2    0    0 -0.46810662720E+02 -0.50738345702E+02  0.75856219878E+02  0.10256599808E+03  0.00000000000E+00 0.  1.
         11    1    1    2    0    0  0.34745768904E+02  0.12036640545E+01  0.34699555592E+02  0.49120020584E+02  0.00000000000E+00 0. -1.
</event>
<event>
 7    1  0.2564986E-009  0.2075772E+03  0.7561462E-02  0.1143499E+00
          1   -1    0    0  501    0  0.00000000000E+00  0.00000000000E+00  0.19559094385E+04  0.19559094385E+04  0.00000000000E+00 0. -1.
         -1   -1    0    0    0  501 -0.00000000000E+00 -0.00000000000E+00 -0.29290607300E+02  0.29290607300E+02  0.00000000000E+00 0.  1.
         25    2    1    2    0    0  0.31538091444E+02 -0.18660534193E+03  0.13993219611E+04  0.14175917043E+04  0.12509230272E+03 0.  0.
          5    1    3    3  502    0 -0.17569804916E+02 -0.14850519542E+03  0.11848179254E+04  0.11942250541E+04  0.41800000000E+01 0. -1.
         -5    1    3    3    0  502  0.49107896360E+02 -0.38100146513E+02  0.21450403571E+03  0.22336665012E+03  0.41800000000E+01 0. -1.
        -11    1    1    2    0    0  0.20746754707E+02  0.99724894742E+02  0.33597748767E+03  0.35107884397E+03  0.00000000000E+00 0. -1.
         11    1    1    2    0    0 -0.52284846151E+02  0.86880447188E+02  0.19131938237E+03  0.21652949755E+03  0.00000000000E+00 0.  1.
</event>
<event>
 7    1  0.2564986E-009  0.7617172E+02  0.7561462E-02  0.1340281E+00
          2   -1    0    0  501    0  0.00000000000E+00  0.00000000000E+00  0.10365924030E+03  0.10365924030E+03  0.00000000000E+00 0. -1.
         -2   -1    0    0    0  501 -0.00000000000E+00 -0.00000000000E+00 -0.13068799133E+03  0.13068799133E+03  0.00000000000E+00 0.  1.
         25    2    1    2    0    0  0.36815410984E+02  0.20399517560E+02 -0.26560562982E+01  0.13200891515E+03  0.12509110377E+03 0.  0.
          5    1    3    3  502    0 -0.16635499060E+02  0.25857388015E+02  0.48583263576E+02  0.57646771320E+02  0.41800000000E+01 0.  1.
         -5    1    3    3    0  502  0.53450910044E+02 -0.54578704552E+01 -0.51239319874E+02  0.74362143834E+02  0.41800000000E+01 0.  1.
        -11    1    1    2    0    0 -0.65893447590E+01 -0.33744636759E+02  0.25295023332E+02  0.42684402065E+02  0.00000000000E+00 0. -1.
         11    1    1    2    0    0 -0.30226066225E+02  0.13345119199E+02 -0.49667718069E+02  0.59653914407E+02  0.00000000000E+00 0.  1.
</event>
<event>
 7    1  0.2564986E-009  0.1269597E+03  0.7561462E-02  0.1232038E+00
         -2   -1    0    0    0  501 -0.00000000000E+00  0.00000000000E+00  0.38345176687E+02  0.38345176687E+02  0.00000000000E+00 0. -1.
          2   -1    0    0  501    0  0.00000000000E+00 -0.00000000000E+00 -0.79050970184E+03  0.79050970184E+03  0.00000000000E+00 0.  1.
         25    2    1    2    0    0 -0.52789117275E+00  0.75713129814E+02 -0.65859503364E+03  0.67463246262E+03  0.12509510220E+03 0.  0.
          5    1    3    3  502    0  0.58547345478E+02  0.52373525517E+02 -0.43920048103E+03  0.44618977215E+03  0.41800000000E+01 0.  1.
         -5    1    3    3    0  502 -0.59075236651E+02  0.23339604297E+02 -0.21939455261E+03  0.22844269047E+03  0.41800000000E+01 0.  1.
        -11    1    1    2    0    0  0.22463783163E+02  0.89187640934E+01  0.25326014913E+01  0.24301851313E+02  0.00000000000E+00 0.  1.
         11    1    1    2    0    0 -0.21935891990E+02 -0.84631893908E+02 -0.96102093004E+02  0.12992056459E+03  0.00000000000E+00 0. -1.
</event>
<event>
 7    1  0.2564986E-009  0.1066147E+03  0.7561462E-02  0.1266971E+00
         -1   -1    0    0    0  501 -0.00000000000E+00  0.00000000000E+00  0.34763512501E+03  0.34763512501E+03  0.00000000000E+00 0.  1.
          1   -1    0    0  501    0  0.00000000000E+00 -0.00000000000E+00 -0.49440086455E+02  0.49440086455E+02  0.00000000000E+00 0. -1.
         25    2    1    2    0    0  0.14020432255E+02  0.36657915626E+02  0.70877791836E+02  0.14903956189E+03  0.12509498125E+03 0.  0.
          5    1    3    3  502    0 -0.45124838227E+02  0.36859508102E+02  0.24081556551E+01  0.58464912351E+02  0.41800000000E+01 0. -1.
         -5    1    3    3    0  502  0.59145270483E+02 -0.20159247571E+00  0.68469636181E+02  0.90574649537E+02  0.41800000000E+01 0. -1.
        -11    1    1    2    0    0 -0.75517320732E+01 -0.65514425092E+02  0.18504991109E+03  0.19645009073E+03  0.00000000000E+00 0.  1.
         11    1    1    2    0    0 -0.64687001822E+01  0.28856509465E+02  0.42267335629E+02  0.51585558849E+02  0.00000000000E+00 0. -1.
</event>
<event>
 7    1  0.2564986E-009  0.1856787E+03  0.7561462E-02  0.1162418E+00
         -3   -1    0    0    0  501 -0.00000000000E+00  0.00000000000E+00  0.44500390004E+03  0.44500390004E+03  0.00000000000E+00 0.  1.
          3   -1    0    0  501    0  0.00000000000E+00 -0.00000000000E+00 -0.96855867958E+02  0.96855867958E+02  0.00000000000E+00 0. -1.
         25    2    1    2    0    0 -0.37396710467E+02 -0.17076946500E+03  0.20590187666E+03  0.29766343145E+03  0.12508881437E+03 0.  0.
          5    1    3    3  502    0 -0.91347545009E+01 -0.12115478720E+03  0.49766922503E+02  0.13136264757E+03  0.41800000000E+01 0.  1.
         -5    1    3    3    0  502 -0.28261955966E+02 -0.49614677795E+02  0.15613495416E+03  0.16630078388E+03  0.41800000000E+01 0.  1.
        -11    1    1    2    0    0  0.62984920608E+02  0.12889376505E+03  0.13004041260E+03  0.19362647495E+03  0.00000000000E+00 0. -1.
         11    1    1    2    0    0 -0.25588210141E+02  0.41875699946E+02  0.12205742821E+02  0.50569861598E+02  0.00000000000E+00 0.  1.
</event>
<event>
 7    1  0.2564986E-009  0.2188837E+03  0.7561462E-02  0.1134718E+00
         -2   -1    0    0    0  501 -0.00000000000E+00  0.00000000000E+00  0.33489422873E+02  0.33489422873E+02  0.00000000000E+00 0.  1.
          2   -1    0    0  501    0  0.00000000000E+00 -0.00000000000E+00 -0.17950923440E+04  0.17950923440E+04  0.00000000000E+00 0. -1.
         25    2    1    2    0    0  0.18543242415E+03  0.79775644644E+02 -0.12226209614E+04  0.12454712440E+04  0.12508903697E+03 0.  0.
          5    1    3    3  502    0  0.60191030145E+02 -0.31708339701E+02 -0.29133113539E+03  0.29919839866E+03  0.41800000000E+01 0.  1.
         -5    1    3    3    0  502  0.12524139401E+03  0.11148398435E+03 -0.93128982598E+03  0.94627284538E+03  0.41800000000E+01 0.  1.
        -11    1    1    2    0    0 -0.13926231726E+03 -0.58652314953E+02 -0.48919049412E+03  0.51199748690E+03  0.00000000000E+00 0. -1.
         11    1    1    2    0    0 -0.46170106894E+02 -0.21123329691E+02 -0.49791465650E+02  0.71113035932E+02  0.00000000000E+00 0.  1.
</event>
<event>
 7    1  0.2564986E-009  0.1095179E+03  0.7561462E-02  0.1261465E+00
         -2   -1    0    0    0  501 -0.00000000000E+00  0.00000000000E+00  0.33018283867E+02  0.33018283867E+02  0.00000000000E+00 0.  1.
          2   -1    0    0  501    0  0.00000000000E+00 -0.00000000000E+00 -0.72499669858E+03  0.72499669858E+03  0.00000000000E+00 0. -1.
         25    2    1    2    0    0  0.97826444033E+02  0.13603356268E+02 -0.25330702739E+03  0.29927537160E+03  0.12508490505E+03 0.  0.
          5    1    3    3  502    0  0.14213556387E+02 -0.44215104865E+01  0.12583456340E+02  0.19934661111E+02  0.41800000000E+01 0. -1.
         -5    1    3    3    0  502  0.83612887646E+02  0.18024866755E+02 -0.26589048373E+03  0.27934071049E+03  0.41800000000E+01 0. -1.
        -11    1    1    2    0    0 -0.33849934465E+02 -0.36694211852E+02 -0.30178678742E+03  0.30588813039E+03  0.00000000000E+00 0. -1.
         11    1    1    2    0    0 -0.63976509569E+02  0.23090855584E+02 -0.13688459990E+03  0.15285148046E+03  0.00000000000E+00 0.  1.
</event>
<event>
 7    1  0.2564986E-009  0.9354804E+02  0.7561462E-02  0.1294480E+00
          3   -1    0    0  501    0  0.00000000000E+00  0.00000000000E+00  0.16136613755E+03  0.16136613755E+03  0.00000000000E+00 0. -1.
         -3   -1    0    0    0  501 -0.00000000000E+00 -0.00000000000E+00 -0.28067150491E+03  0.28067150491E+03  0.00000000000E+00 0.  1.
         25    2    1    2    0    0 -0.68097753893E+02  0.53751582477E+02  0.10397175085E+03  0.18434545781E+03  0.12508631475E+03 0.  0.
          5    1    3    3  502    0 -0.33826420553E+01  0.26002296587E+02  0.11036936090E+03  0.11351841226E+03  0.41800000000E+01 0. -1.
         -5    1    3    3    0  502 -0.64715111838E+02  0.27749285890E+02 -0.63976100537E+01  0.70827045555E+02  0.41800000000E+01 0. -1.
        -11    1    1    2    0    0  0.56900333054E+02 -0.31357965419E+02 -0.22339937369E+03  0.23265478732E+03  0.00000000000E+00 0.  1.
         11    1    1    2    0    0  0.11197420839E+02 -0.22393617058E+02  0.12225548573E+00  0.25037397325E+02  0.00000000000E+00 0. -1.
</event>
<event>
 7    1  0.2564986E-009  0.2151342E+03  0.7561462E-02  0.1137564E+00
          2   -1    0    0  501    0  0.00000000000E+00  0.00000000000E+00  0.31314501063E+03  0.31314501063E+03  0.00000000000E+00 0. -1.
         -2   -1    0    0    0  501 -0.00000000000E+00 -0.00000000000E+00 -0.17160412938E+03  0.17160412938E+03  0.00000000000E+00 0.  1.
         25    2    1    2    0    0  0.13773930682E+03 -0.13647582198E+03  0.16880641657E+01  0.23075602686E+03  0.12509087794E+03 0.  0.
          5    1    3    3  502    0 -0.22189155183E+02 -0.96594331643E+01 -0.94228503738E+01  0.26304481860E+02  0.41800000000E+01 0.  1.
         -5    1    3    3    0  502  0.15992846200E+03 -0.12681638881E+03  0.11110914539E+02  0.20445154500E+03  0.41800000000E+01 0.  1.
        -11    1    1    2    0    0 -0.80022256858E+02  0.40799598957E+02  0.23865197037E+02  0.92939316209E+02  0.00000000000E+00 0.  1.
         11    1    1    2    0    0 -0.57717049964E+02  0.95676223019E+02  0.11598762004E+03  0.16105379695E+03  0.00000000000E+00 0. -1.
</event>
<event>
 7    1  0.2564986E-009  0.3109069E+03  0.7561462E-02  0.1079912E+00
         -1   -1    0    0    0  501 -0.00000000000E+00  0.00000000000E+00  0.31304322154E+03  0.31304322154E+03  0.00000000000E+00 0.  1.
          1   -1    0    0  501    0  0.00000000000E+00 -0.00000000000E+00 -0.32841143411E+03  0.32841143411E+03  0.00000000000E+00 0. -1.
         25    2    1    2    0    0 -0.29115076630E+03 -0.64787302146E+02 -0.49061320069E+02  0.32714008932E+03  0.12508981444E+03 0.  0.
          5    1    3    3  502    0 -0.48294931220E+01  0.22071469362E+02 -0.11063335270E+02  0.25501834266E+02  0.41800000000E+01 0.  1.
         -5    1    3    3    0  502 -0.28632127318E+03 -0.86858771509E+02 -0.37997984799E+02  0.30163825506E+03  0.41800000000E+01 0.  1.
        -11    1    1    2    0    0  0.10436212073E+03  0.94553792330E+01 -0.30602910995E+02  0.10916682006E+03  0.00000000000E+00 0. -1.
         11    1    1    2    0    0  0.18678864557E+03  0.55331922913E+02  0.64296018493E+02  0.20514774627E+03  0.00000000000E+00 0.  1.
</event>
<event>
 7    1  0.2564986E-009  0.8881832E+02  0.7561462E-02  0.1305739E+00
         -3   -1    0    0    0  501 -0.00000000000E+00  0.00000000000E+00  0.94840193014E+02  0.94840193014E+02  0.00000000000E+00 0.  1.
          3   -1    0    0  501    0  0.00000000000E+00 -0.00000000000E+00 -0.14108675904E+03  0.14108675904E+03  0.00000000000E+00 0. -1.
         25    2    1    2    0    0  0.32276443755E+02  0.24031192901E+02 -0.40526903555E+02  0.13751206731E+03  0.12509145331E+03 0.  0.
          5    1    3    3  502    0 -0.22051484389E+02 -0.21565108177E+02  0.25714243091E+02  0.40373463465E+02  0.41800000000E+01 0.  1.
         -5    1    3    3    0  502  0.54327928143E+02  0.45596301078E+02 -0.66241146646E+02  0.97138603847E+02  0.41800000000E+01 0.  1.
        -11    1    1    2    0    0  0.27951152293E+01 -0.37712653608E+02  0.28647072027E+02  0.47441665727E+02  0.00000000000E+00 0.  1.
         11    1    1    2    0    0 -0.35071558984E+02  0.13681460707E+02 -0.34366734499E+02  0.50973219015E+02  0.00000000000E+00 0. -1.
</event>
<event>
 7    1  0.2564986E-009  0.1096469E+03  0.7561462E-02  0.1261225E+00
          1   -1    0    0  501    0  0.00000000000E+00  0.00000000000E+00  0.61167597072E+03  0.61167597072E+03  0.00000000000E+00 0. -1.
         -1   -1    0    0    0  501 -0.00000000000E+00 -0.00000000000E+00 -0.27868776154E+02  0.27868776154E+02  0.00000000000E+00 0.  1.
         25    2    1    2    0    0 -0.57363747096E+02  0.43463937034E+02  0.30583053126E+03  0.33817072946E+03  0.12508962829E+03 0.  0.
          5    1    3    3  502    0 -0.11145913330E+02  0.67987769611E+02  0.77041278135E+02  0.10343789991E+03  0.41800000000E+01 0. -1.
         -5    1    3    3    0  502 -0.46217833766E+02 -0.24523832577E+02  0.22878925313E+03  0.23473282955E+03  0.41800000000E+01 0. -1.
        -11    1    1    2    0    0  0.22817568075E+02 -0.56442529501E+02  0.82990363707E+02  0.10292619209E+03  0.00000000000E+00 0.  1.
         11    1    1    2    0    0  0.34546179020E+02  0.12978592467E+02  0.19498629960E+03  0.19844782533E+03  0.00000000000E+00 0. -1.
</event>
<event>
 7    1  0.2564986E-009  0.1317088E+03  0.7561462E-02  0.1224942E+00
         -3   -1    0    0    0  501 -0.00000000000E+00  0.00000000000E+00  0.22810533296E+03  0.22810533296E+03  0.00000000000E+00 0.  1.
          3   -1    0    0  501    0  0.00000000000E+00 -0.00000000000E+00 -0.12208489490E+03  0.12208489490E+03  0.00000000000E+00 0. -1.
         25    2    1    2    0    0 -0.84810356964E+02 -0.90089583118E+02  0.76956234174E+02  0.19203900756E+03  0.12509112203E+03 0.  0.
          5    1    3    3  502    0 -0.68332859444E+02 -0.59118228887E+02 -0.16662826171E+02  0.91975359975E+02  0.41800000000E+01 0.  1.
         -5    1    3    3    0  502 -0.16477497520E+02 -0.30971354231E+02  0.93619060345E+02  0.10006364758E+03  0.41800000000E+01 0.  1.
        -11    1    1    2    0    0  0.44187979170E+02  0.86149791443E+02  0.53462897813E+02  0.11060129073E+03  0.00000000000E+00 0.  1.
         11    1    1    2    0    0  0.40622377794E+02  0.39397916749E+01 -0.24398693927E+02  0.47549929563E+02  0.00000000000E+00 0. -1.
</event>
<event>
 7    1  0.2564986E-009  0.1194738E+03  0.7561462E-02  0.1243968E+00
          1   -1    0    0  501    0  0.00000000000E+00  0.00000000000E+00  0.97075564380E+02  0.97075564380E+02  0.00000000000E+00 0. -1.
         -1   -1    0    0    0  501 -0.00000000000E+00 -0.00000000000E+00 -0.15659333676E+03  0.15659333676E+03  0.00000000000E+00 0.  1.
         25    2    1    2    0    0  0.37822485254E+02 -0.42326180580E+02 -0.48728274074E+02  0.14575244370E+03  0.12508910503E+03 0.  0.
          5    1    3    3  502    0 -0.32828077507E+02 -0.54293476506E+02 -0.35309011244E+02  0.72730069015E+02  0.41800000000E+01 0. -1.
         -5    1    3    3    0  502  0.70650562761E+02  0.11967295925E+02 -0.13419262830E+02  0.73022374688E+02  0.41800000000E+01 0. -1.
        -11    1    1    2    0    0 -0.91636421221E+01 -0.27029827628E+02 -0.15949974859E+02  0.32695345488E+02  0.00000000000E+00 0.  1.
         11    1    1    2    0    0 -0.28658843132E+02  0.69356008209E+02  0.51604765551E+01  0.75221111947E+02  0.00000000000E+00 0. -1.
</event>
<event>
 7    1  0.2564986E-009  0.1074163E+03  0.7561462E-02  0.1265431E+00
         -2   -1    0    0    0  501 -0.00000000000E+00  0.00000000000E+00  0.51369207735E+02  0.51369207735E+02  0.00000000000E+00 0.  1.
          2   -1    0    0  501    0  0.00000000000E+00 -0.00000000000E+00 -0.29695240482E+03  0.29695240482E+03  0.00000000000E+00 0. -1.
         25    2    1    2    0    0 -0.47788854561E+02 -0.35173234493E+02 -0.12766227645E+03  0.18832392945E+03  0.12508922627E+03 0.  0.
          5    1    3    3  502    0  0.28887274625E+02  0.26291215675E+02 -0.45932952315E+02  0.60440145312E+02  0.41800000000E+01 0.  1.
         -5    1    3    3    0  502 -0.76676129186E+02 -0.61464450168E+02 -0.81729324140E+02  0.12788378414E+03  0.41800000000E+01 0.  1.
        -11    1    1    2    0    0 -0.72939394989E+01  0.18111792540E+02 -0.96543386809E+02  0.98498041194E+02  0.00000000000E+00 0. -1.
         11    1    1    2    0    0  0.55082794060E+02  0.17061441953E+02 -0.21377533823E+02  0.61499641912E+02  0.00000000000E+00 0.  1.
</event>
<event>
 7    1  0.2893598E-009  0.1133353E+03  0.7561462E-02  0.1254515E+00
         -1   -1    0    0    0  501 -0.00000000000E+00  0.00000000000E+00  0.28687548220E+03  0.28687548220E+03  0.00000000000E+00 0.  1.
          1   -1    0    0  501    0  0.00000000000E+00 -0.00000000000E+00 -0.69979586148E+02  0.69979586148E+02  0.00000000000E+00 0. -1.
         25    2    1    2    0    0 -0.33723595484E+02  0.71028364260E+02  0.17564471426E+03  0.22952386349E+03  0.12509128204E+03 0.  0.
          5    1    3    3  502    0 -0.35279780098E+02  0.88965326372E+02  0.61379688452E+02  0.11377359419E+03  0.41800000000E+01 0.  1.
         -5    1    3    3    0  502  0.15561846134E+01 -0.17936962112E+02  0.11426502580E+03  0.11575026930E+03  0.41800000000E+01 0.  1.
        -11    1    1    2    0    0  0.59763660331E+02 -0.57970526323E+02  0.49743334515E+02  0.96988021668E+02  0.00000000000E+00 0.  1.
         11    1    1    2    0    0 -0.26040064846E+02 -0.13057837936E+02 -0.84921527167E+01  0.30343183197E+02  0.00000000000E+00 0. -1.
</event>
<event>
 7    1  0.2564986E-009  0.1288694E+03  0.7561462E-02  0.1229143E+00
         -1   -1    0    0    0  501 -0.00000000000E+00  0.00000000000E+00  0.67042796100E+02  0.67042796100E+02  0.00000000000E+00 0.  1.
          1   -1    0    0  501    0  0.00000000000E+00 -0.00000000000E+00 -0.25456037756E+03  0.25456037756E+03  0.00000000000E+00 0. -1.
         25    2    1    2    0    0  0.49018984596E+02  0.54564097796E+02 -0.10420942540E+03  0.17857258308E+03  0.12509381066E+03 0.  0.
          5    1    3    3  502    0 -0.40845951526E+02  0.10231496494E+02 -0.46461482182E+02  0.62842795953E+02  0.41800000000E+01 0. -1.
         -5    1    3    3    0  502  0.89864936122E+02  0.44332601302E+02 -0.57747943222E+02  0.11572978713E+03  0.41800000000E+01 0. -1.
        -11    1    1    2    0    0 -0.54008610711E+02  0.60193829665E+01 -0.49312408386E+02  0.73381718589E+02  0.00000000000E+00 0. -1.
         11    1    1    2    0    0  0.49896261156E+01 -0.60583480763E+02 -0.33995747675E+02  0.69648871994E+02  0.00000000000E+00 0.  1.
</event>
<event>
 7    1  0.2637717E-009  0.1014268E+03  0.7561462E-02  0.1277324E+00
         -2   -1    0    0    0  501 -0.00000000000E+00  0.00000000000E+00  0.71729155905E+02  0.71729155905E+02  0.00000000000E+00 0. -1.
          2   -1    0    0  501    0  0.00000000000E+00 -0.00000000000E+00 -0.22051051390E+03  0.22051051390E+03  0.00000000000E+00 0.  1.
         25    2    1    2    0    0 -0.50023571275E+02 -0.32361066433E+02 -0.10859368710E+03  0.17603937647E+03  0.12509067465E+03 0.  0.
          5    1    3    3  502    0 -0.79777801198E+02 -0.22603782709E+02 -0.25046832965E+02  0.86719345006E+02  0.41800000000E+01 0.  1.
         -5    1    3    3    0  502  0.29754229923E+02 -0.97572837240E+01 -0.83546854136E+02  0.89320031460E+02  0.41800000000E+01 0.  1.
        -11    1    1    2    0    0  0.65404727618E+02  0.19671378971E+02  0.32795718522E+01  0.68377606984E+02  0.00000000000E+00 0. -1.
         11    1    1    2    0    0 -0.15381156342E+02  0.12689687462E+02 -0.43467242749E+02  0.47822686358E+02  0.00000000000E+00 0.  1.
</event>
<event>
 7    1  0.2564986E-009  0.6396175E+02  0.7561462E-02  0.1381920E+00
         -2   -1    0    0    0  501 -0.00000000000E+00  0.00000000000E+00  0.28862542935E+03  0.28862542935E+03  0.00000000000E+00 0.  1.
          2   -1    0    0  501    0  0.00000000000E+00 -0.00000000000E+00 -0.44685310058E+02  0.44685310058E+02  0.00000000000E+00 0. -1.
         25    2    1    2    0    0  0.45649055919E+01 -0.30879190502E+02  0.13694708470E+03  0.18807327471E+03  0.12507073953E+03 0.  0.
          5    1    3    3  502    0 -0.11908917541E+02 -0.93324811154E+01 -0.21860316950E+02  0.26912141831E+02  0.41800000000E+01 0. -1.
         -5    1    3    3    0  502  0.16473823133E+02 -0.21546709387E+02  0.15880740165E+03  0.16116113288E+03  0.41800000000E+01 0. -1.
        -11    1    1    2    0    0  0.17556163297E+01  0.57447278239E+02  0.32793188515E+02  0.66171483124E+02  0.00000000000E+00 0. -1.
         11    1    1    2    0    0 -0.63205219215E+01 -0.26568087737E+02  0.74199846076E+02  0.79065981566E+02  0.00000000000E+00 0.  1.
</event>
<event>
 7    1  0.2564986E-009  0.1025989E+03  0.7561462E-02  0.1274924E+00
          1   -1    0    0  501    0  0.00000000000E+00  0.00000000000E+00  0.36271674851E+03  0.36271674851E+03  0.00000000000E+00 0. -1.
         -1   -1    0    0    0  501 -0.00000000000E+00 -0.00000000000E+00 -0.57152339032E+02  0.57152339032E+02  0.00000000000E+00 0.  1.
         25    2    1    2    0    0 -0.10999352226E+01  0.82425432137E+02  0.23680316041E+03  0.28021189426E+03  0.12509119547E+03 0.  0.
          5    1    3    3  502    0  0.12953139358E+02 -0.74870563135E+01  0.16086267530E+03  0.16161099138E+03  0.41800000000E+01 0. -1.
         -5    1    3    3    0  502 -0.14053074580E+02  0.89912488451E+02  0.75940485112E+02  0.11860090288E+03  0.41800000000E+01 0. -1.
        -11    1    1    2    0    0  0.26091382057E+02 -0.58092321165E+02  0.12816105965E+01  0.63695529841E+02  0.00000000000E+00 0.  1.
         11    1    1    2    0    0 -0.24991446835E+02 -0.24333110972E+02  0.67479638467E+02  0.75961663437E+02  0.00000000000E+00 0. -1.
</event>
<event>
 7    1  0.2564986E-009  0.1027414E+03  0.7561462E-02  0.1274635E+00
         -1   -1    0    0    0  501 -0.00000000000E+00  0.00000000000E+00  0.69163851407E+02  0.69163851407E+02  0.00000000000E+00 0.  1.
          1   -1    0    0  501    0  0.00000000000E+00 -0.00000000000E+00 -0.21150347061E+03  0.21150347061E+03  0.00000000000E+00 0. -1.
         25    2    1    2    0    0  0.15194426469E+02 -0.52484211801E+02 -0.82833369061E+02  0.15967092799E+03  0.12509186676E+03 0.  0.
          5    1    3    3  502    0  0.24477281989E+02  0.19378297982E+02 -0.81175078582E+02  0.87071933187E+02  0.41800000000E+01 0.  1.
         -5    1    3    3    0  502 -0.92828555201E+01 -0.71862509783E+02 -0.16582904790E+01  0.72598994802E+02  0.41800000000E+01 0.  1.
        -11    1    1    2    0    0 -0.46166984040E+02  0.53180629303E+02 -0.55688141375E+02  0.89781617485E+02  0.00000000000E+00 0. -1.
         11    1    1    2    0    0  0.30972557571E+02 -0.69641750137E+00 -0.38181087638E+01  0.31214776539E+02  0.00000000000E+00 0.  1.
</event>
<event>
 7    1  0.2564986E-009  0.1382034E+03  0.7561462E-02  0.1215767E+00
         -2   -1    0    0    0  501 -0.00000000000E+00  0.00000000000E+00  0.26250846772E+02  0.26250846772E+02  0.00000000000E+00 0.  1.
          2   -1    0    0  501    0  0.00000000000E+00 -0.00000000000E+00 -0.84524242769E+03  0.84524242769E+03  0.00000000000E+00 0. -1.
         25    2    1    2    0    0  0.56176424055E+02 -0.63858354807E+02 -0.28302102825E+03  0.32090687173E+03  0.12508652124E+03 0.  0.
          5    1    3    3  502    0  0.34960617066E+02 -0.10126545613E+03 -0.21638317102E+03  0.24148723869E+03  0.41800000000E+01 0. -1.
         -5    1    3    3    0  502  0.21215806989E+02  0.37407101325E+02 -0.66637857231E+02  0.79419633039E+02  0.41800000000E+01 0. -1.
        -11    1    1    2    0    0 -0.79782188296E+02  0.31143535351E+02 -0.35849473121E+03  0.36858321946E+03  0.00000000000E+00 0.  1.
         11    1    1    2    0    0  0.23605764240E+02  0.32714819457E+02 -0.17747582146E+03  0.18200318327E+03  0.00000000000E+00 0. -1.
</event>
<event>
 7    1  0.2564986E-009  0.1399721E+03  0.7561462E-02  0.1213367E+00
         -2   -1    0    0    0  501 -0.00000000000E+00  0.00000000000E+00  0.24142496649E+02  0.24142496649E+02  0.00000000000E+00 0.  1.
          2   -1    0    0  501    0  0.00000000000E+00 -0.00000000000E+00 -0.10521493462E+04  0.10521493462E+04  0.00000000000E+00 0. -1.
         25    2    1    2    0    0  0.93074538524E+02  0.25709109859E+02 -0.77273903479E+03  0.78873130990E+03  0.12509050832E+03 0.  0.
          5    1    3    3  502    0  0.15509609473E+01  0.58204481702E+02 -0.22599548362E+03  0.23341293492E+03  0.41800000000E+01 0.  1.
         -5    1    3    3    0  502  0.91523577577E+02 -0.32495371843E+02 -0.54674355117E+03  0.55531837498E+03  0.41800000000E+01 0.  1.
        -11    1    1    2    0    0 -0.63760202291E+01  0.23717942079E+02 -0.10010904079E+03  0.10307771078E+03  0.00000000000E+00 0. -1.
         11    1    1    2    0    0 -0.86698518295E+02 -0.49427051938E+02 -0.15515877395E+03  0.18448282216E+03  0.00000000000E+00 0.  1.
</event>
<event>
 7    1  0.2564986E-009  0.1375431E+03  0.7561462E-02  0.1216674E+00
         -2   -1    0    0    0  501 -0.00000000000E+00  0.00000000000E+00  0.32692475445E+02  0.32692475445E+02  0.00000000000E+00 0.  1.
          2   -1    0    0  501    0  0.00000000000E+00 -0.00000000000E+00 -0.66674241628E+03  0.66674241628E+03  0.00000000000E+00 0. -1.
         25    2    1    2    0    0  0.38929820690E+02  0.92035545613E+02 -0.37856725246E+03  0.41103069389E+03  0.12508794545E+03 0.  0.
          5    1    3    3  502    0 -0.27927594858E+02 -0.46921586517E+01 -0.16252633767E+03  0.16502802715E+03  0.41800000000E+01 0. -1.
         -5    1    3    3    0  502  0.66857415548E+02  0.96727704264E+02 -0.21604091479E+03  0.24600266675E+03  0.41800000000E+01 0. -1.
        -11    1    1    2    0    0 -0.45715203849E+02 -0.10480482568E+03 -0.19350817830E+03  0.22476509163E+03  0.00000000000E+00 0.  1.
         11    1    1    2    0    0  0.67853831591E+01  0.12769280063E+02 -0.61974510081E+02  0.63639106198E+02  0.00000000000E+00 0. -1.
</event>
<event>
 7    1  0.2564986E-009  0.3689467E+03  0.7561462E-02  0.1055096E+00
          2   -1    0    0  501    0  0.00000000000E+00  0.00000000000E+00  0.79669723894E+03  0.79669723894E+03  0.00000000000E+00 0. -1.
         -2   -1    0    0    0  501 -0.00000000000E+00 -0.00000000000E+00 -0.18249477433E+03  0.18249477433E+03  0.00000000000E+00 0.  1.
         25    2    1    2    0    0 -0.28884274077E+03 -0.20840370698E+03  0.20722178252E+03  0.43064065863E+03  0.12509306831E+03 0.  0.
          5    1    3    3  502    0 -0.13325609059E+03 -0.23167468201E+02  0.66977183922E+02  0.15098785656E+03  0.41800000000E+01 0. -1.
         -5    1    3    3    0  502 -0.15558665018E+03 -0.18523623878E+03  0.14024459859E+03  0.27965280207E+03  0.41800000000E+01 0. -1.
        -11    1    1    2    0    0  0.16314265470E+03  0.82883427003E+02  0.26027466747E+03  0.31816362266E+03  0.00000000000E+00 0.  1.
         11    1    1    2    0    0  0.12570008607E+03  0.12552027998E+03  0.14670601462E+03  0.23038773199E+03  0.00000000000E+00 0. -1.
</event>
<event>
 7    1  0.2564986E-009  0.1601519E+03  0.7561462E-02  0.1188525E+00
          2   -1    0    0  501    0  0.00000000000E+00  0.00000000000E+00  0.14799201746E+03  0.14799201746E+03  0.00000000000E+00 0. -1.
         -2   -1    0    0    0  501 -0.00000000000E+00 -0.00000000000E+00 -0.21140579521E+03  0.21140579521E+03  0.00000000000E+00 0.  1.
         25    2    1    2    0    0 -0.12627023716E+03  0.46986325260E+02  0.82581162625E+01  0.18402984804E+03  0.12508757304E+03 0.  0.
          5    1    3    3  502    0 -0.14214003167E+03  0.63921387048E+02  0.20851293414E+02  0.15729583962E+03  0.41800000000E+01 0. -1.
         -5    1    3    3    0  502  0.15869794503E+02 -0.16935061788E+02 -0.12593177151E+02  0.26734008418E+02  0.41800000000E+01 0. -1.
        -11    1    1    2    0    0  0.43062479591E+02  0.39665314613E+01 -0.64341648109E+02  0.77523920190E+02  0.00000000000E+00 0.  1.
         11    1    1    2    0    0  0.83207757572E+02 -0.50952856722E+02 -0.73302459104E+01  0.97844044445E+02  0.00000000000E+00 0. -1.
</event>
<event>
 7    1  0.2564986E-009  0.8516856E+02  0.7561462E-02  0.1314992E+00
         -1   -1    0    0    0  501 -0.00000000000E+00  0.00000000000E+00  0.10518787936E+03  0.10518787936E+03  0.00000000000E+00 0.  1.
          1   -1    0    0  501    0  0.00000000000E+00 -0.00000000000E+00 -0.17725442489E+03  0.17725442489E+03  0.00000000000E+00 0. -1.
         25    2    1    2    0    0 -0.29997464115E+02  0.53603041914E+02  0.17465196482E+02  0.14045067762E+03  0.12509286870E+03 0.  0.
          5    1    3    3  502    0 -0.49956797961E+02  0.11600640733E+02  0.58769145743E+02  0.78112364061E+02  0.41800000000E+01 0.  1.
         -5    1    3    3    0  502  0.19959333845E+02  0.42002401181E+02 -0.41303949261E+02  0.62338313557E+02  0.41800000000E+01 0.  1.
        -11    1    1    2    0    0  0.32019543462E+02 -0.18401686767E+02  0.84274550452E+01  0.37880011060E+02  0.00000000000E+00 0.  1.
         11    1    1    2    0    0 -0.20220793467E+01 -0.35201355147E+02 -0.97959197053E+02  0.10411161557E+03  0.00000000000E+00 0. -1.
</event>
<event>
 7    1  0.2564986E-009  0.9335999E+02  0.7561462E-02  0.1294913E+00
          2   -1    0    0  501    0  0.00000000000E+00  0.00000000000E+00  0.55944328638E+03  0.55944328638E+03  0.00000000000E+00 0.  1.
         -2   -1    0    0    0  501 -0.00000000000E+00 -0.00000000000E+00 -0.27114449296E+02  0.27114449296E+02  0.00000000000E+00 0. -1.
         25    2    1    2    0    0 -0.41270509193E+02  0.37901385735E+02  0.32411918216E+03  0.35190714053E+03  0.12508245816E+03 0.  0.
          5    1    3    3  502    0 -0.50598089493E+02  0.49725349440E+02  0.78882714964E+02  0.10617312352E+03  0.41800000000E+01 0. -1.
         -5    1    3    3    0  502  0.93275803006E+01 -0.11823963705E+02  0.24523646720E+03  0.24573401701E+03  0.41800000000E+01 0. -1.
        -11    1    1    2    0    0  0.62507850605E+02 -0.75220730224E+01  0.83666721973E+02  0.10470880257E+03  0.00000000000E+00 0.  1.
         11    1    1    2    0    0 -0.21237341413E+02 -0.30379312712E+02  0.12454293294E+03  0.12994179257E+03  0.00000000000E+00 0. -1.
</event>
<event>
 7    1  0.2564986E-009  0.2532748E+03  0.7561462E-02  0.1111253E+00
          2   -1    0    0  501    0  0.00000000000E+00  0.00000000000E+00  0.84279176212E+03  0.84279176212E+03  0.00000000000E+00 0. -1.
         -2   -1    0    0    0  501 -0.00000000000E+00 -0.00000000000E+00 -0.92664888702E+02  0.92664888702E+02  0.00000000000E+00 0.  1.
         25    2    1    2    0    0  0.24607985683E+03 -0.15246674705E+02  0.26218824587E+03  0.38102047797E+03  0.12508465667E+03 0.  0.
          5    1    3    3  502    0  0.14677539340E+03 -0.48499986018E+02  0.21800469013E+03  0.26728034359E+03  0.41800000000E+01 0. -1.
         -5    1    3    3    0  502  0.99304463431E+02  0.33253311313E+02  0.44183555737E+02  0.11374013438E+03  0.41800000000E+01 0. -1.
        -11    1    1    2    0    0 -0.65246470399E+02  0.11369150997E+02  0.23037796565E+03  0.23970892047E+03  0.00000000000E+00 0. -1.
         11    1    1    2    0    0 -0.18083338643E+03  0.38775237081E+01  0.25756066190E+03  0.31472725239E+03  0.00000000000E+00 0.  1.
</event>
<event>
 7    1  0.2564986E-009  0.1143288E+03  0.7561462E-02  0.1252757E+00
         -1   -1    0    0    0  501 -0.00000000000E+00  0.00000000000E+00  0.28560028053E+02  0.28560028053E+02  0.00000000000E+00 0.  1.
          1   -1    0    0  501    0  0.00000000000E+00 -0.00000000000E+00 -0.71484405971E+03  0.71484405971E+03  0.00000000000E+00 0. -1.
         25    2    1    2    0    0 -0.77215839842E+02  0.26897962847E+02 -0.26392036300E+03  0.30329292539E+03  0.12508738647E+03 0.  0.
          5    1    3    3  502    0 -0.27655526162E+02 -0.34264705847E+02 -0.23103612738E+02  0.49901377893E+02  0.41800000000E+01 0.  1.
         -5    1    3    3    0  502 -0.49560313680E+02  0.61162668693E+02 -0.24081675026E+03  0.25339154749E+03  0.41800000000E+01 0.  1.
        -11    1    1    2    0    0 -0.46778852860E+01 -0.23146683530E+02 -0.25042210672E+02  0.34420399250E+02  0.00000000000E+00 0.  1.
         11    1    1    2    0    0  0.81893725128E+02 -0.37512793167E+01 -0.39732145798E+03  0.40569076312E+03  0.00000000000E+00 0. -1.
</event>
<event>
 7    1  0.2564986E-009  0.1157591E+03  0.7561462E-02  0.1250262E+00
          2   -1    0    0  501    0  0.00000000000E+00  0.00000000000E+00  0.10126719262E+03  0.10126719262E+03  0.00000000000E+00 0. -1.
         -2   -1    0    0    0  501 -0.00000000000E+00 -0.00000000000E+00 -0.18821061748E+03  0.18821061748E+03  0.00000000000E+00 0.  1.
         25    2    1    2    0    0 -0.28804207506E+02 -0.61286238271E+02  0.77643196395E+01  0.14246110453E+03  0.12509674765E+03 0.  0.
          5    1    3    3  502    0 -0.15695365468E+02 -0.87881882903E+02  0.40480164950E+02  0.98110580439E+02  0.41800000000E+01 0. -1.
         -5    1    3    3    0  502 -0.13108842039E+02  0.26595644632E+02 -0.32715845310E+02  0.44350524093E+02  0.41800000000E+01 0. -1.
        -11    1    1    2    0    0  0.59781529222E+02  0.53589173249E+02 -0.72039465701E+02  0.10786711892E+03  0.00000000000E+00 0.  1.
         11    1    1    2    0    0 -0.30977321716E+02  0.76970650225E+01 -0.22668278797E+02  0.39149586642E+02  0.00000000000E+00 0. -1.
</event>
<event>
 7    1  0.2564986E-009  0.1195416E+03  0.7561462E-02  0.1243855E+00
          2   -1    0    0  501    0  0.00000000000E+00  0.00000000000E+00  0.44081295617E+03  0.44081295617E+03  0.00000000000E+00 0. -1.
         -2   -1    0    0    0  501 -0.00000000000E+00 -0.00000000000E+00 -0.53362528549E+02  0.53362528549E+02  0.00000000000E+00 0.  1.
         25    2    1    2    0    0 -0.54590239774E+02  0.90177520552E+02  0.25148252076E+03  0.30000591408E+03  0.12509200912E+03 0.  0.
          5    1    3    3  502    0 -0.10815690289E+01  0.56831056197E+02  0.20552569360E+02  0.60587286186E+02  0.41800000000E+01 0.  1.
         -5    1    3    3    0  502 -0.53508670745E+02  0.33346464354E+02  0.23092995140E+03  0.23941862790E+03  0.41800000000E+01 0.  1.
        -11    1    1    2    0    0  0.91475594267E+01 -0.67494854878E+02  0.12478512042E+03  0.14216384757E+03  0.00000000000E+00 0.  1.
         11    1    1    2    0    0  0.45442680348E+02 -0.22682665674E+02  0.11182786447E+02  0.52005723070E+02  0.00000000000E+00 0. -1.
</event>
<event>
 7    1  0.2564986E-009  0.1925601E+03  0.7561462E-02  0.1156172E+00
          1   -1    0    0  501    0  0.00000000000E+00  0.00000000000E+00  0.34671506153E+03  0.34671506153E+03  0.00000000000E+00 0. -1.
         -1   -1    0    0    0  501 -0.00000000000E+00 -0.00000000000E+00 -0.11202086481E+03  0.11202086481E+03  0.00000000000E+00 0.  1.
         25    2    1    2    0    0 -0.10759350921E+03 -0.12390074714E+03  0.96880048580E+02  0.22795350790E+03  0.12509716059E+03 0.  0.
          5    1    3    3  502    0  0.18582673929E+02  0.98216314189E+01  0.35393814592E+01  0.21720493438E+02  0.41800000000E+01 0.  1.
         -5    1    3    3    0  502 -0.12617618314E+03 -0.13372237856E+03  0.93340667120E+02  0.20623301447E+03  0.41800000000E+01 0.  1.
        -11    1    1    2    0    0  0.90756018099E+02  0.49240135272E+02  0.51372151535E+02  0.11532711605E+03  0.00000000000E+00 0.  1.
         11    1    1    2    0    0  0.16837491109E+02  0.74660611865E+02  0.86441996607E+02  0.11545530238E+03  0.00000000000E+00 0. -1.
</event>
<event>
 7    1  0.2564986E-009  0.1323325E+03  0.7561462E-02  0.1224035E+00
          2   -1    0    0  501    0  0.00000000000E+00  0.00000000000E+00  0.55766479012E+02  0.55766479012E+02  0.00000000000E+00 0. -1.
         -2   -1    0    0    0  501 -0.00000000000E+00 -0.00000000000E+00 -0.70490658019E+03  0.70490658019E+03  0.00000000000E+00 0.  1.
         25    2    1    2    0    0  0.31252049996E+02 -0.10229129725E+03 -0.58107919006E+03  0.60393801202E+03  0.12509155497E+03 0.  0.
          5    1    3    3  502    0  0.60649832327E+02 -0.87500762782E+02 -0.25764064729E+03  0.27880272808E+03  0.41800000000E+01 0.  1.
         -5    1    3    3    0  502 -0.29397782331E+02 -0.14790534465E+02 -0.32343854277E+03  0.32513528394E+03  0.41800000000E+01 0.  1.
        -11    1    1    2    0    0 -0.25574693763E+02  0.32952554962E+01 -0.49557453841E+02  0.55864701745E+02  0.00000000000E+00 0.  1.
         11    1    1    2    0    0 -0.56773562325E+01  0.98996041751E+02 -0.18503457273E+02  0.10087034543E+03  0.00000000000E+00 0. -1.
</event>
<event>
 7    1  0.2564986E-009  0.1564037E+03  0.7561462E-02  0.1192818E+00
         -1   -1    0    0    0  501 -0.00000000000E+00  0.00000000000E+00  0.70816166639E+03  0.70816166639E+03  0.00000000000E+00 0. -1.
          1   -1    0    0  501    0  0.00000000000E+00 -0.00000000000E+00 -0.41062515648E+02  0.41062515648E+02  0.00000000000E+00 0.  1.
         25    2    1    2    0    0 -0.11966321720E+03 -0.53968778455E+02  0.33989670884E+03  0.38523792314E+03  0.12508625083E+03 0.  0.
          5    1    3    3  502    0 -0.73256108388E+01 -0.67179107547E+02  0.14023718917E+03  0.15572616572E+03  0.41800000000E+01 0. -1.
         -5    1    3    3    0  502 -0.11233760636E+03  0.13210329092E+02  0.19965951967E+03  0.22951175742E+03  0.41800000000E+01 0. -1.
        -11    1    1    2    0    0  0.44409879579E+02  0.13227043911E+02  0.31200893067E+02  0.55863116840E+02  0.00000000000E+00 0.  1.
         11    1    1    2    0    0  0.75253337624E+02  0.40741734544E+02  0.29600154884E+03  0.30812314206E+03  0.00000000000E+00 0. -1.
</event>
<event>
 7    1  0.2564986E-009  0.1289739E+03  0.7561462E-02  0.1228986E+00
          2   -1    0    0  501    0  0.00000000000E+00  0.00000000000E+00  0.65773135874E+03  0.65773135874E+03  0.00000000000E+00 0. -1.
         -2   -1    0    0    0  501 -0.00000000000E+00 -0.00000000000E+00 -0.27601977822E+02  0.27601977822E+02  0.00000000000E+00 0.  1.
         25    2    1    2    0    0 -0.36202056326E+02  0.66504733006E+02  0.41164253996E+03  0.43684151168E+03  0.12508979664E+03 0.  0.
          5    1    3    3  502    0  0.34871557292E+02 -0.13561132760E+02  0.82135157084E+02  0.90352566422E+02  0.41800000000E+01 0.  1.
         -5    1    3    3    0  502 -0.71073613618E+02  0.80065865767E+02  0.32950738288E+03  0.34648894526E+03  0.41800000000E+01 0.  1.
        -11    1    1    2    0    0  0.55274751565E+02 -0.74255375197E+02  0.20169980981E+03  0.22192785356E+03  0.00000000000E+00 0. -1.
         11    1    1    2    0    0 -0.19072695239E+02  0.77506421911E+01  0.16787031144E+02  0.26563971328E+02  0.00000000000E+00 0.  1.
</event>
<event>
 7    1  0.2564986E-009  0.1550111E+03  0.7561462E-02  0.1194447E+00
          2   -1    0    0  501    0  0.00000000000E+00  0.00000000000E+00  0.54503545692E+03  0.54503545692E+03  0.00000000000E+00 0. -1.
         -2   -1    0    0    0  501 -0.00000000000E+00 -0.00000000000E+00 -0.56296511613E+02  0.56296511613E+02  0.00000000000E+00 0.  1.
         25    2    1    2    0    0 -0.11127100856E+03  0.17706107120E+02  0.12485908027E+03  0.20960000670E+03  0.12509048447E+03 0.  0.
          5    1    3    3  502    0 -0.14120494704E+02 -0.48375879562E+02  0.32757185741E+02  0.60250474784E+02  0.41800000000E+01 0. -1.
         -5    1    3    3    0  502 -0.97150513853E+02  0.66081986682E+02  0.92101894534E+02  0.14934953191E+03  0.41800000000E+01 0. -1.
        -11    1    1    2    0    0  0.10266248132E+03 -0.45863525345E+02  0.25026895979E+03  0.27436763705E+03  0.00000000000E+00 0. -1.
         11    1    1    2    0    0  0.86085272397E+01  0.28157418225E+02  0.11361090524E+03  0.11736432478E+03  0.00000000000E+00 0.  1.
</event>
<event>
 7    1  0.2564986E-009  0.1078050E+03  0.7561462E-02  0.1264689E+00
          2   -1    0    0  501    0  0.00000000000E+00  0.00000000000E+00  0.25231323285E+03  0.25231323285E+03  0.00000000000E+00 0. -1.
         -2   -1    0    0    0  501 -0.00000000000E+00 -0.00000000000E+00 -0.51257296285E+02  0.51257296285E+02  0.00000000000E+00 0.  1.
         25    2    1    2    0    0  0.17804543537E+02  0.60448552394E+00  0.73410599404E+02  0.14612836113E+03  0.12508802760E+03 0.  0.
          5    1    3    3  502    0  0.70499815259E+02 -0.11669697878E+02  0.35270932744E+02  0.79799228672E+02  0.41800000000E+01 0.  1.
         -5    1    3    3    0  502 -0.52695271722E+02  0.12274183402E+02  0.38139666660E+02  0.66329132461E+02  0.41800000000E+01 0.  1.
        -11    1    1    2    0    0 -0.53114206914E+02  0.71993721073E+01  0.58039544779E+02  0.79003409376E+02  0.00000000000E+00 0.  1.
         11    1    1    2    0    0  0.35309663377E+02 -0.78038576312E+01  0.69605792386E+02  0.78438758630E+02  0.00000000000E+00 0. -1.
</event>
<event>
 7    1  0.2564986E-009  0.1567066E+03  0.7561462E-02  0.1192466E+00
         -1   -1    0    0    0  501 -0.00000000000E+00  0.00000000000E+00  0.10058855165E+03  0.10058855165E+03  0.00000000000E+00 0.  1.
          1   -1    0    0  501    0  0.00000000000E+00 -0.00000000000E+00 -0.44779097101E+03  0.44779097101E+03  0.00000000000E+00 0. -1.
         25    2    1    2    0    0  0.11008421776E+03  0.28302833889E+02 -0.36560083627E+03  0.40277963713E+03  0.12509148334E+03 0.  0.
          5    1    3    3  502    0  0.81889815555E+02 -0.42726267575E+02 -0.20340822443E+03  0.22343646524E+03  0.41800000000E+01 0. -1.
         -5    1    3    3    0  502  0.28194402205E+02  0.71029101464E+02 -0.16219261183E+03  0.17934317189E+03  0.41800000000E+01 0. -1.
        -11    1    1    2    0    0 -0.24435777807E+02  0.31566564892E+02  0.41603988632E+01  0.40135572437E+02  0.00000000000E+00 0. -1.
         11    1    1    2    0    0 -0.85648439953E+02 -0.59869398781E+02  0.14238018041E+02  0.10546431309E+03  0.00000000000E+00 0.  1.
</event>
<event>
 7    1  0.2564986E-009  0.9483247E+02  0.7561462E-02  0.1291554E+00
          1   -1    0    0  501    0  0.00000000000E+00  0.00000000000E+00  0.52442638486E+03  0.52442638486E+03  0.00000000000E+00 0. -1.
         -1   -1    0    0    0  501 -0.00000000000E+00 -0.00000000000E+00 -0.57846934004E+02  0.57846934004E+02  0.00000000000E+00 0.  1.
         25    2    1    2    0    0  0.86316225525E+02  0.53233865394E+01  0.42474874783E+03  0.45115101709E+03  0.12508761811E+03 0.  0.
          5    1    3    3  502    0  0.44309062703E+02 -0.81478520570E+01  0.30836843811E+02  0.54754578502E+02  0.41800000000E+01 0.  1.
         -5    1    3    3    0  502  0.42007162822E+02  0.13471238596E+02  0.39391190401E+03  0.39639643858E+03  0.41800000000E+01 0.  1.
        -11    1    1    2    0    0 -0.43738762453E+01  0.15048115642E+02  0.43948774397E+02  0.46659097171E+02  0.00000000000E+00 0. -1.
         11    1    1    2    0    0 -0.81942349280E+02 -0.20371502181E+02 -0.21180713633E+01  0.84463204609E+02  0.00000000000E+00 0.  1.
</event>
<event>
 7    1  0.2564986E-009  0.7392526E+02  0.7561462E-02  0.1347232E+00
         -2   -1    0    0    0  501 -0.00000000000E+00  0.00000000000E+00  0.12621146316E+03  0.12621146316E+03  0.00000000000E+00 0.  1.
          2   -1    0    0  501    0  0.00000000000E+00 -0.00000000000E+00 -0.15545667222E+03  0.15545667222E+03  0.00000000000E+00 0. -1.
         25    2    1    2    0    0  0.21615325011E+02  0.57333103677E+02 -0.76427310488E+02  0.15888097591E+03  0.12509086163E+03 0.  0.
          5    1    3    3  502    0 -0.16830640335E+02  0.59915701611E+01 -0.91117775682E+02  0.92946709529E+02  0.41800000000E+01 0.  1.
         -5    1    3    3    0  502  0.38445965347E+02  0.51341533515E+02  0.14690465194E+02  0.65934266378E+02  0.41800000000E+01 0.  1.
        -11    1    1    2    0    0 -0.11544617373E+02 -0.61875735233E+01  0.66060404680E+02  0.67346427692E+02  0.00000000000E+00 0.  1.
         11    1    1    2    0    0 -0.10070707639E+02 -0.51145530153E+02 -0.18878303253E+02  0.55440731784E+02  0.00000000000E+00 0. -1.
</event>
<event>
 7    1  0.2564986E-009  0.8514572E+02  0.7561462E-02  0.1315052E+00
          1   -1    0    0  501    0  0.00000000000E+00  0.00000000000E+00  0.29347676579E+02  0.29347676579E+02  0.00000000000E+00 0. -1.
         -1   -1    0    0    0  501 -0.00000000000E+00 -0.00000000000E+00 -0.43126973898E+03  0.43126973898E+03  0.00000000000E+00 0.  1.
         25    2    1    2    0    0  0.75815094527E+01  0.24676323836E+02 -0.25920162196E+03  0.28896157050E+03  0.12508760194E+03 0.  0.
          5    1    3    3  502    0  0.61628093904E+02  0.21378689940E+02 -0.89818369345E+02  0.11108502245E+03  0.41800000000E+01 0. -1.
         -5    1    3    3    0  502 -0.54046584451E+02  0.32976338965E+01 -0.16938325262E+03  0.17787654805E+03  0.41800000000E+01 0. -1.
        -11    1    1    2    0    0  0.69241080283E+01  0.10495033406E+02  0.88550811980E+01  0.15378604007E+02  0.00000000000E+00 0. -1.
         11    1    1    2    0    0 -0.14505617481E+02 -0.35171357243E+02 -0.15157552164E+03  0.15627724104E+03  0.00000000000E+00 0.  1.
</event>
<event>
 7    1  0.2564986E-009  0.1094014E+03  0.7561462E-02  0.1261682E+00
         -4   -1    0    0    0  501 -0.00000000000E+00  0.00000000000E+00  0.21988495924E+03  0.21988495924E+03  0.00000000000E+00 0.  1.
          4   -1    0    0  501    0  0.00000000000E+00 -0.00000000000E+00 -0.10447821339E+03  0.10447821339E+03  0.00000000000E+00 0. -1.
         25    2    1    2    0    0  0.13657731421E+02  0.29236713832E+02 -0.44422887680E+02  0.13660959531E+03  0.12508984578E+03 0.  0.
          5    1    3    3  502    0  0.65587014987E+02  0.82275401514E+01 -0.45618330207E+02  0.80422965643E+02  0.41800000000E+01 0. -1.
         -5    1    3    3    0  502 -0.51929283566E+02  0.21009173680E+02  0.11954425270E+01  0.56186629667E+02  0.41800000000E+01 0. -1.
        -11    1    1    2    0    0 -0.43674981045E+02 -0.44814852437E+02  0.84201557395E+02  0.10490842309E+03  0.00000000000E+00 0.  1.
         11    1    1    2    0    0  0.30017249624E+02  0.15578138605E+02  0.75628076136E+02  0.82845154219E+02  0.00000000000E+00 0. -1.
</event>
<event>
 7    1  0.2564986E-009  0.1057797E+03  0.7561462E-02  0.1268591E+00
          2   -1    0    0  501    0  0.00000000000E+00  0.00000000000E+00  0.50177492350E+03  0.50177492350E+03  0.00000000000E+00 0.  1.
         -2   -1    0    0    0  501 -0.00000000000E+00 -0.00000000000E+00 -0.43197208952E+02  0.43197208952E+02  0.00000000000E+00 0. -1.
         25    2    1    2    0    0  0.30035464399E+02 -0.45584005345E+02  0.41062025637E+03  0.43270772077E+03  0.12508775323E+03 0.  0.
          5    1    3    3  502    0  0.22798299972E+02 -0.88845803129E+02  0.25786088129E+03  0.27372074403E+03  0.41800000000E+01 0.  1.
         -5    1    3    3    0  502  0.72371644269E+01  0.43261797784E+02  0.15275937509E+03  0.15898697674E+03  0.41800000000E+01 0.  1.
        -11    1    1    2    0    0 -0.42149824038E+02  0.47398283638E+02  0.68685007585E+00  0.63432457948E+02  0.00000000000E+00 0. -1.
         11    1    1    2    0    0  0.12114359639E+02 -0.18142782925E+01  0.47270608094E+02  0.48831953727E+02  0.00000000000E+00 0.  1.
</event>
<event>
 7    1  0.2564986E-009  0.3231178E+03  0.7561462E-02  0.1074223E+00
         -2   -1    0    0    0  501 -0.00000000000E+00  0.00000000000E+00  0.18425458584E+03  0.18425458584E+03  0.00000000000E+00 0.  1.
          2   -1    0    0  501    0  0.00000000000E+00 -0.00000000000E+00 -0.76509049365E+03  0.76509049365E+03  0.00000000000E+00 0. -1.
         25    2    1    2    0    0  0.25369585431E+03  0.18452738109E+03 -0.51461567992E+03  0.61554049619E+03  0.12509541783E+03 0.  0.
          5    1    3    3  502    0  0.22584900744E+03  0.19776134646E+03 -0.42245322320E+03  0.51826780964E+03  0.41800000000E+01 0.  1.
         -5    1    3    3    0  502  0.27846846869E+02 -0.13233965370E+02 -0.92162456721E+02  0.97272686551E+02  0.41800000000E+01 0.  1.
        -11    1    1    2    0    0 -0.20243835253E+03 -0.16021177468E+03 -0.88414854524E+02  0.27288511469E+03  0.00000000000E+00 0.  1.
         11    1    1    2    0    0 -0.51257501784E+02 -0.24315606411E+02  0.22194626635E+02  0.60919468610E+02  0.00000000000E+00 0. -1.
</event>
<event>
 7    1  0.2564986E-009  0.2123604E+03  0.7561462E-02  0.1139710E+00
         -1   -1    0    0    0  501 -0.00000000000E+00  0.00000000000E+00  0.22017928289E+03  0.22017928289E+03  0.00000000000E+00 0.  1.
          1   -1    0    0  501    0  0.00000000000E+00 -0.00000000000E+00 -0.26161521248E+03  0.26161521248E+03  0.00000000000E+00 0. -1.
         25    2    1    2    0    0 -0.98200083559E+02  0.16417797616E+03  0.74048980942E+02  0.24026856254E+03  0.12509223117E+03 0.  0.
          5    1    3    3  502    0  0.14603252945E+02  0.83176801386E+02  0.52886106779E+02  0.99729875041E+02  0.41800000000E+01 0.  1.
         -5    1    3    3    0  502 -0.11280333650E+03  0.81001174775E+02  0.21162874163E+02  0.14053868750E+03  0.41800000000E+01 0. -1.
        -11    1    1    2    0    0  0.10645957352E+03 -0.14135063708E+03 -0.70646076698E+02  0.19053742822E+03  0.00000000000E+00 0.  1.
         11    1    1    2    0    0 -0.82594899627E+01 -0.22827339077E+02 -0.44838833830E+02  0.50988504616E+02  0.00000000000E+00 0. -1.
</event>
<event>
 7    1  0.2564986E-009  0.1052035E+03  0.7561462E-02  0.1269719E+00
          1   -1    0    0  501    0  0.00000000000E+00  0.00000000000E+00  0.17062562259E+03  0.17062562259E+03  0.00000000000E+00 0. -1.
         -1   -1    0    0    0  501 -0.00000000000E+00 -0.00000000000E+00 -0.24206341297E+03  0.24206341297E+03  0.00000000000E+00 0.  1.
         25    2    1    2    0    0 -0.15439657845E+02  0.30091722337E+01  0.13718838040E+03  0.18632024111E+03  0.12508853816E+03 0.  0.
          5    1    3    3  502    0 -0.65823374417E+02  0.20773142606E+02  0.97966657674E+02  0.11991321232E+03  0.41800000000E+01 0.  1.
         -5    1    3    3    0  502  0.50383716572E+02 -0.17763970373E+02  0.39221722722E+02  0.66407028786E+02  0.41800000000E+01 0.  1.
        -11    1    1    2    0    0 -0.66008996590E+01  0.39360820352E+02 -0.10225605373E+03  0.10976860471E+03  0.00000000000E+00 0.  1.
         11    1    1    2    0    0  0.22040557504E+02 -0.42369992586E+02 -0.10637011705E+03  0.11660018974E+03  0.00000000000E+00 0. -1.
</event>
<event>
 7    1  0.4285431E-009  0.1084689E+03  0.7561462E-02  0.1263432E+00
          2   -1    0    0  501    0  0.00000000000E+00  0.00000000000E+00  0.83581584011E+03  0.83581584011E+03  0.00000000000E+00 0. -1.
         -2   -1    0    0    0  501 -0.00000000000E+00 -0.00000000000E+00 -0.23688796647E+02  0.23688796647E+02  0.00000000000E+00 0.  1.
         25    2    1    2    0    0 -0.79107743338E+02  0.32758618678E+02  0.52394299480E+03  0.54543085644E+03  0.12508954871E+03 0.  0.
          5    1    3    3  502    0 -0.61042755215E+01  0.51870635697E+02  0.83698000634E+02  0.98745393500E+02  0.41800000000E+01 0. -1.
         -5    1    3    3    0  502 -0.73003467816E+02 -0.19112017020E+02  0.44024499417E+03  0.44668546294E+03  0.41800000000E+01 0. -1.
        -11    1    1    2    0    0  0.93958143654E+01 -0.13842215659E+02 -0.25087337356E+00  0.16731742270E+02  0.00000000000E+00 0.  1.
         11    1    1    2    0    0  0.69711928972E+02 -0.18916403019E+02  0.28843492203E+03  0.29734203805E+03  0.00000000000E+00 0. -1.
</event>
<event>
 7    1  0.2564986E-009  0.9664628E+02  0.7561462E-02  0.1287511E+00
          2   -1    0    0  501    0  0.00000000000E+00  0.00000000000E+00  0.43192337606E+03  0.43192337606E+03  0.00000000000E+00 0. -1.
         -2   -1    0    0    0  501 -0.00000000000E+00 -0.00000000000E+00 -0.29178541860E+02  0.29178541860E+02  0.00000000000E+00 0.  1.
         25    2    1    2    0    0 -0.51466999848E+01  0.52208003843E+01  0.17046603348E+03  0.21157466303E+03  0.12510565211E+03 0.  0.
          5    1    3    3  502    0 -0.55717044445E+02  0.13799594358E+02  0.14095256755E+03  0.15224952067E+03  0.41800000000E+01 0.  1.
         -5    1    3    3    0  502  0.50570344461E+02 -0.85787939738E+01  0.29513465926E+02  0.59325142359E+02  0.41800000000E+01 0.  1.
        -11    1    1    2    0    0 -0.91237741050E+01  0.37834240573E+02  0.15599900149E+03  0.16078047605E+03  0.00000000000E+00 0. -1.
         11    1    1    2    0    0  0.14270474090E+02 -0.43055040957E+02  0.76279799234E+02  0.88746778836E+02  0.00000000000E+00 0.  1.
</event>
<event>
 7    1  0.2564986E-009  0.9824119E+02  0.7561462E-02  0.1284039E+00
         -3   -1    0    0    0  501 -0.00000000000E+00  0.00000000000E+00  0.22399580382E+03  0.22399580382E+03  0.00000000000E+00 0.  1.
          3   -1    0    0  501    0  0.00000000000E+00 -0.00000000000E+00 -0.65683624714E+02  0.65683624714E+02  0.00000000000E+00 0. -1.
         25    2    1    2    0    0 -0.39184921446E+02  0.37132885523E+02  0.76580348440E+02  0.15628840785E+03  0.12508879808E+03 0.  0.
          5    1    3    3  502    0 -0.81526359888E+02  0.39188728234E+01  0.52844269163E+02  0.97323656447E+02  0.41800000000E+01 0.  1.
         -5    1    3    3    0  502  0.42341438441E+02  0.33214012699E+02  0.23736079276E+02  0.58964751405E+02  0.41800000000E+01 0.  1.
        -11    1    1    2    0    0  0.21476804433E+01 -0.19747539061E+02 -0.17235940713E+02  0.26299343766E+02  0.00000000000E+00 0. -1.
         11    1    1    2    0    0  0.37037241003E+02 -0.17385346461E+02  0.98967771376E+02  0.10709167691E+03  0.00000000000E+00 0.  1.
</event>
<event>
 7    1  0.2564986E-009  0.9810133E+02  0.7561462E-02  0.1284340E+00
          1   -1    0    0  501    0  0.00000000000E+00  0.00000000000E+00  0.26346778334E+03  0.26346778334E+03  0.00000000000E+00 0. -1.
         -1   -1    0    0    0  501 -0.00000000000E+00 -0.00000000000E+00 -0.73608451664E+02  0.73608451664E+02  0.00000000000E+00 0.  1.
         25    2    1    2    0    0  0.29111832060E+02 -0.10740697563E+02  0.46479005941E+01  0.12896347803E+03  0.12508842607E+03 0.  0.
          5    1    3    3  502    0  0.44305595979E+02  0.49176054254E+02 -0.38209686573E+01  0.66432991417E+02  0.41800000000E+01 0. -1.
         -5    1    3    3    0  502 -0.15193763919E+02 -0.59916751817E+02  0.84688692514E+01  0.62530486618E+02  0.41800000000E+01 0. -1.
        -11    1    1    2    0    0 -0.66497168388E+01  0.34554970786E+02  0.21668065508E+02  0.41325171541E+02  0.00000000000E+00 0.  1.
         11    1    1    2    0    0 -0.22462115222E+02 -0.23814273223E+02  0.16354336557E+03  0.16678758543E+03  0.00000000000E+00 0. -1.
</event>
<event>
 7    1  0.2564986E-009  0.1406614E+03  0.7561462E-02  0.1212442E+00
         -1   -1    0    0    0  501 -0.00000000000E+00  0.00000000000E+00  0.56462917371E+03  0.56462917371E+03  0.00000000000E+00 0.  1.
          1   -1    0    0  501    0  0.00000000000E+00 -0.00000000000E+00 -0.50284313188E+02  0.50284313188E+02  0.00000000000E+00 0. -1.
         25    2    1    2    0    0 -0.58934341875E+02  0.78310549292E+02  0.42675453559E+03  0.45538342243E+03  0.12509527966E+03 0.  0.
          5    1    3    3  502    0  0.33547626838E+02  0.38127280573E+02  0.21287808579E+03  0.21889194731E+03  0.41800000000E+01 0.  1.
         -5    1    3    3    0  502 -0.92481968713E+02  0.40183268719E+02  0.21387644980E+03  0.23649147512E+03  0.41800000000E+01 0.  1.
        -11    1    1    2    0    0 -0.14793076463E+02 -0.47126269678E+02  0.15407854670E+02  0.51740916020E+02  0.00000000000E+00 0. -1.
         11    1    1    2    0    0  0.73727418339E+02 -0.31184279613E+02  0.72182470257E+02  0.10778914844E+03  0.00000000000E+00 0.  1.
</event>
<event>
 7    1  0.2564986E-009  0.1415122E+03  0.7561462E-02  0.1211308E+00
         -2   -1    0    0    0  501 -0.00000000000E+00  0.00000000000E+00  0.30838389977E+02  0.30838389977E+02  0.00000000000E+00 0. -1.
          2   -1    0    0  501    0  0.00000000000E+00 -0.00000000000E+00 -0.87181117956E+03  0.87181117956E+03  0.00000000000E+00 0.  1.
         25    2    1    2    0    0  0.10970405036E+03  0.18671935861E+02 -0.30866137630E+03  0.35114441299E+03  0.12508770402E+03 0.  0.
          5    1    3    3  502    0 -0.12788275831E+02 -0.10941239697E+02 -0.13730751122E+03  0.13839825057E+03  0.41800000000E+01 0. -1.
         -5    1    3    3    0  502  0.12249232620E+03  0.29613175558E+02 -0.17135386509E+03  0.21274616242E+03  0.41800000000E+01 0. -1.
        -11    1    1    2    0    0 -0.11095871353E+03  0.95260413482E+01 -0.47132793289E+03  0.48430630999E+03  0.00000000000E+00 0.  1.
         11    1    1    2    0    0  0.12546631694E+01 -0.28197977209E+02 -0.60983480387E+02  0.67198846556E+02  0.00000000000E+00 0. -1.
</event>
<event>
 7    1  0.2564986E-009  0.1670825E+03  0.7561462E-02  0.1180925E+00
          1   -1    0    0  501    0  0.00000000000E+00  0.00000000000E+00  0.49470718346E+03  0.49470718346E+03  0.00000000000E+00 0. -1.
         -1   -1    0    0    0  501 -0.00000000000E+00 -0.00000000000E+00 -0.75977715439E+02  0.75977715439E+02  0.00000000000E+00 0.  1.
         25    2    1    2    0    0 -0.12923475306E+03 -0.45863399998E+02  0.34186379128E+03  0.38899685585E+03  0.12507049698E+03 0.  0.
          5    1    3    3  502    0  0.16874237827E+02 -0.34543475221E+01  0.11147869529E+03  0.11287889228E+03  0.41800000000E+01 0. -1.
         -5    1    3    3    0  502 -0.14610899089E+03 -0.42409052476E+02  0.23038509599E+03  0.27611796356E+03  0.41800000000E+01 0. -1.
        -11    1    1    2    0    0  0.86707073926E+02 -0.16989046573E+02  0.47515294060E+02  0.10032172019E+03  0.00000000000E+00 0.  1.
         11    1    1    2    0    0  0.42527679136E+02  0.62852446571E+02  0.29350382684E+02  0.81366322864E+02  0.00000000000E+00 0. -1.
</event>
<event>
 7    1  0.2564986E-009  0.1595579E+03  0.7561462E-02  0.1189197E+00
          2   -1    0    0  501    0  0.00000000000E+00  0.00000000000E+00  0.76611958126E+03  0.76611958126E+03  0.00000000000E+00 0. -1.
         -2   -1    0    0    0  501 -0.00000000000E+00 -0.00000000000E+00 -0.48322742783E+02  0.48322742783E+02  0.00000000000E+00 0.  1.
         25    2    1    2    0    0 -0.82366484285E+02 -0.12947487412E+03  0.29863956499E+03  0.35830112299E+03  0.12508446824E+03 0.  0.
          5    1    3    3  502    0 -0.66833619524E+02 -0.13211091288E+03  0.30634498355E+03  0.34027157881E+03  0.41800000000E+01 0. -1.
         -5    1    3    3    0  502 -0.15532864761E+02  0.26360387541E+01 -0.77054185623E+01  0.18029544176E+02  0.41800000000E+01 0. -1.
        -11    1    1    2    0    0  0.64744139100E+02  0.84893636952E+02  0.15844944524E+03  0.19106271180E+03  0.00000000000E+00 0.  1.
         11    1    1    2    0    0  0.17622345184E+02  0.44581237170E+02  0.26070782825E+03  0.26507848926E+03  0.00000000000E+00 0. -1.
</event>
<event>
 7    1  0.2564986E-009  0.1163338E+03  0.7561462E-02  0.1249271E+00
         -2   -1    0    0    0  501 -0.00000000000E+00  0.00000000000E+00  0.19232426708E+03  0.19232426708E+03  0.00000000000E+00 0.  1.
          2   -1    0    0  501    0  0.00000000000E+00 -0.00000000000E+00 -0.77719411765E+02  0.77719411765E+02  0.00000000000E+00 0. -1.
         25    2    1    2    0    0 -0.20958619537E+02 -0.51744853439E+02  0.56685759157E+02  0.14824888125E+03  0.12509061480E+03 0.  0.
          5    1    3    3  502    0  0.47028322487E+02 -0.19375768167E+01  0.12201676353E+01  0.47269213331E+02  0.41800000000E+01 0.  1.
         -5    1    3    3    0  502 -0.67986942024E+02 -0.49807276622E+02  0.55465591522E+02  0.10097966792E+03  0.41800000000E+01 0.  1.
        -11    1    1    2    0    0  0.19106829478E+02 -0.20926140918E+02 -0.79879412630E+00  0.28348057755E+02  0.00000000000E+00 0. -1.
         11    1    1    2    0    0  0.18517900596E+01  0.72670994357E+02  0.58717890287E+02  0.93446739841E+02  0.00000000000E+00 0.  1.
</event>
<event>
 7    1  0.2564986E-009  0.1612118E+03  0.7561462E-02  0.1187335E+00
         -1   -1    0    0    0  501 -0.00000000000E+00  0.00000000000E+00  0.31040495462E+02  0.31040495462E+02  0.00000000000E+00 0.  1.
          1   -1    0    0  501    0  0.00000000000E+00 -0.00000000000E+00 -0.12150701396E+04  0.12150701396E+04  0.00000000000E+00 0. -1.
         25    2    1    2    0    0 -0.48214133903E+02  0.14589796923E+03 -0.76214894985E+03  0.78748304243E+03  0.12509076796E+03 0.  0.
          5    1    3    3  502    0 -0.34323177307E+02  0.11829853436E+03 -0.30064353434E+03  0.32492557744E+03  0.41800000000E+01 0.  1.
         -5    1    3    3    0  502 -0.13890956597E+02  0.27599434876E+02 -0.46150541551E+03  0.46255746500E+03  0.41800000000E+01 0.  1.
        -11    1    1    2    0    0 -0.11029671771E+02 -0.74075973609E+02 -0.10945650095E+03  0.13262589915E+03  0.00000000000E+00 0.  1.
         11    1    1    2    0    0  0.59243805675E+02 -0.71821995624E+02 -0.31242419331E+03  0.32600169345E+03  0.00000000000E+00 0. -1.
</event>
<event>
 7    1  0.2564986E-009  0.4365063E+02  0.7561462E-02  0.1482946E+00
         -1   -1    0    0    0  501 -0.00000000000E+00  0.00000000000E+00  0.19532312364E+03  0.19532312364E+03  0.00000000000E+00 0.  1.
          1   -1    0    0  501    0  0.00000000000E+00 -0.00000000000E+00 -0.69918903828E+02  0.69918903828E+02  0.00000000000E+00 0. -1.
         25    2    1    2    0    0 -0.11814499478E+02 -0.22889287219E+02  0.31971561304E+02  0.13165578262E+03  0.12509021743E+03 0.  0.
          5    1    3    3  502    0 -0.16216999228E+02 -0.20830042486E+02  0.79409443161E+02  0.83786716113E+02  0.41800000000E+01 0. -1.
         -5    1    3    3    0  502  0.44024997494E+01 -0.20592447324E+01 -0.47437881857E+02  0.47869066504E+02  0.41800000000E+01 0. -1.
        -11    1    1    2    0    0  0.26530591627E+02 -0.49341742319E+00  0.10141426623E+03  0.10482828410E+03  0.00000000000E+00 0.  1.
         11    1    1    2    0    0 -0.14716092149E+02  0.23382704642E+02 -0.79816077236E+01  0.28757960747E+02  0.00000000000E+00 0. -1.
</event>
<event>
 7    1  0.2564986E-009  0.8657851E+02  0.7561462E-02  0.1311355E+00
         -2   -1    0    0    0  501 -0.00000000000E+00  0.00000000000E+00  0.24102933101E+03  0.24102933101E+03  0.00000000000E+00 0. -1.
          2   -1    0    0  501    0  0.00000000000E+00 -0.00000000000E+00 -0.58581961786E+02  0.58581961786E+02  0.00000000000E+00 0.  1.
         25    2    1    2    0    0 -0.31315736110E+01 -0.34944945486E+02  0.63276328338E+02  0.14450537939E+03  0.12508778908E+03 0.  0.
          5    1    3    3  502    0 -0.52697183283E+01  0.45704435314E+02  0.86912473980E+01  0.47007185833E+02  0.41800000000E+01 0. -1.
         -5    1    3    3    0  502  0.21381447174E+01 -0.80649380800E+02  0.54585080940E+02  0.97498193560E+02  0.41800000000E+01 0. -1.
        -11    1    1    2    0    0  0.13530695268E+02  0.49164949418E+01 -0.12860465315E+02  0.19303968635E+02  0.00000000000E+00 0.  1.
         11    1    1    2    0    0 -0.10399121657E+02  0.30028450544E+02  0.13203150620E+03  0.13580194477E+03  0.00000000000E+00 0. -1.
</event>
<event>
 7    1  0.2564986E-009  0.1053487E+03  0.7561462E-02  0.1269434E+00
          1   -1    0    0  501    0  0.00000000000E+00  0.00000000000E+00  0.42618955265E+02  0.42618955265E+02  0.00000000000E+00 0. -1.
         -1   -1    0    0    0  501 -0.00000000000E+00 -0.00000000000E+00 -0.60788699566E+03  0.60788699566E+03  0.00000000000E+00 0.  1.
         25    2    1    2    0    0 -0.61575500613E+02  0.68895787487E+02 -0.45537369899E+03  0.48119764073E+03  0.12509113441E+03 0.  0.
          5    1    3    3  502    0 -0.47195051485E+02  0.42752878745E+02 -0.44466739079E+03  0.44922348821E+03  0.41800000000E+01 0. -1.
         -5    1    3    3    0  502 -0.14380449128E+02  0.26142908742E+02 -0.10706308200E+02  0.31974152528E+02  0.41800000000E+01 0. -1.
        -11    1    1    2    0    0  0.35111984874E+02  0.74983373859E+01 -0.40682603563E+01  0.36133464928E+02  0.00000000000E+00 0. -1.
         11    1    1    2    0    0  0.26463515739E+02 -0.76394124873E+02 -0.10582608105E+03  0.13317484526E+03  0.00000000000E+00 0.  1.
</event>
<event>
 7    1  0.2564986E-009  0.1544755E+03  0.7561462E-02  0.1195079E+00
         -2   -1    0    0    0  501 -0.00000000000E+00  0.00000000000E+00  0.19932001977E+02  0.19932001977E+02  0.00000000000E+00 0.  1.
          2   -1    0    0  501    0  0.00000000000E+00 -0.00000000000E+00 -0.12980005904E+04  0.12980005904E+04  0.00000000000E+00 0. -1.
         25    2    1    2    0    0  0.56145538150E+02 -0.10343206550E+03 -0.59140479913E+03  0.61583917348E+03  0.12509091707E+03 0.  0.
          5    1    3    3  502    0  0.44182470552E+02  0.19177599049E+02 -0.15557297302E+03  0.16291191897E+03  0.41800000000E+01 0.  1.
         -5    1    3    3    0  502  0.11963067598E+02 -0.12260966454E+03 -0.43583182611E+03  0.45292725451E+03  0.41800000000E+01 0.  1.
        -11    1    1    2    0    0 -0.72989698230E+02  0.77874454533E+02 -0.61459235230E+03  0.62379138037E+03  0.00000000000E+00 0.  1.
         11    1    1    2    0    0  0.16844160080E+02  0.25557610964E+02 -0.72071436970E+02  0.78302038504E+02  0.00000000000E+00 0. -1.
</event>
<event>
 7    1  0.2564986E-009  0.1208363E+03  0.7561462E-02  0.1241724E+00
         -3   -1    0    0    0  501 -0.00000000000E+00  0.00000000000E+00  0.43887889538E+03  0.43887889538E+03  0.00000000000E+00 0.  1.
          3   -1    0    0  501    0  0.00000000000E+00 -0.00000000000E+00 -0.48732274154E+02  0.48732274154E+02  0.00000000000E+00 0. -1.
         25    2    1    2    0    0 -0.39087279481E+02 -0.85832664799E+02  0.17224874161E+03  0.23283349034E+03  0.12508694365E+03 0.  0.
          5    1    3    3  502    0 -0.30533100316E+01  0.13503912781E+02  0.10827402777E+03  0.10923559792E+03  0.41800000000E+01 0.  1.
         -5    1    3    3    0  502 -0.36033969450E+02 -0.99336577580E+02  0.63974713839E+02  0.12359789242E+03  0.41800000000E+01 0.  1.
        -11    1    1    2    0    0  0.61526826595E+02  0.73497868782E+02  0.20456596691E+03  0.22590865836E+03  0.00000000000E+00 0.  1.
         11    1    1    2    0    0 -0.22439547114E+02  0.12334796017E+02  0.13331912707E+02  0.28869020834E+02  0.00000000000E+00 0. -1.
</event>
<event>
 7    1  0.2564986E-009  0.1197010E+03  0.7561462E-02  0.1243591E+00
          2   -1    0    0  501    0  0.00000000000E+00  0.00000000000E+00  0.10470111789E+03  0.10470111789E+03  0.00000000000E+00 0.  1.
         -2   -1    0    0    0  501 -0.00000000000E+00 -0.00000000000E+00 -0.21318195731E+03  0.21318195731E+03  0.00000000000E+00 0. -1.
         25    2    1    2    0    0 -0.27729597228E+02 -0.66734151563E+02 -0.13479400449E+03  0.19757951108E+03  0.12508342018E+03 0.  0.
          5    1    3    3  502    0  0.11181672255E+02  0.23714267642E+02  0.45197555257E+01  0.26931336288E+02  0.41800000000E+01 0. -1.
         -5    1    3    3    0  502 -0.38911269483E+02 -0.90448419205E+02 -0.13931376001E+03  0.17064817479E+03  0.41800000000E+01 0. -1.
        -11    1    1    2    0    0  0.40636884902E+02  0.83664561802E+02  0.10129525786E+02  0.93561330734E+02  0.00000000000E+00 0. -1.
         11    1    1    2    0    0 -0.12907287674E+02 -0.16930410239E+02  0.16183639286E+02  0.26742233386E+02  0.00000000000E+00 0.  1.
</event>
<event>
 7    1  0.2564986E-009  0.1245979E+03  0.7561462E-02  0.1235699E+00
          1   -1    0    0  501    0  0.00000000000E+00  0.00000000000E+00  0.55740360710E+03  0.55740360710E+03  0.00000000000E+00 0. -1.
         -1   -1    0    0    0  501 -0.00000000000E+00 -0.00000000000E+00 -0.28984099362E+02  0.28984099362E+02  0.00000000000E+00 0.  1.
         25    2    1    2    0    0 -0.53087819432E+02  0.38583679868E+02  0.32440361500E+03  0.35382499479E+03  0.12508958626E+03 0.  0.
          5    1    3    3  502    0  0.36872901435E+02 -0.94914315545E+01  0.10690793690E+03  0.11356265894E+03  0.41800000000E+01 0.  1.
         -5    1    3    3    0  502 -0.89960720867E+02  0.48075111423E+02  0.21749567810E+03  0.24026233586E+03  0.41800000000E+01 0.  1.
        -11    1    1    2    0    0  0.77974710042E+01  0.27560256778E+02  0.79210798123E+02  0.84230154025E+02  0.00000000000E+00 0. -1.
         11    1    1    2    0    0  0.45290348428E+02 -0.66143936646E+02  0.12480509461E+03  0.14833255764E+03  0.00000000000E+00 0.  1.
</event>
<event>
 7    1  0.2564986E-009  0.9150341E+02  0.7561462E-02  0.1299251E+00
          2   -1    0    0  501    0  0.00000000000E+00  0.00000000000E+00  0.69783388751E+03  0.69783388751E+03  0.00000000000E+00 0. -1.
         -2   -1    0    0    0  501 -0.00000000000E+00 -0.00000000000E+00 -0.17943161469E+02  0.17943161469E+02  0.00000000000E+00 0.  1.
         25    2    1    2    0    0  0.12971865186E+02 -0.16816955231E+02  0.47128664720E+03  0.48806780960E+03  0.12509198083E+03 0.  0.
          5    1    3    3  502    0  0.49489050051E+02  0.49904834228E+01  0.78920181271E+02  0.93380610469E+02  0.41800000000E+01 0. -1.
         -5    1    3    3    0  502 -0.36517184864E+02 -0.21807438653E+02  0.39236646593E+03  0.39468719913E+03  0.41800000000E+01 0. -1.
        -11    1    1    2    0    0  0.16472219910E+02 -0.30476503050E+02  0.64566896742E+02  0.73273702116E+02  0.00000000000E+00 0. -1.
         11    1    1    2    0    0 -0.29444085097E+02  0.47293458280E+02  0.14403718210E+03  0.15443553727E+03  0.00000000000E+00 0.  1.
</event>
<event>
 7    1  0.2564986E-009  0.1455110E+03  0.7561462E-02  0.1206100E+00
         -1   -1    0    0    0  501 -0.00000000000E+00  0.00000000000E+00  0.10309749346E+03  0.10309749346E+03  0.00000000000E+00 0.  1.
          1   -1    0    0  501    0  0.00000000000E+00 -0.00000000000E+00 -0.27558163160E+03  0.27558163160E+03  0.00000000000E+00 0. -1.
         25    2    1    2    0    0  0.89312040674E+02 -0.88435068068E+02 -0.61490675468E+02  0.18768449288E+03  0.12508782445E+03 0.  0.
          5    1    3    3  502    0  0.33873686848E+02 -0.15906512128E+01  0.33233816040E+02  0.47664617490E+02  0.41800000000E+01 0.  1.
         -5    1    3    3    0  502  0.55438353826E+02 -0.86844416855E+02 -0.94724491507E+02  0.14001987539E+03  0.41800000000E+01 0.  1.
        -11    1    1    2    0    0 -0.67348779712E+02  0.50816997357E+01 -0.62867678397E+02  0.92271484154E+02  0.00000000000E+00 0. -1.
         11    1    1    2    0    0 -0.21963260962E+02  0.83353368332E+02 -0.48125784271E+02  0.98723148026E+02  0.00000000000E+00 0.  1.
</event>
<event>
 7    1  0.2564986E-009  0.1268370E+03  0.7561462E-02  0.1232226E+00
          1   -1    0    0  501    0  0.00000000000E+00  0.00000000000E+00  0.44609171058E+02  0.44609171058E+02  0.00000000000E+00 0. -1.
         -1   -1    0    0    0  501 -0.00000000000E+00 -0.00000000000E+00 -0.36733120494E+03  0.36733120494E+03  0.00000000000E+00 0.  1.
         25    2    1    2    0    0  0.53220581915E+02 -0.39985143303E+02 -0.16209305872E+03  0.21529910665E+03  0.12509317972E+03 0.  0.
          5    1    3    3  502    0  0.12645140860E+01 -0.77318454921E+02 -0.93525367129E+02  0.12142573518E+03  0.41800000000E+01 0.  1.
         -5    1    3    3    0  502  0.51956067829E+02  0.37333311618E+02 -0.68567691593E+02  0.93873371469E+02  0.41800000000E+01 0.  1.
        -11    1    1    2    0    0 -0.66756198944E+02 -0.32280587983E+01 -0.11003243769E+03  0.12873984545E+03  0.00000000000E+00 0.  1.
         11    1    1    2    0    0  0.13535617030E+02  0.43213202102E+02 -0.50596537466E+02  0.67901423901E+02  0.00000000000E+00 0. -1.
</event>
<event>
 7    1  0.3865390E-009  0.9423356E+02  0.7561462E-02  0.1292912E+00
         -1   -1    0    0    0  501 -0.00000000000E+00  0.00000000000E+00  0.19734233314E+03  0.19734233314E+03  0.00000000000E+00 0.  1.
          1   -1    0    0  501    0  0.00000000000E+00 -0.00000000000E+00 -0.70900333991E+02  0.70900333991E+02  0.00000000000E+00 0. -1.
         25    2    1    2    0    0  0.67268476052E+01  0.65206706860E+01  0.18744458470E+02  0.12683025639E+03  0.12508712798E+03 0.  0.
          5    1    3    3  502    0  0.54587017201E+02  0.39193175202E+02  0.93492773620E+01  0.67975942925E+02  0.41800000000E+01 0. -1.
         -5    1    3    3    0  502 -0.47860169595E+02 -0.32672504516E+02  0.93951811081E+01  0.58854313462E+02  0.41800000000E+01 0. -1.
        -11    1    1    2    0    0  0.25694768875E+02 -0.14696779064E+02  0.10357585848E+03  0.10772267599E+03  0.00000000000E+00 0.  1.
         11    1    1    2    0    0 -0.32421616480E+02  0.81761083778E+01  0.41216821925E+01  0.33689734749E+02  0.00000000000E+00 0. -1.
</event>
<event>
 7    1  0.3960826E-009  0.1571153E+03  0.7561462E-02  0.1191993E+00
         -2   -1    0    0    0  501 -0.00000000000E+00  0.00000000000E+00  0.32716562826E+02  0.32716562826E+02  0.00000000000E+00 0.  1.
          2   -1    0    0  501    0  0.00000000000E+00 -0.00000000000E+00 -0.89244165271E+03  0.89244165271E+03  0.00000000000E+00 0. -1.
         25    2    1    2    0    0  0.12923698801E+03 -0.23483254951E+02 -0.43558556418E+03  0.47184317068E+03  0.12509009417E+03 0.  0.
          5    1    3    3  502    0  0.97776487949E+02 -0.65681381456E+02 -0.21670029059E+03  0.24667949612E+03  0.41800000000E+01 0.  1.
         -5    1    3    3    0  502  0.31460500060E+02  0.42198126505E+02 -0.21888527359E+03  0.22516367456E+03  0.41800000000E+01 0.  1.
        -11    1    1    2    0    0 -0.59037116584E+02  0.40174248467E+02 -0.11112527515E+03  0.13209155215E+03  0.00000000000E+00 0.  1.
         11    1    1    2    0    0 -0.70199871425E+02 -0.16690993515E+02 -0.31301425056E+03  0.32122349270E+03  0.00000000000E+00 0. -1.
</event>
<event>
 7    1  0.2564986E-009  0.7948040E+02  0.7561462E-02  0.1330532E+00
          1   -1    0    0  501    0  0.00000000000E+00  0.00000000000E+00  0.22735159706E+03  0.22735159706E+03  0.00000000000E+00 0. -1.
         -1   -1    0    0    0  501 -0.00000000000E+00 -0.00000000000E+00 -0.57443504769E+02  0.57443504769E+02  0.00000000000E+00 0.  1.
         25    2    1    2    0    0  0.27179131406E+02 -0.25323992259E+02  0.87788074370E+02  0.15727212545E+03  0.12509102955E+03 0.  0.
          5    1    3    3  502    0 -0.53505743164E+01  0.16240296625E+02 -0.26213736920E+02  0.31575437975E+02  0.41800000000E+01 0.  1.
         -5    1    3    3    0  502  0.32529705723E+02 -0.41564288884E+02  0.11400181129E+03  0.12569668748E+03  0.41800000000E+01 0.  1.
        -11    1    1    2    0    0 -0.10296488221E+02 -0.29396174034E+02  0.57074079965E+02  0.65020022465E+02  0.00000000000E+00 0. -1.
         11    1    1    2    0    0 -0.16882643185E+02  0.54720166292E+02  0.25045937958E+02  0.62502953915E+02  0.00000000000E+00 0.  1.
</event>
<event>
 7    1  0.2564986E-009  0.2059501E+03  0.7561462E-02  0.1144814E+00
         -2   -1    0    0    0  501 -0.00000000000E+00  0.00000000000E+00  0.81144597078E+02  0.81144597078E+02  0.00000000000E+00 0.  1.
          2   -1    0    0  501    0  0.00000000000E+00 -0.00000000000E+00 -0.58872579051E+03  0.58872579051E+03  0.00000000000E+00 0. -1.
         25    2    1    2    0    0  0.12475288429E+03  0.13617583300E+03 -0.32082306135E+03  0.39074566562E+03  0.12509036284E+03 0.  0.
          5    1    3    3  502    0  0.80703236205E+02  0.15143705892E+03 -0.21562101523E+03  0.27560132394E+03  0.41800000000E+01 0.  1.
         -5    1    3    3    0  502  0.44049648086E+02 -0.15261225923E+02 -0.10520204612E+03  0.11514434168E+03  0.41800000000E+01 0.  1.
        -11    1    1    2    0    0 -0.92365129622E+02 -0.58616210988E+02 -0.15403625919E+03  0.18892947495E+03  0.00000000000E+00 0. -1.
         11    1    1    2    0    0 -0.32387754669E+02 -0.77559622011E+02 -0.32721872897E+02  0.90195247019E+02  0.00000000000E+00 0.  1.
</event>
<event>
 7    1  0.2564986E-009  0.1140916E+03  0.7561462E-02  0.1253175E+00
         -2   -1    0    0    0  501 -0.00000000000E+00  0.00000000000E+00  0.50482517249E+02  0.50482517249E+02  0.00000000000E+00 0. -1.
          2   -1    0    0  501    0  0.00000000000E+00 -0.00000000000E+00 -0.37954315267E+03  0.37954315267E+03  0.00000000000E+00 0.  1.
         25    2    1    2    0    0 -0.57428804887E+02  0.41776367826E+02 -0.25697929443E+03  0.29449780892E+03  0.12508904490E+03 0.  0.
          5    1    3    3  502    0 -0.32032111162E+02  0.80891687919E+02 -0.21356305328E+03  0.23064295231E+03  0.41800000000E+01 0. -1.
         -5    1    3    3    0  502 -0.25396693726E+02 -0.39115320093E+02 -0.43416241144E+02  0.63854856615E+02  0.41800000000E+01 0. -1.
        -11    1    1    2    0    0 -0.98788259070E+01 -0.21979181661E+02  0.11250923502E+02  0.26594339763E+02  0.00000000000E+00 0. -1.
         11    1    1    2    0    0  0.67307630794E+02 -0.19797186165E+02 -0.83332264494E+02  0.10893352124E+03  0.00000000000E+00 0.  1.
</event>
<event>
 7    1  0.2564986E-009  0.1131915E+03  0.7561462E-02  0.1254771E+00
          1   -1    0    0  501    0  0.00000000000E+00  0.00000000000E+00  0.12819214907E+03  0.12819214907E+03  0.00000000000E+00 0. -1.
         -1   -1    0    0    0  501 -0.00000000000E+00 -0.00000000000E+00 -0.15778727362E+03  0.15778727362E+03  0.00000000000E+00 0.  1.
         25    2    1    2    0    0 -0.54591915816E+02  0.98943694857E+01  0.56969017499E+02  0.14822333731E+03  0.12508602219E+03 0.  0.
          5    1    3    3  502    0  0.36616288596E+02 -0.43857298215E+01 -0.42724409720E+01  0.37359247429E+02  0.41800000000E+01 0. -1.
         -5    1    3    3    0  502 -0.91208204413E+02  0.14280099307E+02  0.61241458471E+02  0.11086408988E+03  0.41800000000E+01 0. -1.
        -11    1    1    2    0    0  0.75103594305E+02 -0.12641883153E+02 -0.38312732018E+02  0.85253929657E+02  0.00000000000E+00 0.  1.
         11    1    1    2    0    0 -0.20511678489E+02  0.27475136677E+01 -0.48251410031E+02  0.52502155724E+02  0.00000000000E+00 0. -1.
</event>
<event>
 7    1  0.2564986E-009  0.1148964E+03  0.7561462E-02  0.1251762E+00
          1   -1    0    0  501    0  0.00000000000E+00  0.00000000000E+00  0.28189206823E+03  0.28189206823E+03  0.00000000000E+00 0. -1.
         -1   -1    0    0    0  501 -0.00000000000E+00 -0.00000000000E+00 -0.54358498610E+02  0.54358498610E+02  0.00000000000E+00 0.  1.
         25    2    1    2    0    0 -0.28696650946E+02 -0.28378512742E+02  0.18565786857E+03  0.22747464530E+03  0.12508809828E+03 0.  0.
          5    1    3    3  502    0 -0.30091033422E+02  0.46974255636E+02  0.77385277357E+02  0.95488242923E+02  0.41800000000E+01 0. -1.
         -5    1    3    3    0  502  0.13943824762E+01 -0.75352768377E+02  0.10827259122E+03  0.13198640238E+03  0.41800000000E+01 0. -1.
        -11    1    1    2    0    0  0.39324872281E+02 -0.23232712692E+02  0.86661025877E+01  0.46489846774E+02  0.00000000000E+00 0.  1.
         11    1    1    2    0    0 -0.10628221336E+02  0.51611225434E+02  0.33209598460E+02  0.62286074763E+02  0.00000000000E+00 0. -1.
</event>
<event>
 7    1  0.2564986E-009  0.1060762E+03  0.7561462E-02  0.1268014E+00
          2   -1    0    0  501    0  0.00000000000E+00  0.00000000000E+00  0.19968748528E+03  0.19968748528E+03  0.00000000000E+00 0. -1.
         -2   -1    0    0    0  501 -0.00000000000E+00 -0.00000000000E+00 -0.80762156304E+02  0.80762156304E+02  0.00000000000E+00 0.  1.
         25    2    1    2    0    0  0.14452832749E+02  0.63931123329E+02  0.59172744827E+02  0.15312372742E+03  0.12509751902E+03 0.  0.
          5    1    3    3  502    0  0.61768561366E+02  0.33374541129E+02 -0.13439831290E+01  0.70345531909E+02  0.41800000000E+01 0.  1.
         -5    1    3    3    0  502 -0.47315728618E+02  0.30556582200E+02  0.60516727956E+02  0.82778195516E+02  0.41800000000E+01 0.  1.
        -11    1    1    2    0    0 -0.35473724996E+02 -0.41607239008E+02  0.75212044276E+02  0.92986015653E+02  0.00000000000E+00 0. -1.
         11    1    1    2    0    0  0.21020892248E+02 -0.22323884321E+02 -0.15459460127E+02  0.34339898507E+02  0.00000000000E+00 0.  1.
</event>
<event>
 7    1  0.2564986E-009  0.3106979E+03  0.7561462E-02  0.1080012E+00
         -2   -1    0    0    0  501 -0.00000000000E+00  0.00000000000E+00  0.36115168276E+02  0.36115168276E+02  0.00000000000E+00 0.  1.
          2   -1    0    0  501    0  0.00000000000E+00 -0.00000000000E+00 -0.28265543291E+04  0.28265543291E+04  0.00000000000E+00 0. -1.
         25    2    1    2    0    0 -0.23164255213E+03 -0.18720162309E+03 -0.12840730299E+04  0.13240827911E+04  0.12509585111E+03 0.  0.
          5    1    3    3  502    0 -0.30546377170E+02  0.42343021766E+01 -0.48010472609E+02  0.57214406868E+02  0.41800000000E+01 0.  1.
         -5    1    3    3    0  502 -0.20109617496E+03 -0.19143592527E+03 -0.12360625573E+04  0.12668683843E+04  0.41800000000E+01 0.  1.
        -11    1    1    2    0    0  0.22968522762E+03  0.14776245690E+03 -0.12814012438E+04  0.13101825045E+04  0.00000000000E+00 0.  1.
         11    1    1    2    0    0  0.19573245036E+01  0.39439166192E+02 -0.22496488707E+03  0.22840420173E+03  0.00000000000E+00 0. -1.
</event>
<event>
 7    1  0.2564986E-009  0.1019803E+03  0.7561462E-02  0.1276186E+00
         -2   -1    0    0    0  501 -0.00000000000E+00  0.00000000000E+00  0.10514726831E+03  0.10514726831E+03  0.00000000000E+00 0.  1.
          2   -1    0    0  501    0  0.00000000000E+00 -0.00000000000E+00 -0.15430839313E+03  0.15430839313E+03  0.00000000000E+00 0. -1.
         25    2    1    2    0    0 -0.98059459344E+01 -0.56756507816E+02  0.69878301298E+01  0.13788864584E+03  0.12508793358E+03 0.  0.
          5    1    3    3  502    0 -0.32041686889E+02  0.22889501430E+02  0.32523517015E+02  0.51243053514E+02  0.41800000000E+01 0. -1.
         -5    1    3    3    0  502  0.22235740954E+02 -0.79646009246E+02 -0.25535686885E+02  0.86645592325E+02  0.41800000000E+01 0. -1.
        -11    1    1    2    0    0  0.16130994093E+02 -0.69357691606E+01  0.16950848459E+02  0.24405842082E+02  0.00000000000E+00 0.  1.
         11    1    1    2    0    0 -0.63250481581E+01  0.63692276977E+02 -0.73099803409E+02  0.97161173517E+02  0.00000000000E+00 0. -1.
</event>
<event>
 7    1  0.2564986E-009  0.9722503E+02  0.7561462E-02  0.1286242E+00
         -1   -1    0    0    0  501 -0.00000000000E+00  0.00000000000E+00  0.73600212358E+02  0.73600212358E+02  0.00000000000E+00 0.  1.
          1   -1    0    0  501    0  0.00000000000E+00 -0.00000000000E+00 -0.18862067288E+03  0.18862067288E+03  0.00000000000E+00 0. -1.
         25    2    1    2    0    0  0.29789474907E+02 -0.20167333305E+02 -0.88840306338E+02  0.15759192170E+03  0.12509388317E+03 0.  0.
          5    1    3    3  502    0 -0.42889389199E+02  0.14544900818E+02 -0.14054559267E+02  0.47603118404E+02  0.41800000000E+01 0. -1.
         -5    1    3    3    0  502  0.72678864106E+02 -0.34712234123E+02 -0.74785747071E+02  0.10998880330E+03  0.41800000000E+01 0. -1.
        -11    1    1    2    0    0 -0.30149292960E+02  0.39104278572E+02 -0.52584727304E+02  0.72133750868E+02  0.00000000000E+00 0. -1.
         11    1    1    2    0    0  0.35981805246E+00 -0.18936945267E+02  0.26404573118E+02  0.32495212673E+02  0.00000000000E+00 0.  1.
</event>
<event>
 7    1  0.2564986E-009  0.1281458E+03  0.7561462E-02  0.1230233E+00
          1   -1    0    0  501    0  0.00000000000E+00  0.00000000000E+00  0.67882489616E+03  0.67882489616E+03  0.00000000000E+00 0. -1.
         -1   -1    0    0    0  501 -0.00000000000E+00 -0.00000000000E+00 -0.25506017410E+02  0.25506017410E+02  0.00000000000E+00 0.  1.
         25    2    1    2    0    0  0.31579745354E+01  0.69068630984E+02  0.43417804049E+03  0.45709739678E+03  0.12508801184E+03 0.  0.
          5    1    3    3  502    0 -0.23494916346E+02 -0.30596299831E+02  0.14227278216E+03  0.14746918865E+03  0.41800000000E+01 0. -1.
         -5    1    3    3    0  502  0.26652890881E+02  0.99664930815E+02  0.29190525834E+03  0.30962820813E+03  0.41800000000E+01 0. -1.
        -11    1    1    2    0    0 -0.40718912528E+02 -0.64667854766E+02  0.13915355276E+03  0.15875664560E+03  0.00000000000E+00 0. -1.
         11    1    1    2    0    0  0.37560937993E+02 -0.44007762180E+01  0.79987285491E+02  0.88476871183E+02  0.00000000000E+00 0.  1.
</event>
<event>
 7    1  0.2564986E-009  0.2636571E+03  0.7561462E-02  0.1104966E+00
          1   -1    0    0  501    0  0.00000000000E+00  0.00000000000E+00  0.27076052677E+03  0.27076052677E+03  0.00000000000E+00 0.  1.
         -1   -1    0    0    0  501 -0.00000000000E+00 -0.00000000000E+00 -0.29887028978E+03  0.29887028978E+03  0.00000000000E+00 0. -1.
         25    2    1    2    0    0  0.25752361263E+03 -0.66197945489E+01  0.38209919633E+02  0.28890840263E+03  0.12508330988E+03 0.  0.
          5    1    3    3  502    0  0.24584976766E+03  0.10089397462E+02  0.65434400600E+02  0.25464296060E+03  0.41800000000E+01 0.  1.
         -5    1    3    3    0  502  0.11673844973E+02 -0.16709192011E+02 -0.27224480967E+02  0.34265442037E+02  0.41800000000E+01 0.  1.
        -11    1    1    2    0    0 -0.21238566854E+03 -0.91996929591E+01 -0.85574762986E+02  0.22916227135E+03  0.00000000000E+00 0. -1.
         11    1    1    2    0    0 -0.45137944092E+02  0.15819487508E+02  0.19255080341E+02  0.51560142560E+02  0.00000000000E+00 0.  1.
</event>
<event>
 7    1  0.2564986E-009  0.1407719E+03  0.7561462E-02  0.1212294E+00
         -2   -1    0    0    0  501 -0.00000000000E+00  0.00000000000E+00  0.76452192631E+02  0.76452192631E+02  0.00000000000E+00 0.  1.
          2   -1    0    0  501    0  0.00000000000E+00 -0.00000000000E+00 -0.39105153502E+03  0.39105153502E+03  0.00000000000E+00 0. -1.
         25    2    1    2    0    0  0.48787739888E+02 -0.11142834607E+03 -0.92868236369E+02  0.19765991427E+03  0.12509361500E+03 0.  0.
          5    1    3    3  502    0  0.59889964142E+02 -0.77173195348E+02 -0.11822684953E+03  0.15341958882E+03  0.41800000000E+01 0. -1.
         -5    1    3    3    0  502 -0.11102224254E+02 -0.34255150722E+02  0.25358613161E+02  0.44240325449E+02  0.41800000000E+01 0. -1.
        -11    1    1    2    0    0 -0.57670190772E+02  0.28888520790E+02 -0.13592134514E+03  0.15044935893E+03  0.00000000000E+00 0.  1.
         11    1    1    2    0    0  0.88824508846E+01  0.82539825280E+02 -0.85809760875E+02  0.11939445445E+03  0.00000000000E+00 0. -1.
</event>
<event>
 7    1  0.2564986E-009  0.2086880E+03  0.7561462E-02  0.1142609E+00
         -1   -1    0    0    0  501 -0.00000000000E+00  0.00000000000E+00  0.68668095506E+02  0.68668095506E+02  0.00000000000E+00 0.  1.
          1   -1    0    0  501    0  0.00000000000E+00 -0.00000000000E+00 -0.86058093901E+03  0.86058093901E+03  0.00000000000E+00 0. -1.
         25    2    1    2    0    0  0.65891518870E+02 -0.18051023710E+03 -0.60094486529E+03  0.64320119976E+03  0.12508962505E+03 0.  0.
          5    1    3    3  502    0 -0.81003689787E+01 -0.10491200249E+03 -0.17450868926E+03  0.20382075280E+03  0.41800000000E+01 0.  1.
         -5    1    3    3    0  502  0.73991887848E+02 -0.75598234611E+02 -0.42643617603E+03  0.43938044696E+03  0.41800000000E+01 0.  1.
        -11    1    1    2    0    0 -0.82026030416E+02  0.13554955516E+03 -0.11297842510E+03  0.19459207617E+03  0.00000000000E+00 0. -1.
         11    1    1    2    0    0  0.16134511547E+02  0.44960681944E+02 -0.77989553111E+02  0.91455758584E+02  0.00000000000E+00 0.  1.
</event>
<event>
 7    1  0.2564986E-009  0.1016284E+03  0.7561462E-02  0.1276909E+00
         -2   -1    0    0    0  501 -0.00000000000E+00  0.00000000000E+00  0.20001029274E+03  0.20001029274E+03  0.00000000000E+00 0.  1.
          2   -1    0    0  501    0  0.00000000000E+00 -0.00000000000E+00 -0.78447480557E+02  0.78447480557E+02  0.00000000000E+00 0. -1.
         25    2    1    2    0    0 -0.20195934267E+02  0.59765033620E+02  0.67138175986E+02  0.15535360428E+03  0.12508985843E+03 0.  0.
          5    1    3    3  502    0  0.11229029897E+02  0.88096799069E+02  0.69383948791E+02  0.11277739964E+03  0.41800000000E+01 0. -1.
         -5    1    3    3    0  502 -0.31424964165E+02 -0.28331765449E+02 -0.22457728050E+01  0.42576204642E+02  0.41800000000E+01 0. -1.
        -11    1    1    2    0    0  0.10824303107E+02  0.50650142494E+00 -0.22475071384E+02  0.24950970225E+02  0.00000000000E+00 0. -1.
         11    1    1    2    0    0  0.93716311603E+01 -0.60271535045E+02  0.76899707577E+02  0.98153198790E+02  0.00000000000E+00 0.  1.
</event>
<event>
 7    1  0.2564986E-009  0.9511113E+02  0.7561462E-02  0.1290926E+00
         -2   -1    0    0    0  501 -0.00000000000E+00  0.00000000000E+00  0.87227235479E+02  0.87227235479E+02  0.00000000000E+00 0. -1.
          2   -1    0    0  501    0  0.00000000000E+00 -0.00000000000E+00 -0.20339500335E+03  0.20339500335E+03  0.00000000000E+00 0.  1.
         25    2    1    2    0    0  0.17904616592E+02 -0.56178979183E+02 -0.90962255988E+01  0.13859281068E+03  0.12509425588E+03 0.  0.
          5    1    3    3  502    0 -0.23890762907E+02  0.23766206814E+02  0.24889107554E+02  0.42101558326E+02  0.41800000000E+01 0. -1.
         -5    1    3    3    0  502  0.41795379499E+02 -0.79945185997E+02 -0.33985333153E+02  0.96491252355E+02  0.41800000000E+01 0. -1.
        -11    1    1    2    0    0 -0.25702178115E+02  0.35269106806E+02 -0.11898242845E+03  0.12673330318E+03  0.00000000000E+00 0.  1.
         11    1    1    2    0    0  0.77975615233E+01  0.20909872377E+02  0.11910886183E+02  0.25296124964E+02  0.00000000000E+00 0. -1.
</event>
<event>
 7    1  0.2564986E-009  0.1011932E+03  0.7561462E-02  0.1277807E+00
          2   -1    0    0  501    0  0.00000000000E+00  0.00000000000E+00  0.18231591781E+03  0.18231591781E+03  0.00000000000E+00 0.  1.
         -2   -1    0    0    0  501 -0.00000000000E+00 -0.00000000000E+00 -0.80287039557E+02  0.80287039557E+02  0.00000000000E+00 0. -1.
         25    2    1    2    0    0  0.44031590541E+02  0.31923527429E+02  0.51197539969E+02  0.14569787579E+03  0.12509512517E+03 0.  0.
          5    1    3    3  502    0  0.66814282115E+02  0.32754101987E+02  0.79596261179E+02  0.10904135310E+03  0.41800000000E+01 0.  1.
         -5    1    3    3    0  502 -0.22782691573E+02 -0.83057455756E+00 -0.28398721210E+02  0.36656522691E+02  0.41800000000E+01 0.  1.
        -11    1    1    2    0    0 -0.34265001407E+02  0.27824376527E+02  0.27610623242E+02  0.52063737537E+02  0.00000000000E+00 0. -1.
         11    1    1    2    0    0 -0.97665891344E+01 -0.59747903956E+02  0.23220715046E+02  0.64841344046E+02  0.00000000000E+00 0.  1.
</event>
<event>
 7    1  0.2564986E-009  0.1347372E+03  0.7561462E-02  0.1220591E+00
          3   -1    0    0  501    0  0.00000000000E+00  0.00000000000E+00  0.27570469700E+03  0.27570469700E+03  0.00000000000E+00 0. -1.
         -3   -1    0    0    0  501 -0.00000000000E+00 -0.00000000000E+00 -0.10665103059E+03  0.10665103059E+03  0.00000000000E+00 0.  1.
         25    2    1    2    0    0 -0.10439183543E+03 -0.70267932135E+02  0.13792585951E+03  0.22473172054E+03  0.12508223655E+03 0.  0.
          5    1    3    3  502    0 -0.11532000424E+02 -0.42832293469E+02 -0.12059703406E+02  0.46157353085E+02  0.41800000000E+01 0.  1.
         -5    1    3    3    0  502 -0.92859835010E+02 -0.27435638666E+02  0.14998556292E+03  0.17857436745E+03  0.41800000000E+01 0.  1.
        -11    1    1    2    0    0  0.32847845698E+02  0.96641791389E+01 -0.30142762676E+02  0.45617578489E+02  0.00000000000E+00 0.  1.
         11    1    1    2    0    0  0.71543989735E+02  0.60603752996E+02  0.61270569569E+02  0.11200642856E+03  0.00000000000E+00 0. -1.
</event>
<event>
 7    1  0.2564986E-009  0.8542436E+02  0.7561462E-02  0.1314327E+00
          2   -1    0    0  501    0  0.00000000000E+00  0.00000000000E+00  0.55544032813E+02  0.55544032813E+02  0.00000000000E+00 0. -1.
         -2   -1    0    0    0  501 -0.00000000000E+00 -0.00000000000E+00 -0.33261673196E+03  0.33261673196E+03  0.00000000000E+00 0.  1.
         25    2    1    2    0    0 -0.34950270622E+02 -0.72081528137E+02 -0.12844565861E+03  0.19637101222E+03  0.12508404817E+03 0.  0.
          5    1    3    3  502    0 -0.13304654719E+02 -0.13763663988E+02  0.24403202102E+02  0.31296021414E+02  0.41800000000E+01 0.  1.
         -5    1    3    3    0  502 -0.21645615904E+02 -0.58317864149E+02 -0.15284886071E+03  0.16507499080E+03  0.41800000000E+01 0.  1.
        -11    1    1    2    0    0  0.14095733773E+02  0.23564233541E+00  0.94033047407E+01  0.16946013630E+02  0.00000000000E+00 0. -1.
         11    1    1    2    0    0  0.20854536850E+02  0.71845885802E+02 -0.15803034528E+03  0.17484373893E+03  0.00000000000E+00 0.  1.
</event>
<event>
 7    1  0.2564986E-009  0.1003771E+03  0.7561462E-02  0.1279505E+00
          3   -1    0    0  501    0  0.00000000000E+00  0.00000000000E+00  0.12506596043E+03  0.12506596043E+03  0.00000000000E+00 0. -1.
         -3   -1    0    0    0  501 -0.00000000000E+00 -0.00000000000E+00 -0.89585164553E+02  0.89585164553E+02  0.00000000000E+00 0.  1.
         25    2    1    2    0    0 -0.18628033281E+02 -0.13623607956E+02  0.12387428411E+02  0.12780589179E+03  0.12509313041E+03 0.  0.
          5    1    3    3  502    0  0.18498854788E+02 -0.56835774695E+02  0.31342394379E+02  0.67619013592E+02  0.41800000000E+01 0.  1.
         -5    1    3    3    0  502 -0.37126888069E+02  0.43212166739E+02 -0.18954965968E+02  0.60186878195E+02  0.41800000000E+01 0.  1.
        -11    1    1    2    0    0  0.60127337618E+01  0.47336877918E+02  0.12691015401E+02  0.49376055434E+02  0.00000000000E+00 0. -1.
         11    1    1    2    0    0  0.12615299520E+02 -0.33713269962E+02  0.10402352060E+02  0.37469177758E+02  0.00000000000E+00 0.  1.
</event>
<event>
 7    1  0.2564986E-009  0.1248921E+03  0.7561462E-02  0.1235238E+00
          1   -1    0    0  501    0  0.00000000000E+00  0.00000000000E+00  0.72108618411E+03  0.72108618411E+03  0.00000000000E+00 0. -1.
         -1   -1    0    0    0  501 -0.00000000000E+00 -0.00000000000E+00 -0.35457596962E+02  0.35457596962E+02  0.00000000000E+00 0.  1.
         25    2    1    2    0    0 -0.34516749976E+02  0.68369525899E+02  0.15729569784E+03  0.21507099019E+03  0.12509115140E+03 0.  0.
          5    1    3    3  502    0  0.16800656932E+02 -0.30507055871E+02  0.34016677367E+02  0.48862554890E+02  0.41800000000E+01 0. -1.
         -5    1    3    3    0  502 -0.51317406908E+02  0.98876581770E+02  0.12327902048E+03  0.16620843530E+03  0.41800000000E+01 0. -1.
        -11    1    1    2    0    0 -0.13779158403E+02  0.56118181553E+01  0.17119945065E+02  0.22681495285E+02  0.00000000000E+00 0.  1.
         11    1    1    2    0    0  0.48295908379E+02 -0.73981344054E+02  0.51121294423E+03  0.51879129560E+03  0.00000000000E+00 0. -1.
</event>
<event>
 7    1  0.2564986E-009  0.1188860E+03  0.7561462E-02  0.1244946E+00
          1   -1    0    0  501    0  0.00000000000E+00  0.00000000000E+00  0.35897930302E+02  0.35897930302E+02  0.00000000000E+00 0. -1.
         -1   -1    0    0    0  501 -0.00000000000E+00 -0.00000000000E+00 -0.46972228480E+03  0.46972228480E+03  0.00000000000E+00 0.  1.
         25    2    1    2    0    0 -0.66045346695E+02 -0.44176673990E+01 -0.19295492609E+03  0.23929358564E+03  0.12509321733E+03 0.  0.
          5    1    3    3  502    0 -0.89572553955E+02 -0.24824168271E+02 -0.18468813278E+03  0.20680101678E+03  0.41800000000E+01 0.  1.
         -5    1    3    3    0  502  0.23527207260E+02  0.20406500872E+02 -0.82667933053E+01  0.32492568856E+02  0.41800000000E+01 0.  1.
        -11    1    1    2    0    0  0.26975756872E+02  0.47823095692E+02 -0.10669579076E+03  0.11999471532E+03  0.00000000000E+00 0.  1.
         11    1    1    2    0    0  0.39069589823E+02 -0.43405428293E+02 -0.13417363765E+03  0.14633191414E+03  0.00000000000E+00 0. -1.
</event>
<event>
 7    1  0.2564986E-009  0.9565843E+02  0.7561462E-02  0.1289700E+00
          2   -1    0    0  501    0  0.00000000000E+00  0.00000000000E+00  0.58214978701E+03  0.58214978701E+03  0.00000000000E+00 0. -1.
         -2   -1    0    0    0  501 -0.00000000000E+00 -0.00000000000E+00 -0.21432432620E+02  0.21432432620E+02  0.00000000000E+00 0.  1.
         25    2    1    2    0    0 -0.98179535005E+00 -0.20509660531E+02  0.37116997996E+03  0.39222126501E+03  0.12509499033E+03 0.  0.
          5    1    3    3  502    0 -0.11486469046E+02  0.51932929735E+02  0.14878553689E+03  0.15806193897E+03  0.41800000000E+01 0.  1.
         -5    1    3    3    0  502  0.10504673696E+02 -0.72442590266E+02  0.22238444306E+03  0.23415932604E+03  0.41800000000E+01 0.  1.
        -11    1    1    2    0    0 -0.29234795938E+02  0.17983813323E+02  0.21283032766E+02  0.40386363031E+02  0.00000000000E+00 0.  1.
         11    1    1    2    0    0  0.30216591288E+02  0.25258472089E+01  0.16826434167E+03  0.17097459160E+03  0.00000000000E+00 0. -1.
</event>
<event>
 7    1  0.3592169E-009  0.1061765E+03  0.7561462E-02  0.1267819E+00
          2   -1    0    0  501    0  0.00000000000E+00  0.00000000000E+00  0.38572249222E+02  0.38572249222E+02  0.00000000000E+00 0. -1.
         -2   -1    0    0    0  501 -0.00000000000E+00 -0.00000000000E+00 -0.37352388653E+03  0.37352388653E+03  0.00000000000E+00 0.  1.
         25    2    1    2    0    0 -0.23370994579E+02  0.42258537656E+02 -0.15562687418E+03  0.20542122034E+03  0.12508463697E+03 0.  0.
          5    1    3    3  502    0  0.37945797137E+02  0.61100129150E+01 -0.11928151418E+03  0.12539046137E+03  0.41800000000E+01 0.  1.
         -5    1    3    3    0  502 -0.61316791717E+02  0.36148524741E+02 -0.36345360008E+02  0.80030758971E+02  0.41800000000E+01 0.  1.
        -11    1    1    2    0    0  0.32915973110E+02  0.20586984243E+02 -0.76511312938E+02  0.85797821729E+02  0.00000000000E+00 0.  1.
         11    1    1    2    0    0 -0.95449785303E+01 -0.62845521899E+02 -0.10281345018E+03  0.12087709368E+03  0.00000000000E+00 0. -1.
</event>
<event>
 7    1  0.2564986E-009  0.1051988E+03  0.7561462E-02  0.1269729E+00
          2   -1    0    0  501    0  0.00000000000E+00  0.00000000000E+00  0.59093566618E+03  0.59093566618E+03  0.00000000000E+00 0.  1.
         -2   -1    0    0    0  501 -0.00000000000E+00 -0.00000000000E+00 -0.26196163060E+02  0.26196163060E+02  0.00000000000E+00 0. -1.
         25    2    1    2    0    0  0.18567120132E+02  0.48927280074E+02  0.38479775804E+03  0.40798717813E+03  0.12508239782E+03 0.  0.
          5    1    3    3  502    0 -0.50707344651E+02  0.39957162333E+02  0.20861733783E+03  0.21841812119E+03  0.41800000000E+01 0. -1.
         -5    1    3    3    0  502  0.69274464782E+02  0.89701177411E+01  0.17618042021E+03  0.18956905694E+03  0.41800000000E+01 0. -1.
        -11    1    1    2    0    0 -0.33014175445E+02 -0.10454212628E+02  0.15955477846E+03  0.16326957363E+03  0.00000000000E+00 0.  1.
         11    1    1    2    0    0  0.14447055314E+02 -0.38473067446E+02  0.20386966619E+02  0.45875077481E+02  0.00000000000E+00 0. -1.
</event>
<event>
 7    1  0.2564986E-009  0.1624264E+03  0.7561462E-02  0.1185984E+00
         -1   -1    0    0    0  501 -0.00000000000E+00  0.00000000000E+00  0.12336566296E+03  0.12336566296E+03  0.00000000000E+00 0.  1.
          1   -1    0    0  501    0  0.00000000000E+00 -0.00000000000E+00 -0.42506454768E+03  0.42506454768E+03  0.00000000000E+00 0. -1.
         25    2    1    2    0    0  0.61928966309E+02  0.10537490367E+03 -0.34731632178E+03  0.38886471545E+03  0.12509225540E+03 0.  0.
          5    1    3    3  502    0 -0.13214297987E+02 -0.22546629238E+02 -0.53901500213E+02  0.60048416186E+02  0.41800000000E+01 0. -1.
         -5    1    3    3    0  502  0.75143264296E+02  0.12792153291E+03 -0.29341482156E+03  0.32881629927E+03  0.41800000000E+01 0. -1.
        -11    1    1    2    0    0 -0.61182298682E+02 -0.19678301675E+02  0.35081687887E+02  0.73220448331E+02  0.00000000000E+00 0. -1.
         11    1    1    2    0    0 -0.74666762706E+00 -0.85696601996E+02  0.10535749168E+02  0.86345046857E+02  0.00000000000E+00 0.  1.
</event>
<event>
 7    1  0.2564986E-009  0.1376238E+03  0.7561462E-02  0.1216563E+00
         -1   -1    0    0    0  501 -0.00000000000E+00  0.00000000000E+00  0.37197525978E+03  0.37197525978E+03  0.00000000000E+00 0.  1.
          1   -1    0    0  501    0  0.00000000000E+00 -0.00000000000E+00 -0.64334588378E+02  0.64334588378E+02  0.00000000000E+00 0. -1.
         25    2    1    2    0    0 -0.10039673783E+03 -0.42806005624E+02  0.14923068037E+03  0.22321849394E+03  0.12507933878E+03 0.  0.
          5    1    3    3  502    0 -0.12795963353E+03 -0.47289257305E+02  0.13339637463E+03  0.19084550515E+03  0.41800000000E+01 0.  1.
         -5    1    3    3    0  502  0.27562895703E+02  0.44832516804E+01  0.15834305734E+02  0.32372988791E+02  0.41800000000E+01 0.  1.
        -11    1    1    2    0    0  0.25690534559E+02  0.19561644279E+02 -0.42736668686E+01  0.32571854741E+02  0.00000000000E+00 0. -1.
         11    1    1    2    0    0  0.74706203273E+02  0.23244361346E+02  0.16268365790E+03  0.18051949947E+03  0.00000000000E+00 0.  1.
</event>
<event>
 7    1  0.2564986E-009  0.1814083E+03  0.7561462E-02  0.1166447E+00
          1   -1    0    0  501    0  0.00000000000E+00  0.00000000000E+00  0.47264619941E+03  0.47264619941E+03  0.00000000000E+00 0. -1.
         -1   -1    0    0    0  501 -0.00000000000E+00 -0.00000000000E+00 -0.81490989312E+02  0.81490989312E+02  0.00000000000E+00 0.  1.
         25    2    1    2    0    0 -0.14680924025E+03 -0.51708381466E+02  0.13842390668E+03  0.24297490571E+03  0.12509563192E+03 0.  0.
          5    1    3    3  502    0 -0.13048260512E+03 -0.89032459613E+02  0.11797603973E+03  0.19720118522E+03  0.41800000000E+01 0.  1.
         -5    1    3    3    0  502 -0.16326635135E+02  0.37324078147E+02  0.20447866950E+02  0.45773720486E+02  0.41800000000E+01 0.  1.
        -11    1    1    2    0    0  0.13460049205E+03  0.28445956228E+02  0.14340850592E+03  0.19872711052E+03  0.00000000000E+00 0.  1.
         11    1    1    2    0    0  0.12208748205E+02  0.23262425239E+02  0.10932279751E+03  0.11243517250E+03  0.00000000000E+00 0. -1.
</event>
<event>
 7    1  0.2564986E-009  0.1069112E+03  0.7561462E-02  0.1266399E+00
          1   -1    0    0  501    0  0.00000000000E+00  0.00000000000E+00  0.90937352277E+02  0.90937352277E+02  0.00000000000E+00 0.  1.
         -1   -1    0    0    0  501 -0.00000000000E+00 -0.00000000000E+00 -0.14942501999E+03  0.14942501999E+03  0.00000000000E+00 0. -1.
         25    2    1    2    0    0 -0.40376109509E+02  0.14533495275E+02 -0.43213160917E+02  0.13912306717E+03  0.12508556206E+03 0.  0.
          5    1    3    3  502    0  0.88443636614E+01  0.54383106231E+02 -0.50981462066E+02  0.75181958516E+02  0.41800000000E+01 0. -1.
         -5    1    3    3    0  502 -0.49220473171E+02 -0.39849610956E+02  0.77683011490E+01  0.63941108649E+02  0.41800000000E+01 0. -1.
        -11    1    1    2    0    0  0.62637745003E+02 -0.28502331171E+02  0.35540834545E+01  0.68909371572E+02  0.00000000000E+00 0.  1.
         11    1    1    2    0    0 -0.22261635493E+02  0.13968835897E+02 -0.18828590247E+02  0.32329933526E+02  0.00000000000E+00 0. -1.
</event>
<event>
 7    1  0.2564986E-009  0.1412976E+03  0.7561462E-02  0.1211594E+00
          3   -1    0    0  501    0  0.00000000000E+00  0.00000000000E+00  0.72594527403E+02  0.72594527403E+02  0.00000000000E+00 0. -1.
         -3   -1    0    0    0  501 -0.00000000000E+00 -0.00000000000E+00 -0.40683434658E+03  0.40683434658E+03  0.00000000000E+00 0.  1.
         25    2    1    2    0    0  0.65720609294E+02 -0.11233838554E+03 -0.21882028126E+03  0.28367122122E+03  0.12509170598E+03 0.  0.
          5    1    3    3  502    0  0.34463213540E+02 -0.10973987209E+03 -0.22377688166E+03  0.25164283772E+03  0.41800000000E+01 0. -1.
         -5    1    3    3    0  502  0.31257395754E+02 -0.25985134558E+01  0.49566004010E+01  0.32028383491E+02  0.41800000000E+01 0. -1.
        -11    1    1    2    0    0  0.48190044244E+01  0.14183352711E+02 -0.61687102549E+02  0.63479830802E+02  0.00000000000E+00 0.  1.
         11    1    1    2    0    0 -0.70539613718E+02  0.98155032832E+02 -0.53732435374E+02  0.13227782197E+03  0.00000000000E+00 0. -1.
</event>
<event>
 7    1  0.2564986E-009  0.1617964E+03  0.7561462E-02  0.1186683E+00
          1   -1    0    0  501    0  0.00000000000E+00  0.00000000000E+00  0.53386431249E+03  0.53386431249E+03  0.00000000000E+00 0. -1.
         -1   -1    0    0    0  501 -0.00000000000E+00 -0.00000000000E+00 -0.55138625996E+02  0.55138625996E+02  0.00000000000E+00 0.  1.
         25    2    1    2    0    0 -0.10849281370E+03  0.54940073101E+02  0.17418267517E+03  0.24652879642E+03  0.12509093044E+03 0.  0.
          5    1    3    3  502    0 -0.17055518848E+02  0.75811002710E+02  0.10095044626E+03  0.12746240173E+03  0.41800000000E+01 0. -1.
         -5    1    3    3    0  502 -0.91437294856E+02 -0.20870929609E+02  0.73232228902E+02  0.11906639468E+03  0.41800000000E+01 0. -1.
        -11    1    1    2    0    0  0.56684245891E+02  0.20584428747E+02  0.81717355306E+02  0.10156056615E+03  0.00000000000E+00 0.  1.
         11    1    1    2    0    0  0.51808567813E+02 -0.75524501847E+02  0.22282565602E+03  0.24091357591E+03  0.00000000000E+00 0. -1.
</event>
<event>
 7    1  0.2564986E-009  0.1081911E+03  0.7561462E-02  0.1263957E+00
         -2   -1    0    0    0  501 -0.00000000000E+00  0.00000000000E+00  0.46740090914E+03  0.46740090914E+03  0.00000000000E+00 0. -1.
          2   -1    0    0  501    0  0.00000000000E+00 -0.00000000000E+00 -0.52384881094E+02  0.52384881094E+02  0.00000000000E+00 0.  1.
         25    2    1    2    0    0  0.85145435246E+02 -0.11565298456E+02  0.34265533936E+03  0.37475700891E+03  0.12508650150E+03 0.  0.
          5    1    3    3  502    0 -0.69826222912E+00  0.27748330137E+02  0.11423240890E+02  0.30305448816E+02  0.41800000000E+01 0. -1.
         -5    1    3    3    0  502  0.85843697475E+02 -0.39313628593E+02  0.33123209847E+03  0.34445156009E+03  0.41800000000E+01 0. -1.
        -11    1    1    2    0    0 -0.46104099823E+02  0.25084213641E+02  0.86654423881E+02  0.10131038926E+03  0.00000000000E+00 0. -1.
         11    1    1    2    0    0 -0.39041335422E+02 -0.13518915185E+02 -0.14293735194E+02  0.43718392070E+02  0.00000000000E+00 0.  1.
</event>
<event>
 7    1  0.2564986E-009  0.9737076E+02  0.7561462E-02  0.1285924E+00
         -2   -1    0    0    0  501 -0.00000000000E+00  0.00000000000E+00  0.30949571161E+02  0.30949571161E+02  0.00000000000E+00 0.  1.
          2   -1    0    0  501    0  0.00000000000E+00 -0.00000000000E+00 -0.49599821552E+03  0.49599821552E+03  0.00000000000E+00 0. -1.
         25    2    1    2    0    0  0.44747725663E+02  0.28212241825E+02 -0.30906951723E+03  0.33759245033E+03  0.12508559670E+03 0.  0.
          5    1    3    3  502    0  0.59571825085E+02 -0.35929438154E+02 -0.15077506721E+03  0.16610334182E+03  0.41800000000E+01 0.  1.
         -5    1    3    3    0  502 -0.14824099422E+02  0.64141679980E+02 -0.15829445002E+03  0.17148910852E+03  0.41800000000E+01 0.  1.
        -11    1    1    2    0    0 -0.39018134835E+02 -0.10412308625E+02 -0.16408008249E+03  0.16897663888E+03  0.00000000000E+00 0. -1.
         11    1    1    2    0    0 -0.57295908276E+01 -0.17799933201E+02  0.81009553544E+01  0.20378697472E+02  0.00000000000E+00 0.  1.
</event>
<event>
 7    1  0.2564986E-009  0.2999715E+03  0.7561462E-02  0.1085255E+00
         -2   -1    0    0    0  501 -0.00000000000E+00  0.00000000000E+00  0.40696657654E+03  0.40696657654E+03  0.00000000000E+00 0. -1.
          2   -1    0    0  501    0  0.00000000000E+00 -0.00000000000E+00 -0.23139024013E+03  0.23139024013E+03  0.00000000000E+00 0.  1.
         25    2    1    2    0    0  0.26481989242E+03  0.10787437923E+03  0.69168493803E+02  0.31968666976E+03  0.12509528038E+03 0.  0.
          5    1    3    3  502    0  0.25217551282E+03  0.12815004556E+03  0.46907610953E+02  0.28676247978E+03  0.41800000000E+01 0.  1.
         -5    1    3    3    0  502  0.12644379598E+02 -0.20275666335E+02  0.22260882850E+02  0.32924189982E+02  0.41800000000E+01 0.  1.
        -11    1    1    2    0    0 -0.20341039940E+03 -0.11017660493E+03  0.53170333552E+02  0.23736419113E+03  0.00000000000E+00 0.  1.
         11    1    1    2    0    0 -0.61409493016E+02  0.23022257030E+01  0.53237509054E+02  0.81305955784E+02  0.00000000000E+00 0. -1.
</event>
<event>
 7    1  0.2564986E-009  0.9278550E+02  0.7561462E-02  0.1296243E+00
         -4   -1    0    0    0  501 -0.00000000000E+00  0.00000000000E+00  0.29402839828E+02  0.29402839828E+02  0.00000000000E+00 0.  1.
          4   -1    0    0  501    0  0.00000000000E+00 -0.00000000000E+00 -0.52678177326E+03  0.52678177326E+03  0.00000000000E+00 0. -1.
         25    2    1    2    0    0 -0.12458615718E+02 -0.45515198845E+02 -0.36706228044E+03  0.39065084272E+03  0.12508602146E+03 0.  0.
          5    1    3    3  502    0 -0.19655083770E+02  0.36633540656E+02 -0.63147700025E+02  0.75719502359E+02  0.41800000000E+01 0. -1.
         -5    1    3    3    0  502  0.71964680525E+01 -0.82148739501E+02 -0.30391458041E+03  0.31493134036E+03  0.41800000000E+01 0. -1.
        -11    1    1    2    0    0 -0.12858860982E+02  0.26831771061E+02  0.17163002133E+01  0.29803354349E+02  0.00000000000E+00 0.  1.
         11    1    1    2    0    0  0.25317476700E+02  0.18683427785E+02 -0.13203295321E+03  0.13573041603E+03  0.00000000000E+00 0. -1.
</event>
<event>
 7    1  0.2564986E-009  0.1315762E+03  0.7561462E-02  0.1225136E+00
          1   -1    0    0  501    0  0.00000000000E+00  0.00000000000E+00  0.65497978765E+03  0.65497978765E+03  0.00000000000E+00 0. -1.
         -1   -1    0    0    0  501 -0.00000000000E+00 -0.00000000000E+00 -0.36852869179E+02  0.36852869179E+02  0.00000000000E+00 0.  1.
         25    2    1    2    0    0  0.71923182726E+02  0.64885640509E+02  0.20962113222E+03  0.26262414170E+03  0.12508928879E+03 0.  0.
          5    1    3    3  502    0  0.36065798258E+01  0.69040690246E+02  0.40743312345E+02  0.80356171067E+02  0.41800000000E+01 0.  1.
         -5    1    3    3    0  502  0.68316602900E+02 -0.41550497369E+01  0.16887781988E+03  0.18226797063E+03  0.41800000000E+01 0.  1.
        -11    1    1    2    0    0 -0.84512031865E+02 -0.32449844440E+02  0.34626258411E+03  0.35790089842E+03  0.00000000000E+00 0. -1.
         11    1    1    2    0    0  0.12588849139E+02 -0.32435796069E+02  0.62243202144E+02  0.71307616721E+02  0.00000000000E+00 0.  1.
</event>
<event>
 7    1  0.2564986E-009  0.1674864E+03  0.7561462E-02  0.1180495E+00
          2   -1    0    0  501    0  0.00000000000E+00  0.00000000000E+00  0.19266720592E+03  0.19266720592E+03  0.00000000000E+00 0. -1.
         -2   -1    0    0    0  501 -0.00000000000E+00 -0.00000000000E+00 -0.15238083611E+03  0.15238083611E+03  0.00000000000E+00 0.  1.
         25    2    1    2    0    0 -0.87950094137E+02 -0.97314947838E+02  0.45860258710E+01  0.18131374079E+03  0.12509285684E+03 0.  0.
          5    1    3    3  502    0 -0.44940418482E+02 -0.12129774939E+03  0.16517161810E+02  0.13047250383E+03  0.41800000000E+01 0.  1.
         -5    1    3    3    0  502 -0.43009675655E+02  0.23982801555E+02 -0.11931135939E+02  0.50841236956E+02  0.41800000000E+01 0.  1.
        -11    1    1    2    0    0 -0.15680537533E+02  0.25889763258E+02  0.21388992836E+02  0.37062759118E+02  0.00000000000E+00 0.  1.
         11    1    1    2    0    0  0.10363063167E+03  0.71425184581E+02  0.14311351102E+02  0.12667154212E+03  0.00000000000E+00 0. -1.
</event>
<event>
 7    1  0.2564986E-009  0.1034491E+03  0.7561462E-02  0.1273206E+00
          2   -1    0    0  501    0  0.00000000000E+00  0.00000000000E+00  0.21330999973E+03  0.21330999973E+03  0.00000000000E+00 0. -1.
         -2   -1    0    0    0  501 -0.00000000000E+00 -0.00000000000E+00 -0.81506708280E+02  0.81506708280E+02  0.00000000000E+00 0.  1.
         25    2    1    2    0    0  0.59554345148E+00 -0.21664413016E+02  0.15528077139E+03  0.20056940960E+03  0.12508504564E+03 0.  0.
          5    1    3    3  502    0 -0.61634295432E+02 -0.16263020628E+02  0.86988902020E+02  0.10792503735E+03  0.41800000000E+01 0. -1.
         -5    1    3    3    0  502  0.62229838884E+02 -0.54013923887E+01  0.68291869372E+02  0.92644372249E+02  0.41800000000E+01 0. -1.
        -11    1    1    2    0    0 -0.13058091589E+02  0.48819485021E+02  0.76376241161E+01  0.51109580078E+02  0.00000000000E+00 0. -1.
         11    1    1    2    0    0  0.12462548137E+02 -0.27155072004E+02 -0.31115104061E+02  0.43137718326E+02  0.00000000000E+00 0.  1.
</event>
<event>
 7    1  0.2564986E-009  0.8811217E+02  0.7561462E-02  0.1307489E+00
         -2   -1    0    0    0  501 -0.00000000000E+00  0.00000000000E+00  0.15287478352E+03  0.15287478352E+03  0.00000000000E+00 0.  1.
          2   -1    0    0  501    0  0.00000000000E+00 -0.00000000000E+00 -0.11683657665E+03  0.11683657665E+03  0.00000000000E+00 0. -1.
         25    2    1    2    0    0  0.13945728888E+02  0.65646697838E+02  0.54186594419E+02  0.15195221632E+03  0.12509722914E+03 0.  0.
          5    1    3    3  502    0  0.18687605366E+02  0.52794277013E+02 -0.31964001992E+02  0.64619131092E+02  0.41800000000E+01 0. -1.
         -5    1    3    3    0  502 -0.47418764786E+01  0.12852420824E+02  0.86150596411E+02  0.87333085228E+02  0.41800000000E+01 0. -1.
        -11    1    1    2    0    0  0.29468849992E+02 -0.31380914669E+01 -0.28301764810E+02  0.40978660657E+02  0.00000000000E+00 0. -1.
         11    1    1    2    0    0 -0.43414578880E+02 -0.62508606371E+02  0.10153377257E+02  0.76780483194E+02  0.00000000000E+00 0.  1.
</event>
<event>
 7    1  0.2564986E-009  0.1944933E+03  0.7561462E-02  0.1154470E+00
          2   -1    0    0  501    0  0.00000000000E+00  0.00000000000E+00  0.88690248599E+03  0.88690248599E+03  0.00000000000E+00 0. -1.
         -2   -1    0    0    0  501 -0.00000000000E+00 -0.00000000000E+00 -0.43940626099E+02  0.43940626099E+02  0.00000000000E+00 0.  1.
         25    2    1    2    0    0 -0.13636978516E+03  0.98622428645E+02  0.47174831418E+03  0.51625295269E+03  0.12509011748E+03 0.  0.
          5    1    3    3  502    0 -0.76097108957E+02 -0.17361752810E+02  0.15578310853E+03  0.17429299973E+03  0.41800000000E+01 0. -1.
         -5    1    3    3    0  502 -0.60272676207E+02  0.11598418145E+03  0.31596520565E+03  0.34195995296E+03  0.41800000000E+01 0. -1.
        -11    1    1    2    0    0  0.45125549163E+02  0.75626894135E+00  0.57500963078E+02  0.73097523110E+02  0.00000000000E+00 0.  1.
         11    1    1    2    0    0  0.91244236001E+02 -0.99378697586E+02  0.31371258263E+03  0.34149263629E+03  0.00000000000E+00 0. -1.
</event>
<event>
 7    1  0.2564986E-009  0.1347259E+03  0.7561462E-02  0.1220607E+00
          1   -1    0    0  501    0  0.00000000000E+00  0.00000000000E+00  0.17175715934E+03  0.17175715934E+03  0.00000000000E+00 0. -1.
         -1   -1    0    0    0  501 -0.00000000000E+00 -0.00000000000E+00 -0.11234339272E+03  0.11234339272E+03  0.00000000000E+00 0.  1.
         25    2    1    2    0    0 -0.85709051119E+02  0.86115939587E+01  0.43859750256E+02  0.15808626721E+03  0.12508952472E+03 0.  0.
          5    1    3    3  502    0 -0.55437101507E+01  0.55886415143E+02  0.30282764498E+02  0.63941710529E+02  0.41800000000E+01 0. -1.
         -5    1    3    3    0  502 -0.80165340968E+02 -0.47274821184E+02  0.13576985757E+02  0.94144556682E+02  0.41800000000E+01 0. -1.
        -11    1    1    2    0    0  0.99679651176E+02  0.58714060666E+01  0.26222456819E+02  0.10323818823E+03  0.00000000000E+00 0. -1.
         11    1    1    2    0    0 -0.13970600057E+02 -0.14483000025E+02 -0.10668440455E+02  0.22776096624E+02  0.00000000000E+00 0.  1.
</event>
<event>
 7    1  0.2564986E-009  0.9484739E+02  0.7561462E-02  0.1291520E+00
         -1   -1    0    0    0  501 -0.00000000000E+00  0.00000000000E+00  0.27717073456E+02  0.27717073456E+02  0.00000000000E+00 0.  1.
          1   -1    0    0  501    0  0.00000000000E+00 -0.00000000000E+00 -0.10080260291E+04  0.10080260291E+04  0.00000000000E+00 0. -1.
         25    2    1    2    0    0  0.50085879044E+02  0.55976733193E+01 -0.89394927522E+03  0.90406435294E+03  0.12508844216E+03 0.  0.
          5    1    3    3  502    0  0.50521924803E+02 -0.31466671886E+02 -0.19047130077E+03  0.19959810906E+03  0.41800000000E+01 0. -1.
         -5    1    3    3    0  502 -0.43604575882E+00  0.37064345205E+02 -0.70347797446E+03  0.70446624388E+03  0.41800000000E+01 0. -1.
        -11    1    1    2    0    0 -0.70218583532E+02 -0.12738863643E+02 -0.42936132683E+02  0.83285290477E+02  0.00000000000E+00 0.  1.
         11    1    1    2    0    0  0.20132704487E+02  0.71411903239E+01 -0.43423547761E+02  0.48393459159E+02  0.00000000000E+00 0. -1.
</event>
<event>
 7    1  0.2564986E-009  0.1625051E+03  0.7561462E-02  0.1185897E+00
          2   -1    0    0  501    0  0.00000000000E+00  0.00000000000E+00  0.42663092499E+03  0.42663092499E+03  0.00000000000E+00 0. -1.
         -2   -1    0    0    0  501 -0.00000000000E+00 -0.00000000000E+00 -0.89967264236E+02  0.89967264236E+02  0.00000000000E+00 0.  1.
         25    2    1    2    0    0  0.10168947813E+03 -0.75330883481E+02  0.40985777954E+02  0.18259915846E+03  0.12508847552E+03 0.  0.
          5    1    3    3  502    0  0.11866361290E+03 -0.27020230410E+02  0.47708460492E+02  0.13078499715E+03  0.41800000000E+01 0. -1.
         -5    1    3    3    0  502 -0.16974134773E+02 -0.48310653071E+02 -0.67226825379E+01  0.51814161307E+02  0.41800000000E+01 0. -1.
        -11    1    1    2    0    0 -0.81767886257E+02  0.85986135181E+01  0.12451985253E+03  0.14921500277E+03  0.00000000000E+00 0.  1.
         11    1    1    2    0    0 -0.19921591868E+02  0.66732269963E+02  0.17115803027E+03  0.18478402799E+03  0.00000000000E+00 0. -1.
</event>
<event>
 7    1  0.2564986E-009  0.1134935E+03  0.7561462E-02  0.1254234E+00
          1   -1    0    0  501    0  0.00000000000E+00  0.00000000000E+00  0.32920442769E+03  0.32920442769E+03  0.00000000000E+00 0. -1.
         -1   -1    0    0    0  501 -0.00000000000E+00 -0.00000000000E+00 -0.46844629170E+02  0.46844629170E+02  0.00000000000E+00 0.  1.
         25    2    1    2    0    0 -0.30180832686E+02  0.46061163788E+02  0.19546201679E+03  0.23850600285E+03  0.12508876814E+03 0.  0.
          5    1    3    3  502    0 -0.22231789494E+02 -0.34131117955E+02  0.12445856611E+03  0.13102134465E+03  0.41800000000E+01 0. -1.
         -5    1    3    3    0  502 -0.79490431920E+01  0.80192281743E+02  0.71003450687E+02  0.10748465820E+03  0.41800000000E+01 0. -1.
        -11    1    1    2    0    0  0.55523100148E+02 -0.32766103124E+01  0.56385075773E+02  0.79201184303E+02  0.00000000000E+00 0.  1.
         11    1    1    2    0    0 -0.25342267462E+02 -0.42784553476E+02  0.30512705954E+02  0.58341869706E+02  0.00000000000E+00 0. -1.
</event>
<event>
 7    1  0.2564986E-009  0.9923894E+02  0.7561462E-02  0.1281905E+00
         -1   -1    0    0    0  501 -0.00000000000E+00  0.00000000000E+00  0.27271144710E+02  0.27271144710E+02  0.00000000000E+00 0.  1.
          1   -1    0    0  501    0  0.00000000000E+00 -0.00000000000E+00 -0.60576516832E+03  0.60576516832E+03  0.00000000000E+00 0. -1.
         25    2    1    2    0    0 -0.22658632654E+01 -0.63229841614E+02 -0.38624768725E+03  0.41089997267E+03  0.12509342361E+03 0.  0.
          5    1    3    3  502    0  0.82480261220E+01  0.12483218320E+02 -0.27735999905E+03  0.27779471223E+03  0.41800000000E+01 0. -1.
         -5    1    3    3    0  502 -0.10513889387E+02 -0.75713059934E+02 -0.10888768820E+03  0.13310526044E+03  0.41800000000E+01 0. -1.
        -11    1    1    2    0    0  0.21787366951E+02  0.78586901142E+02 -0.11489640937E+03  0.14089632811E+03  0.00000000000E+00 0.  1.
         11    1    1    2    0    0 -0.19521503686E+02 -0.15357059528E+02 -0.77349926990E+02  0.81240012241E+02  0.00000000000E+00 0. -1.
</event>
<event>
 7    1  0.2564986E-009  0.1107282E+03  0.7561462E-02  0.1259227E+00
          2   -1    0    0  501    0  0.00000000000E+00  0.00000000000E+00  0.57064181247E+02  0.57064181247E+02  0.00000000000E+00 0. -1.
         -2   -1    0    0    0  501 -0.00000000000E+00 -0.00000000000E+00 -0.31835832980E+03  0.31835832980E+03  0.00000000000E+00 0.  1.
         25    2    1    2    0    0 -0.78776324315E+02  0.91950650077E+01 -0.11823959925E+03  0.18952187266E+03  0.12509068268E+03 0.  0.
          5    1    3    3  502    0 -0.38722751545E+02 -0.36783513348E+02  0.30959019650E+01  0.53661302168E+02  0.41800000000E+01 0. -1.
         -5    1    3    3    0  502 -0.40053572770E+02  0.45978578355E+02 -0.12133550122E+03  0.13586057049E+03  0.41800000000E+01 0. -1.
        -11    1    1    2    0    0  0.28441415960E+02 -0.38997577216E+02 -0.10648675873E+03  0.11691516136E+03  0.00000000000E+00 0.  1.
         11    1    1    2    0    0  0.50334908354E+02  0.29802512208E+02 -0.36567790564E+02  0.68985477020E+02  0.00000000000E+00 0. -1.
</event>
<event>
 7    1  0.2564986E-009  0.8727981E+02  0.7561462E-02  0.1309576E+00
         -1   -1    0    0    0  501 -0.00000000000E+00  0.00000000000E+00  0.96683085057E+02  0.96683085057E+02  0.00000000000E+00 0.  1.
          1   -1    0    0  501    0  0.00000000000E+00 -0.00000000000E+00 -0.12937093724E+03  0.12937093724E+03  0.00000000000E+00 0. -1.
         25    2    1    2    0    0 -0.75026016674E+01  0.26850324089E+02 -0.81321790754E+01  0.12841965474E+03  0.12509295124E+03 0.  0.
          5    1    3    3  502    0 -0.58652326427E+02 -0.44634193004E+01  0.19695569359E+02  0.62172384219E+02  0.41800000000E+01 0. -1.
         -5    1    3    3    0  502  0.51149724759E+02  0.31313743389E+02 -0.27827748434E+02  0.66247270516E+02  0.41800000000E+01 0. -1.
        -11    1    1    2    0    0 -0.10655190005E+01  0.13843341731E+02 -0.47950060124E+02  0.49919752673E+02  0.00000000000E+00 0. -1.
         11    1    1    2    0    0  0.85681206679E+01 -0.40693665819E+02  0.23394387021E+02  0.47714614885E+02  0.00000000000E+00 0.  1.
</event>
<event>
 7    1  0.2564986E-009  0.1190011E+03  0.7561462E-02  0.1244754E+00
          1   -1    0    0  501    0  0.00000000000E+00  0.00000000000E+00  0.44568297756E+03  0.44568297756E+03  0.00000000000E+00 0. -1.
         -1   -1    0    0    0  501 -0.00000000000E+00 -0.00000000000E+00 -0.56934864432E+02  0.56934864432E+02  0.00000000000E+00 0.  1.
         25    2    1    2    0    0  0.19223987439E+02  0.73178930092E+02  0.34930347213E+03  0.37866201806E+03  0.12508913133E+03 0.  0.
          5    1    3    3  502    0  0.50508923296E+02  0.53783769823E+01  0.24543354073E+03  0.25066945085E+03  0.41800000000E+01 0. -1.
         -5    1    3    3    0  502 -0.31284935858E+02  0.67800553110E+02  0.10386993140E+03  0.12799256722E+03  0.41800000000E+01 0. -1.
        -11    1    1    2    0    0 -0.50023690445E+02 -0.27294087666E+02  0.16588871962E+01  0.57009549499E+02  0.00000000000E+00 0.  1.
         11    1    1    2    0    0  0.30799703007E+02 -0.45884842426E+02  0.37785753797E+02  0.66946274428E+02  0.00000000000E+00 0. -1.
</event>
<event>
 7    1  0.3046422E-009  0.1635650E+03  0.7561462E-02  0.1184730E+00
          2   -1    0    0  501    0  0.00000000000E+00  0.00000000000E+00  0.12107639519E+04  0.12107639519E+04  0.00000000000E+00 0. -1.
         -2   -1    0    0    0  501 -0.00000000000E+00 -0.00000000000E+00 -0.25280186783E+02  0.25280186783E+02  0.00000000000E+00 0.  1.
         25    2    1    2    0    0  0.11885983698E+03 -0.61874921015E+02  0.53722176240E+03  0.56763535591E+03  0.12508600474E+03 0.  0.
          5    1    3    3  502    0  0.13448597130E+03 -0.62602369759E+02  0.52910563408E+03  0.54952322753E+03  0.41800000000E+01 0. -1.
         -5    1    3    3    0  502 -0.15626134322E+02  0.72744874474E+00  0.81161283217E+01  0.18112128380E+02  0.41800000000E+01 0. -1.
        -11    1    1    2    0    0 -0.32554235010E+02  0.68637713335E+02  0.28174295529E+03  0.29180474082E+03  0.00000000000E+00 0.  1.
         11    1    1    2    0    0 -0.86305601973E+02 -0.67627923208E+01  0.36651904737E+03  0.37660404191E+03  0.00000000000E+00 0. -1.
</event>
<event>
 7    1  0.2564986E-009  0.1303762E+03  0.7561462E-02  0.1226899E+00
         -2   -1    0    0    0  501 -0.00000000000E+00  0.00000000000E+00  0.57689181623E+02  0.57689181623E+02  0.00000000000E+00 0.  1.
          2   -1    0    0  501    0  0.00000000000E+00 -0.00000000000E+00 -0.45864061882E+03  0.45864061882E+03  0.00000000000E+00 0. -1.
         25    2    1    2    0    0 -0.63505381868E+02  0.53399551973E+02 -0.35051371251E+03  0.38130290598E+03  0.12509035846E+03 0.  0.
          5    1    3    3  502    0  0.30777797996E+01  0.67198507595E+02 -0.25645742629E+03  0.26516597830E+03  0.41800000000E+01 0.  1.
         -5    1    3    3    0  502 -0.66583161668E+02 -0.13798955622E+02 -0.94056286220E+02  0.11613692768E+03  0.41800000000E+01 0.  1.
        -11    1    1    2    0    0  0.88166394921E+02 -0.46195802668E+02 -0.38982174176E+02  0.10689703121E+03  0.00000000000E+00 0. -1.
         11    1    1    2    0    0 -0.24661013053E+02 -0.72037493056E+01 -0.11455550511E+02  0.28129863248E+02  0.00000000000E+00 0.  1.
</event>
<event>
 7    1  0.2564986E-009  0.8881343E+02  0.7561462E-02  0.1305751E+00
         -2   -1    0    0    0  501 -0.00000000000E+00  0.00000000000E+00  0.72865535168E+02  0.72865535168E+02  0.00000000000E+00 0.  1.
          2   -1    0    0  501    0  0.00000000000E+00 -0.00000000000E+00 -0.20212762586E+03  0.20212762586E+03  0.00000000000E+00 0. -1.
         25    2    1    2    0    0 -0.45186807253E+02  0.67125214242E+01 -0.10623847972E+03  0.17035586428E+03  0.12509036905E+03 0.  0.
          5    1    3    3  502    0 -0.55047659539E+02 -0.10303717421E+02 -0.12857389671E+03  0.14030370889E+03  0.41800000000E+01 0. -1.
         -5    1    3    3    0  502  0.98608522858E+01  0.17016238845E+02  0.22335416981E+02  0.30052155396E+02  0.41800000000E+01 0. -1.
        -11    1    1    2    0    0 -0.17576638258E+02 -0.29707648899E+02 -0.13741769426E+02  0.37152642470E+02  0.00000000000E+00 0.  1.
         11    1    1    2    0    0  0.62763445511E+02  0.22995127474E+02 -0.92818415394E+01  0.67484654273E+02  0.00000000000E+00 0. -1.
</event>
<event>
 7    1  0.2564986E-009  0.1042725E+03  0.7561462E-02  0.1271560E+00
          2   -1    0    0  501    0  0.00000000000E+00  0.00000000000E+00  0.35644678362E+03  0.35644678362E+03  0.00000000000E+00 0. -1.
         -2   -1    0    0    0  501 -0.00000000000E+00 -0.00000000000E+00 -0.38025068359E+02  0.38025068359E+02  0.00000000000E+00 0.  1.
         25    2    1    2    0    0  0.53960292978E+02  0.39597933464E+02  0.13159765766E+03  0.19350903844E+03  0.12509234550E+03 0.  0.
          5    1    3    3  502    0  0.79369903073E+02 -0.87787211375E+01  0.10664071343E+03  0.13329051586E+03  0.41800000000E+01 0.  1.
         -5    1    3    3    0  502 -0.25409610095E+02  0.48376654602E+02  0.24956944234E+02  0.60218522575E+02  0.41800000000E+01 0.  1.
        -11    1    1    2    0    0 -0.24589402008E+02 -0.36820608771E+02  0.12034994551E+03  0.12823613104E+03  0.00000000000E+00 0.  1.
         11    1    1    2    0    0 -0.29370890970E+02 -0.27773246931E+01  0.66474112089E+02  0.72726682496E+02  0.00000000000E+00 0. -1.
</event>
<event>
 7    1  0.2564986E-009  0.2750506E+03  0.7561462E-02  0.1098423E+00
          2   -1    0    0  501    0  0.00000000000E+00  0.00000000000E+00  0.17086000048E+04  0.17086000048E+04  0.00000000000E+00 0. -1.
         -2   -1    0    0    0  501 -0.00000000000E+00 -0.00000000000E+00 -0.48085376057E+02  0.48085376057E+02  0.00000000000E+00 0.  1.
         25    2    1    2    0    0 -0.25002515021E+03  0.77810731976E+02  0.96597607289E+03  0.10086250769E+04  0.12509071315E+03 0.  0.
          5    1    3    3  502    0 -0.25606357023E+03  0.52549350507E+02  0.90938783477E+03  0.94622074204E+03  0.41800000000E+01 0.  1.
         -5    1    3    3    0  502  0.60384200242E+01  0.25261381469E+02  0.56588238117E+02  0.62404334812E+02  0.41800000000E+01 0.  1.
        -11    1    1    2    0    0  0.12916684869E+03 -0.31659554536E+02  0.22834787148E+03  0.26425206262E+03  0.00000000000E+00 0.  1.
         11    1    1    2    0    0  0.12085830152E+03 -0.46151177440E+02  0.46619068435E+03  0.48380824135E+03  0.00000000000E+00 0. -1.
</event>
<event>
 7    1  0.2564986E-009  0.9978310E+02  0.7561462E-02  0.1280753E+00
         -1   -1    0    0    0  501 -0.00000000000E+00  0.00000000000E+00  0.73379316356E+03  0.73379316356E+03  0.00000000000E+00 0.  1.
          1   -1    0    0  501    0  0.00000000000E+00 -0.00000000000E+00 -0.27975191638E+02  0.27975191638E+02  0.00000000000E+00 0. -1.
         25    2    1    2    0    0  0.23516891945E+02  0.53560594153E+02  0.57754360270E+03  0.59382297005E+03  0.12508926929E+03 0.  0.
          5    1    3    3  502    0  0.56454507006E+02  0.10687511836E+02  0.46862187734E+03  0.47214962733E+03  0.41800000000E+01 0. -1.
         -5    1    3    3    0  502 -0.32937615062E+02  0.42873082317E+02  0.10892172536E+03  0.12167334272E+03  0.41800000000E+01 0. -1.
        -11    1    1    2    0    0  0.11206953975E+02 -0.51761351430E+02  0.24221405196E+02  0.58236670483E+02  0.00000000000E+00 0. -1.
         11    1    1    2    0    0 -0.34723845920E+02 -0.17992427227E+01  0.10405296403E+03  0.10970871466E+03  0.00000000000E+00 0.  1.
</event>
<event>
 7    1  0.2564986E-009  0.1165313E+03  0.7561462E-02  0.1248932E+00
          1   -1    0    0  501    0  0.00000000000E+00  0.00000000000E+00  0.12951370850E+03  0.12951370850E+03  0.00000000000E+00 0. -1.
         -1   -1    0    0    0  501 -0.00000000000E+00 -0.00000000000E+00 -0.21903051609E+03  0.21903051609E+03  0.00000000000E+00 0.  1.
         25    2    1    2    0    0 -0.39667666047E+02  0.28892766297E+02 -0.17192079697E+03  0.21820367625E+03  0.12509103973E+03 0.  0.
          5    1    3    3  502    0 -0.38805578618E+02 -0.44201654621E+02 -0.96484133457E+02  0.11307660948E+03  0.41800000000E+01 0. -1.
         -5    1    3    3    0  502 -0.86208742900E+00  0.73094420917E+02 -0.75436663517E+02  0.10512706676E+03  0.41800000000E+01 0. -1.
        -11    1    1    2    0    0  0.28602187640E+02 -0.60753094100E+02  0.57690961958E+02  0.88528360835E+02  0.00000000000E+00 0.  1.
         11    1    1    2    0    0  0.11065478407E+02  0.31860327804E+02  0.24713027425E+02  0.41812187513E+02  0.00000000000E+00 0. -1.
</event>
<event>
 7    1  0.2564986E-009  0.1298352E+03  0.7561462E-02  0.1227700E+00
          2   -1    0    0  501    0  0.00000000000E+00  0.00000000000E+00  0.27167419944E+02  0.27167419944E+02  0.00000000000E+00 0. -1.
         -2   -1    0    0    0  501 -0.00000000000E+00 -0.00000000000E+00 -0.86040992178E+03  0.86040992178E+03  0.00000000000E+00 0.  1.
         25    2    1    2    0    0  0.65679776478E+02  0.67396033068E+02 -0.59886622085E+03  0.61898636527E+03  0.12508921457E+03 0.  0.
          5    1    3    3  502    0  0.44829696992E+02  0.89943496929E+02 -0.56150694107E+03  0.57044460874E+03  0.41800000000E+01 0. -1.
         -5    1    3    3    0  502  0.20850079486E+02 -0.22547463861E+02 -0.37359279780E+02  0.48541756528E+02  0.41800000000E+01 0. -1.
        -11    1    1    2    0    0  0.21477615865E+02 -0.17194258670E+02 -0.77511390347E+02  0.82249292689E+02  0.00000000000E+00 0. -1.
         11    1    1    2    0    0 -0.87157392343E+02 -0.50201774398E+02 -0.15686489063E+03  0.18634168376E+03  0.00000000000E+00 0.  1.
</event>
<event>
 7    1  0.2564986E-009  0.6005299E+02  0.7561462E-02  0.1397609E+00
         -1   -1    0    0    0  501 -0.00000000000E+00  0.00000000000E+00  0.24465532556E+02  0.24465532556E+02  0.00000000000E+00 0.  1.
          1   -1    0    0  501    0  0.00000000000E+00 -0.00000000000E+00 -0.49720745161E+03  0.49720745161E+03  0.00000000000E+00 0. -1.
         25    2    1    2    0    0 -0.30584122115E+00 -0.17038377487E+02 -0.32695779355E+03  0.35048491745E+03  0.12509148153E+03 0.  0.
          5    1    3    3  502    0  0.52102319176E+01  0.58364023935E+01 -0.32646040617E+03  0.32658089244E+03  0.41800000000E+01 0.  1.
         -5    1    3    3    0  502 -0.55160731387E+01 -0.22874779881E+02 -0.49738737616E+00  0.23904025010E+02  0.41800000000E+01 0.  1.
        -11    1    1    2    0    0 -0.37554822254E+02 -0.12214934487E+02 -0.46717243086E+02  0.61172461946E+02  0.00000000000E+00 0. -1.
         11    1    1    2    0    0  0.37860663475E+02  0.29253311974E+02 -0.99066882415E+02  0.11001560476E+03  0.00000000000E+00 0.  1.
</event>
<event>
 7    1  0.2564986E-009  0.1616545E+03  0.7561462E-02  0.1186841E+00
         -1   -1    0    0    0  501 -0.00000000000E+00  0.00000000000E+00  0.65962355877E+02  0.65962355877E+02  0.00000000000E+00 0.  1.
          1   -1    0    0  501    0  0.00000000000E+00 -0.00000000000E+00 -0.42805955422E+03  0.42805955422E+03  0.00000000000E+00 0. -1.
         25    2    1    2    0    0  0.58774004475E+02  0.12552708393E+03 -0.20738812038E+03  0.27905146038E+03  0.12509377548E+03 0.  0.
          5    1    3    3  502    0  0.94085177412E+02  0.65065171789E+02 -0.10777777367E+03  0.15722282940E+03  0.41800000000E+01 0.  1.
         -5    1    3    3    0  502 -0.35311172937E+02  0.60461912144E+02 -0.99610346708E+02  0.12182863098E+03  0.41800000000E+01 0.  1.
        -11    1    1    2    0    0 -0.46681378505E+02 -0.94594679344E+02 -0.77420648649E+02  0.13084823765E+03  0.00000000000E+00 0.  1.
         11    1    1    2    0    0 -0.12092625969E+02 -0.30932404590E+02 -0.77288429317E+02  0.84122212065E+02  0.00000000000E+00 0. -1.
</event>
<event>
 7    1  0.2564986E-009  0.1033105E+03  0.7561462E-02  0.1273484E+00
          2   -1    0    0  501    0  0.00000000000E+00  0.00000000000E+00  0.45453799003E+03  0.45453799003E+03  0.00000000000E+00 0. -1.
         -2   -1    0    0    0  501 -0.00000000000E+00 -0.00000000000E+00 -0.29800018184E+02  0.29800018184E+02  0.00000000000E+00 0.  1.
         25    2    1    2    0    0  0.15618400318E+02  0.11825839460E+02  0.30984693723E+03  0.33471846547E+03  0.12509013433E+03 0.  0.
          5    1    3    3  502    0 -0.48622872775E+01  0.66433443812E+02  0.18970739276E+03  0.20110547372E+03  0.41800000000E+01 0. -1.
         -5    1    3    3    0  502  0.20480687595E+02 -0.54607604352E+02  0.12013954447E+03  0.13361299175E+03  0.41800000000E+01 0. -1.
        -11    1    1    2    0    0  0.32124793978E+02  0.38602576973E+00  0.87559562348E+02  0.93267509684E+02  0.00000000000E+00 0. -1.
         11    1    1    2    0    0 -0.47743194296E+02 -0.12211865229E+02  0.27331472271E+02  0.56352033064E+02  0.00000000000E+00 0.  1.
</event>
<event>
 7    1  0.2564986E-009  0.1277820E+03  0.7561462E-02  0.1230784E+00
         -1   -1    0    0    0  501 -0.00000000000E+00  0.00000000000E+00  0.24949485095E+02  0.24949485095E+02  0.00000000000E+00 0.  1.
          1   -1    0    0  501    0  0.00000000000E+00 -0.00000000000E+00 -0.78921129958E+03  0.78921129958E+03  0.00000000000E+00 0. -1.
         25    2    1    2    0    0 -0.45983312684E+02 -0.63140128235E+02 -0.52993868158E+03  0.55007598366E+03  0.12508973066E+03 0.  0.
          5    1    3    3  502    0 -0.80133290944E+02 -0.75911688510E+02 -0.38165120911E+03  0.39731479532E+03  0.41800000000E+01 0. -1.
         -5    1    3    3    0  502  0.34149978260E+02  0.12771560275E+02 -0.14828747248E+03  0.15276118833E+03  0.41800000000E+01 0. -1.
        -11    1    1    2    0    0 -0.18845205564E+02  0.14261082054E+01 -0.76657761899E+01  0.20394599333E+02  0.00000000000E+00 0.  1.
         11    1    1    2    0    0  0.64828518248E+02  0.61714020029E+02 -0.22665735671E+03  0.24369020168E+03  0.00000000000E+00 0. -1.
</event>
<event>
 7    1  0.2564986E-009  0.8980178E+02  0.7561462E-02  0.1303332E+00
         -1   -1    0    0    0  501 -0.00000000000E+00  0.00000000000E+00  0.25962693039E+03  0.25962693039E+03  0.00000000000E+00 0.  1.
          1   -1    0    0  501    0  0.00000000000E+00 -0.00000000000E+00 -0.78078536750E+02  0.78078536750E+02  0.00000000000E+00 0. -1.
         25    2    1    2    0    0 -0.31248940220E+02 -0.66162951880E+02  0.16415541434E+03  0.21897152473E+03  0.12508995211E+03 0.  0.
          5    1    3    3  502    0 -0.10214639142E+02 -0.78179890172E+02  0.33070064688E+02  0.85601026037E+02  0.41800000000E+01 0. -1.
         -5    1    3    3    0  502 -0.21034301079E+02  0.12016938292E+02  0.13108534966E+03  0.13337049869E+03  0.41800000000E+01 0. -1.
        -11    1    1    2    0    0  0.12483591927E+02  0.77059751034E+01 -0.35045792811E+02  0.37992495488E+02  0.00000000000E+00 0. -1.
         11    1    1    2    0    0  0.18765348294E+02  0.58456976777E+02  0.52438772106E+02  0.80741446918E+02  0.00000000000E+00 0.  1.
</event>
<event>
 7    1  0.2564986E-009  0.1042630E+03  0.7561462E-02  0.1271578E+00
         -1   -1    0    0    0  501 -0.00000000000E+00  0.00000000000E+00  0.30270215248E+03  0.30270215248E+03  0.00000000000E+00 0.  1.
          1   -1    0    0  501    0  0.00000000000E+00 -0.00000000000E+00 -0.40241851783E+02  0.40241851783E+02  0.00000000000E+00 0. -1.
         25    2    1    2    0    0  0.57766884494E+01 -0.16806825010E+02  0.17177626820E+03  0.21323619885E+03  0.12508697248E+03 0.  0.
          5    1    3    3  502    0 -0.58996516190E+02  0.17051522245E+00  0.76112516957E+02  0.96390900170E+02  0.41800000000E+01 0.  1.
         -5    1    3    3    0  502  0.64773204640E+02 -0.16977340232E+02  0.95663751246E+02  0.11684529868E+03  0.41800000000E+01 0.  1.
        -11    1    1    2    0    0 -0.29428380760E+02  0.39670337034E+02  0.81929009949E+02  0.95666754443E+02  0.00000000000E+00 0.  1.
         11    1    1    2    0    0  0.23651692311E+02 -0.22863512024E+02  0.87550225402E+01  0.34041050967E+02  0.00000000000E+00 0. -1.
</event>
<event>
 7    1  0.2564986E-009  0.1394041E+03  0.7561462E-02  0.1214133E+00
          1   -1    0    0  501    0  0.00000000000E+00  0.00000000000E+00  0.70183715560E+03  0.70183715560E+03  0.00000000000E+00 0. -1.
         -1   -1    0    0    0  501 -0.00000000000E+00 -0.00000000000E+00 -0.29814842340E+02  0.29814842340E+02  0.00000000000E+00 0.  1.
         25    2    1    2    0    0  0.38156033408E+02  0.87801440898E+02  0.37911259871E+03  0.41053421970E+03  0.12508799757E+03 0.  0.
          5    1    3    3  502    0  0.33771769383E+02 -0.20157235307E+02  0.47901270868E+02  0.62119648206E+02  0.41800000000E+01 0. -1.
         -5    1    3    3    0  502  0.43842640251E+01  0.10795867621E+03  0.33121132784E+03  0.34841457149E+03  0.41800000000E+01 0. -1.
        -11    1    1    2    0    0  0.26094134550E+02 -0.54144586343E+01  0.49121846957E+02  0.55885383318E+02  0.00000000000E+00 0. -1.
         11    1    1    2    0    0 -0.64250167958E+02 -0.82386982264E+02  0.24378786759E+03  0.26523239492E+03  0.00000000000E+00 0.  1.
</event>
<event>
 7    1  0.2564986E-009  0.1371043E+03  0.7561462E-02  0.1217279E+00
         -4   -1    0    0    0  501 -0.00000000000E+00  0.00000000000E+00  0.16410179575E+04  0.16410179575E+04  0.00000000000E+00 0.  1.
          4   -1    0    0  501    0  0.00000000000E+00 -0.00000000000E+00 -0.16335996256E+02  0.16335996256E+02  0.00000000000E+00 0. -1.
         25    2    1    2    0    0 -0.50352516988E+02  0.74697716383E+02  0.12925254773E+04  0.13016851842E+04  0.12508830657E+03 0.  0.
          5    1    3    3  502    0 -0.38785019187E+02  0.10635070226E+03  0.11291334659E+04  0.11348015711E+04  0.41800000000E+01 0.  1.
         -5    1    3    3    0  502 -0.11567497802E+02 -0.31652985882E+02  0.16339201145E+03  0.16688361311E+03  0.41800000000E+01 0.  1.
        -11    1    1    2    0    0  0.38334063319E+01 -0.80052513601E+02  0.21914269186E+03  0.23333799376E+03  0.00000000000E+00 0.  1.
         11    1    1    2    0    0  0.46519110656E+02  0.53547972183E+01  0.11301379204E+03  0.12233077577E+03  0.00000000000E+00 0. -1.
</event>
<event>
 7    1  0.2564986E-009  0.2479492E+03  0.7561462E-02  0.1114608E+00
         -2   -1    0    0    0  501 -0.00000000000E+00  0.00000000000E+00  0.69875262723E+02  0.69875262723E+02  0.00000000000E+00 0.  1.
          2   -1    0    0  501    0  0.00000000000E+00 -0.00000000000E+00 -0.10762812489E+04  0.10762812489E+04  0.00000000000E+00 0. -1.
         25    2    1    2    0    0 -0.24159487083E+03  0.30658030444E+02 -0.38209501473E+03  0.47005450424E+03  0.12508653096E+03 0.  0.
          5    1    3    3  502    0 -0.95591295725E+02  0.29237278588E+01 -0.26198401967E+03  0.27892533583E+03  0.41800000000E+01 0. -1.
         -5    1    3    3    0  502 -0.14600357510E+03  0.27734302585E+02 -0.12011099506E+03  0.19112916841E+03  0.41800000000E+01 0. -1.
        -11    1    1    2    0    0  0.19700180986E+03  0.66558435011E+00 -0.40857588471E+03  0.45359057492E+03  0.00000000000E+00 0.  1.
         11    1    1    2    0    0  0.44593060968E+02 -0.31323614794E+02 -0.21573508675E+03  0.22251143249E+03  0.00000000000E+00 0. -1.
</event>
<event>
 7    1  0.2564986E-009  0.9528541E+02  0.7561462E-02  0.1290535E+00
          2   -1    0    0  501    0  0.00000000000E+00  0.00000000000E+00  0.42861103162E+03  0.42861103162E+03  0.00000000000E+00 0.  1.
         -2   -1    0    0    0  501 -0.00000000000E+00 -0.00000000000E+00 -0.33238244368E+02  0.33238244368E+02  0.00000000000E+00 0. -1.
         25    2    1    2    0    0 -0.19414681631E+01  0.48695824129E+02  0.19437752725E+03  0.23623130912E+03  0.12509019035E+03 0.  0.
          5    1    3    3  502    0  0.40899425627E+02  0.37277522327E+02  0.18161603407E+03  0.18990585278E+03  0.41800000000E+01 0.  1.
         -5    1    3    3    0  502 -0.42840893790E+02  0.11418301802E+02  0.12761493178E+02  0.46325456338E+02  0.41800000000E+01 0.  1.
        -11    1    1    2    0    0 -0.33429970046E+02 -0.41900062377E+01  0.13193254540E+03  0.13616649950E+03  0.00000000000E+00 0.  1.
         11    1    1    2    0    0  0.35371438209E+02 -0.44505817892E+02  0.69062714596E+02  0.89451467370E+02  0.00000000000E+00 0. -1.
</event>
<event>
 7    1  0.2564986E-009  0.1059411E+03  0.7561462E-02  0.1268276E+00
          1   -1    0    0  501    0  0.00000000000E+00  0.00000000000E+00  0.26682022688E+03  0.26682022688E+03  0.00000000000E+00 0. -1.
         -1   -1    0    0    0  501 -0.00000000000E+00 -0.00000000000E+00 -0.48917142862E+02  0.48917142862E+02  0.00000000000E+00 0.  1.
         25    2    1    2    0    0 -0.28559372416E+01  0.84474676137E+01  0.16519809282E+03  0.20740607270E+03  0.12508938018E+03 0.  0.
          5    1    3    3  502    0 -0.47569633072E+02  0.42133141242E+02  0.11789582165E+03  0.13399615197E+03  0.41800000000E+01 0.  1.
         -5    1    3    3    0  502  0.44713695830E+02 -0.33685673628E+02  0.47302271177E+02  0.73409920726E+02  0.41800000000E+01 0.  1.
        -11    1    1    2    0    0 -0.83861738179E+00  0.41734494731E+02  0.36551866035E+02  0.55484324275E+02  0.00000000000E+00 0. -1.
         11    1    1    2    0    0  0.36945546234E+01 -0.50181962345E+02  0.16153125162E+02  0.52846972772E+02  0.00000000000E+00 0.  1.
</event>
<event>
 7    1  0.2564986E-009  0.1773620E+03  0.7561462E-02  0.1170381E+00
          1   -1    0    0  501    0  0.00000000000E+00  0.00000000000E+00  0.16744113907E+03  0.16744113907E+03  0.00000000000E+00 0. -1.
         -1   -1    0    0    0  501 -0.00000000000E+00 -0.00000000000E+00 -0.40634488811E+03  0.40634488811E+03  0.00000000000E+00 0.  1.
         25    2    1    2    0    0 -0.64282402184E+02  0.13706482052E+03 -0.32285446604E+03  0.37789147393E+03  0.12509183655E+03 0.  0.
          5    1    3    3  502    0  0.27379187882E+02  0.73506658319E+02 -0.18158485268E+03  0.19784685964E+03  0.41800000000E+01 0.  1.
         -5    1    3    3    0  502 -0.91661590066E+02  0.63558162204E+02 -0.14126961336E+03  0.18004461429E+03  0.41800000000E+01 0.  1.
        -11    1    1    2    0    0  0.12448197284E+02 -0.10014208508E+03  0.85458185435E+02  0.13223651643E+03  0.00000000000E+00 0. -1.
         11    1    1    2    0    0  0.51834204900E+02 -0.36922735441E+02 -0.15074684413E+01  0.63658036815E+02  0.00000000000E+00 0.  1.
</event>
<event>
 7    1  0.2564986E-009  0.1121533E+03  0.7561462E-02  0.1256633E+00
          2   -1    0    0  501    0  0.00000000000E+00  0.00000000000E+00  0.71670282413E+02  0.71670282413E+02  0.00000000000E+00 0. -1.
         -2   -1    0    0    0  501 -0.00000000000E+00 -0.00000000000E+00 -0.26597648023E+03  0.26597648023E+03  0.00000000000E+00 0.  1.
         25    2    1    2    0    0  0.35263345305E+02  0.72545738455E+02 -0.81804184420E+02  0.16984191775E+03  0.12509182526E+03 0.  0.
          5    1    3    3  502    0 -0.25278481264E+01  0.89189164385E+02 -0.90803283434E+02  0.12737270407E+03  0.41800000000E+01 0. -1.
         -5    1    3    3    0  502  0.37791193431E+02 -0.16643425930E+02  0.89990990146E+01  0.42469213681E+02  0.41800000000E+01 0. -1.
        -11    1    1    2    0    0  0.29125254613E+01 -0.48010291845E+02 -0.17660569600E+01  0.48130965966E+02  0.00000000000E+00 0. -1.
         11    1    1    2    0    0 -0.38175870766E+02 -0.24535446609E+02 -0.11073595644E+03  0.11967387893E+03  0.00000000000E+00 0.  1.
</event>
<event>
 7    1  0.2564986E-009  0.1062766E+03  0.7561462E-02  0.1267625E+00
          1   -1    0    0  501    0  0.00000000000E+00  0.00000000000E+00  0.70950081697E+02  0.70950081697E+02  0.00000000000E+00 0. -1.
         -1   -1    0    0    0  501 -0.00000000000E+00 -0.00000000000E+00 -0.29091325697E+03  0.29091325697E+03  0.00000000000E+00 0.  1.
         25    2    1    2    0    0  0.28008137649E+02 -0.63481222077E+02 -0.41637658129E+02  0.14898436790E+03  0.12509326910E+03 0.  0.
          5    1    3    3  502    0 -0.42961495577E+02 -0.14008046944E+02  0.12213923655E+02  0.46995402035E+02  0.41800000000E+01 0.  1.
         -5    1    3    3    0  502  0.70969633226E+02 -0.49473175133E+02 -0.53851581784E+02  0.10198896587E+03  0.41800000000E+01 0.  1.
        -11    1    1    2    0    0  0.84153870586E+01  0.29747265377E+02 -0.34658651884E+01  0.31108371193E+02  0.00000000000E+00 0. -1.
         11    1    1    2    0    0 -0.36423524708E+02  0.33733956700E+02 -0.17485965195E+03  0.18177059957E+03  0.00000000000E+00 0.  1.
</event>
<event>
 7    1  0.2564986E-009  0.2064762E+03  0.7561462E-02  0.1144387E+00
          1   -1    0    0  501    0  0.00000000000E+00  0.00000000000E+00  0.82128908996E+03  0.82128908996E+03  0.00000000000E+00 0. -1.
         -1   -1    0    0    0  501 -0.00000000000E+00 -0.00000000000E+00 -0.95251120513E+02  0.95251120513E+02  0.00000000000E+00 0.  1.
         25    2    1    2    0    0  0.24468247274E+02 -0.18744599144E+03  0.85330003033E+02  0.24220503395E+03  0.12508946488E+03 0.  0.
          5    1    3    3  502    0  0.69042377836E+02 -0.11231477410E+03  0.20841517515E+02  0.13354137812E+03  0.41800000000E+01 0.  1.
         -5    1    3    3    0  502 -0.44574130561E+02 -0.75131217337E+02  0.64488485518E+02  0.10866365583E+03  0.41800000000E+01 0.  1.
        -11    1    1    2    0    0 -0.28958427920E+02  0.66164795794E+02  0.12340779520E+03  0.14298900190E+03  0.00000000000E+00 0.  1.
         11    1    1    2    0    0  0.44901806457E+01  0.12128119564E+03  0.51730017122E+03  0.53134617462E+03  0.00000000000E+00 0. -1.
</event>
<event>
 7    1  0.2564986E-009  0.1232345E+03  0.7561462E-02  0.1237855E+00
          2   -1    0    0  501    0  0.00000000000E+00  0.00000000000E+00  0.11433125554E+04  0.11433125554E+04  0.00000000000E+00 0.  1.
         -2   -1    0    0    0  501 -0.00000000000E+00 -0.00000000000E+00 -0.29499329282E+02  0.29499329282E+02  0.00000000000E+00 0. -1.
         25    2    1    2    0    0 -0.83727967924E+02 -0.70785989002E+02  0.90644763585E+03  0.92158343943E+03  0.12509072885E+03 0.  0.
          5    1    3    3  502    0 -0.13169281164E+02  0.13857771467E+02  0.18880919915E+02  0.27192449931E+02  0.41800000000E+01 0.  1.
         -5    1    3    3    0  502 -0.70558686760E+02 -0.84643760468E+02  0.88756671593E+03  0.89439098950E+03  0.41800000000E+01 0.  1.
        -11    1    1    2    0    0  0.85572174797E+02  0.57233832530E+02  0.21289214834E+03  0.23647700842E+03  0.00000000000E+00 0.  1.
         11    1    1    2    0    0 -0.18442068731E+01  0.13552156472E+02 -0.55265580833E+01  0.14751436821E+02  0.00000000000E+00 0. -1.
</event>
<event>
 7    1  0.2564986E-009  0.2880808E+03  0.7561462E-02  0.1091355E+00
          1   -1    0    0  501    0  0.00000000000E+00  0.00000000000E+00  0.13300719134E+04  0.13300719134E+04  0.00000000000E+00 0. -1.
         -1   -1    0    0    0  501 -0.00000000000E+00 -0.00000000000E+00 -0.98515887144E+02  0.98515887144E+02  0.00000000000E+00 0.  1.
         25    2    1    2    0    0  0.12874309914E+03 -0.24296762671E+03  0.10355612653E+04  0.10787230463E+04  0.12509285867E+03 0.  0.
          5    1    3    3  502    0  0.82157791076E+02 -0.54174615016E+02  0.48266513042E+03  0.49261332916E+03  0.41800000000E+01 0.  1.
         -5    1    3    3    0  502  0.46585308064E+02 -0.18879301170E+03  0.55289613489E+03  0.58610971718E+03  0.41800000000E+01 0.  1.
        -11    1    1    2    0    0 -0.17268112636E+02  0.16586141519E+01  0.35091614493E+02  0.39145371663E+02  0.00000000000E+00 0. -1.
         11    1    1    2    0    0 -0.11147498650E+03  0.24130901256E+03  0.16090314649E+03  0.31071938258E+03  0.00000000000E+00 0.  1.
</event>
<event>
 7    1  0.2564986E-009  0.1513408E+03  0.7561462E-02  0.1198835E+00
         -2   -1    0    0    0  501 -0.00000000000E+00  0.00000000000E+00  0.18229885309E+02  0.18229885309E+02  0.00000000000E+00 0.  1.
          2   -1    0    0  501    0  0.00000000000E+00 -0.00000000000E+00 -0.18408998693E+04  0.18408998693E+04  0.00000000000E+00 0. -1.
         25    2    1    2    0    0 -0.95163801521E+02 -0.59547449306E+02 -0.14389390270E+04  0.14487223768E+04  0.12509577866E+03 0.  0.
          5    1    3    3  502    0 -0.79849882268E+02 -0.92108202631E+02 -0.85445164473E+03  0.86311355584E+03  0.41800000000E+01 0.  1.
         -5    1    3    3    0  502 -0.15313919252E+02  0.32560753325E+02 -0.58448738225E+03  0.58560882096E+03  0.41800000000E+01 0.  1.
        -11    1    1    2    0    0 -0.15779907278E+02  0.22573069287E+02 -0.55322191825E+02  0.61798817457E+02  0.00000000000E+00 0.  1.
         11    1    1    2    0    0  0.11094370880E+03  0.36974380020E+02 -0.32840876520E+03  0.34860856037E+03  0.00000000000E+00 0. -1.
</event>
<event>
 7    1  0.2564986E-009  0.1086294E+03  0.7561462E-02  0.1263129E+00
          2   -1    0    0  501    0  0.00000000000E+00  0.00000000000E+00  0.84877819977E+02  0.84877819977E+02  0.00000000000E+00 0. -1.
         -2   -1    0    0    0  501 -0.00000000000E+00 -0.00000000000E+00 -0.16205864495E+03  0.16205864495E+03  0.00000000000E+00 0.  1.
         25    2    1    2    0    0  0.17846170472E+01 -0.16764629603E+02 -0.28624113534E+00  0.12622202044E+03  0.12509068249E+03 0.  0.
          5    1    3    3  502    0 -0.58704334500E+02  0.10048688823E+02 -0.38523408792E+01  0.59828822204E+02  0.41800000000E+01 0. -1.
         -5    1    3    3    0  502  0.60488951547E+02 -0.26813318427E+02  0.35660997439E+01  0.66393198234E+02  0.41800000000E+01 0. -1.
        -11    1    1    2    0    0  0.25418333754E+02 -0.28661196439E+02 -0.44176120538E+02  0.58472946718E+02  0.00000000000E+00 0.  1.
         11    1    1    2    0    0 -0.27202950801E+02  0.45425826042E+02 -0.32718463298E+02  0.62241497769E+02  0.00000000000E+00 0. -1.
</event>
<event>
 7    1  0.2564986E-009  0.1908804E+03  0.7561462E-02  0.1157670E+00
          2   -1    0    0  501    0  0.00000000000E+00  0.00000000000E+00  0.26387369592E+04  0.26387369592E+04  0.00000000000E+00 0. -1.
         -2   -1    0    0    0  501 -0.00000000000E+00 -0.00000000000E+00 -0.26520870392E+02  0.26520870392E+02  0.00000000000E+00 0.  1.
         25    2    1    2    0    0  0.16770385202E+03 -0.35464497869E+02  0.21940937698E+04  0.22043317044E+04  0.12509388443E+03 0.  0.
          5    1    3    3  502    0 -0.62743645194E+01  0.89966065610E+01  0.23014281422E+02  0.25834785254E+02  0.41800000000E+01 0. -1.
         -5    1    3    3    0  502  0.17397821654E+03 -0.44461104430E+02  0.21710794884E+04  0.21784969192E+04  0.41800000000E+01 0. -1.
        -11    1    1    2    0    0 -0.17447128292E+03  0.22679656291E+02  0.35549720306E+03  0.39665206007E+03  0.00000000000E+00 0.  1.
         11    1    1    2    0    0  0.67674308968E+01  0.12784841578E+02  0.62625115990E+02  0.64274065126E+02  0.00000000000E+00 0. -1.
</event>
<event>
 7    1  0.2564986E-009  0.1253490E+03  0.7561462E-02  0.1234525E+00
          2   -1    0    0  501    0  0.00000000000E+00  0.00000000000E+00  0.84156816487E+02  0.84156816487E+02  0.00000000000E+00 0. -1.
         -2   -1    0    0    0  501 -0.00000000000E+00 -0.00000000000E+00 -0.23379634782E+03  0.23379634782E+03  0.00000000000E+00 0.  1.
         25    2    1    2    0    0 -0.71638265880E+02  0.56366056580E+02 -0.85669389572E+02  0.17691079662E+03  0.12509601185E+03 0.  0.
          5    1    3    3  502    0 -0.81370517627E+02  0.10950643681E+01 -0.92541866367E+01  0.82008979235E+02  0.41800000000E+01 0.  1.
         -5    1    3    3    0  502  0.97322517466E+01  0.55270992212E+02 -0.76415202936E+02  0.94901817390E+02  0.41800000000E+01 0.  1.
        -11    1    1    2    0    0  0.47757082947E+02  0.40922234084E+01  0.25951712268E+01  0.48002293464E+02  0.00000000000E+00 0. -1.
         11    1    1    2    0    0  0.23881182933E+02 -0.60458279989E+02 -0.66565312986E+02  0.93040074218E+02  0.00000000000E+00 0.  1.
</event>
<event>
 7    1  0.3635356E-009  0.1870508E+03  0.7561462E-02  0.1161148E+00
         -1   -1    0    0    0  501 -0.00000000000E+00  0.00000000000E+00  0.56537090506E+02  0.56537090506E+02  0.00000000000E+00 0.  1.
          1   -1    0    0  501    0  0.00000000000E+00 -0.00000000000E+00 -0.74659769036E+03  0.74659769036E+03  0.00000000000E+00 0. -1.
         25    2    1    2    0    0  0.15396529116E+02 -0.16254685786E+03 -0.24157885228E+03  0.31727922043E+03  0.12508887937E+03 0.  0.
          5    1    3    3  502    0 -0.49034443532E+02 -0.46440829049E+02 -0.11698383604E+03  0.13514369223E+03  0.41800000000E+01 0. -1.
         -5    1    3    3    0  502  0.64430972647E+02 -0.11610602881E+03 -0.12459501624E+03  0.18213552820E+03  0.41800000000E+01 0. -1.
        -11    1    1    2    0    0  0.22397204010E+02  0.73860693282E+02 -0.29229065693E+03  0.30230922064E+03  0.00000000000E+00 0. -1.
         11    1    1    2    0    0 -0.37793733126E+02  0.88686164578E+02 -0.15619109065E+03  0.18354633979E+03  0.00000000000E+00 0.  1.
</event>
<event>
 7    1  0.2564986E-009  0.1127482E+03  0.7561462E-02  0.1255564E+00
          2   -1    0    0  501    0  0.00000000000E+00  0.00000000000E+00  0.57029360689E+03  0.57029360689E+03  0.00000000000E+00 0. -1.
         -2   -1    0    0    0  501 -0.00000000000E+00 -0.00000000000E+00 -0.24664943947E+02  0.24664943947E+02  0.00000000000E+00 0.  1.
         25    2    1    2    0    0 -0.12714806918E+02 -0.42520909036E+02  0.35890170941E+03  0.38265762819E+03  0.12508688729E+03 0.  0.
          5    1    3    3  502    0 -0.66465948968E+02 -0.67678267769E+01  0.15793868891E+03  0.17153899763E+03  0.41800000000E+01 0.  1.
         -5    1    3    3    0  502  0.53751142049E+02 -0.35753082259E+02  0.20096302049E+03  0.21111863056E+03  0.41800000000E+01 0.  1.
        -11    1    1    2    0    0 -0.23490474044E+02  0.51464060682E+02  0.14843209480E+03  0.15884721805E+03  0.00000000000E+00 0. -1.
         11    1    1    2    0    0  0.36205280963E+02 -0.89431516467E+01  0.38294858735E+02  0.53453704610E+02  0.00000000000E+00 0.  1.
</event>
<event>
 7    1  0.2564986E-009  0.1001015E+03  0.7561462E-02  0.1280083E+00
         -3   -1    0    0    0  501 -0.00000000000E+00  0.00000000000E+00  0.69092344951E+02  0.69092344951E+02  0.00000000000E+00 0.  1.
          3   -1    0    0  501    0  0.00000000000E+00 -0.00000000000E+00 -0.23548046147E+03  0.23548046147E+03  0.00000000000E+00 0. -1.
         25    2    1    2    0    0  0.56893190233E+02 -0.10516529460E+02 -0.13220073001E+03  0.19098041704E+03  0.12509617976E+03 0.  0.
          5    1    3    3  502    0  0.72873845026E+02 -0.15992728681E+02 -0.19886510496E+02  0.77326000538E+02  0.41800000000E+01 0.  1.
         -5    1    3    3    0  502 -0.15980654793E+02  0.54761992204E+01 -0.11231421951E+03  0.11365441650E+03  0.41800000000E+01 0.  1.
        -11    1    1    2    0    0 -0.67678443018E+02  0.38655868918E+02 -0.28081967259E+02  0.82844702524E+02  0.00000000000E+00 0.  1.
         11    1    1    2    0    0  0.10785252785E+02 -0.28139339458E+02 -0.61054192502E+01  0.30747686856E+02  0.00000000000E+00 0. -1.
</event>
<event>
 7    1  0.2564986E-009  0.1391365E+03  0.7561462E-02  0.1214496E+00
         -1   -1    0    0    0  501 -0.00000000000E+00  0.00000000000E+00  0.44445923812E+03  0.44445923812E+03  0.00000000000E+00 0.  1.
          1   -1    0    0  501    0  0.00000000000E+00 -0.00000000000E+00 -0.57933791075E+02  0.57933791075E+02  0.00000000000E+00 0. -1.
         25    2    1    2    0    0  0.12913700037E+02  0.11017129900E+03  0.27115856996E+03  0.31855828454E+03  0.12509169360E+03 0.  0.
          5    1    3    3  502    0 -0.40281244143E+02  0.14781798052E+02  0.14677658351E+03  0.15297685462E+03  0.41800000000E+01 0.  1.
         -5    1    3    3    0  502  0.53194944181E+02  0.95389500948E+02  0.12438198646E+03  0.16558142992E+03  0.41800000000E+01 0.  1.
        -11    1    1    2    0    0  0.10801222674E+02 -0.99106840500E+02  0.12129024313E+03  0.15700367933E+03  0.00000000000E+00 0.  1.
         11    1    1    2    0    0 -0.23714922711E+02 -0.11064458500E+02 -0.59233660528E+01  0.26831065325E+02  0.00000000000E+00 0. -1.
</event>
<event>
 7    1  0.2564986E-009  0.1612921E+03  0.7561462E-02  0.1187246E+00
         -1   -1    0    0    0  501 -0.00000000000E+00  0.00000000000E+00  0.26178993890E+02  0.26178993890E+02  0.00000000000E+00 0.  1.
          1   -1    0    0  501    0  0.00000000000E+00 -0.00000000000E+00 -0.11567384578E+04  0.11567384578E+04  0.00000000000E+00 0. -1.
         25    2    1    2    0    0  0.12604616178E+03 -0.17171738460E+02 -0.75883688823E+03  0.77952797915E+03  0.12509174169E+03 0.  0.
          5    1    3    3  502    0  0.14402827768E+03 -0.12285488807E+01 -0.71487024247E+03  0.72924796199E+03  0.41800000000E+01 0.  1.
         -5    1    3    3    0  502 -0.17982115893E+02 -0.15943189579E+02 -0.43966645759E+02  0.50280017157E+02  0.41800000000E+01 0.  1.
        -11    1    1    2    0    0 -0.70199648930E+02 -0.34315632691E+02 -0.22480104267E+03  0.23799382795E+03  0.00000000000E+00 0. -1.
         11    1    1    2    0    0 -0.55846512855E+02  0.51487371151E+02 -0.14692153299E+03  0.16539564457E+03  0.00000000000E+00 0.  1.
</event>
<event>
 7    1  0.2564986E-009  0.1083818E+03  0.7561462E-02  0.1263596E+00
         -1   -1    0    0    0  501 -0.00000000000E+00  0.00000000000E+00  0.10791261364E+03  0.10791261364E+03  0.00000000000E+00 0.  1.
          1   -1    0    0  501    0  0.00000000000E+00 -0.00000000000E+00 -0.15347107116E+03  0.15347107116E+03  0.00000000000E+00 0. -1.
         25    2    1    2    0    0  0.46142929736E+01 -0.58790357703E+02 -0.63131946367E+02  0.15202134205E+03  0.12508896005E+03 0.  0.
          5    1    3    3  502    0 -0.51501517877E+01  0.36384413878E+02 -0.37970375814E+02  0.53005391010E+02  0.41800000000E+01 0. -1.
         -5    1    3    3    0  502  0.97644447613E+01 -0.95174771581E+02 -0.25161570553E+02  0.99015951037E+02  0.41800000000E+01 0. -1.
        -11    1    1    2    0    0 -0.31674082360E+02  0.40220996352E+02  0.43781666672E+02  0.67363271725E+02  0.00000000000E+00 0.  1.
         11    1    1    2    0    0  0.27059789387E+02  0.18569361351E+02 -0.26208177826E+02  0.41999071032E+02  0.00000000000E+00 0. -1.
</event>
<event>
 7    1  0.2564986E-009  0.1289633E+03  0.7561462E-02  0.1229002E+00
          2   -1    0    0  501    0  0.00000000000E+00  0.00000000000E+00  0.33087697512E+03  0.33087697512E+03  0.00000000000E+00 0. -1.
         -2   -1    0    0    0  501 -0.00000000000E+00 -0.00000000000E+00 -0.61556386874E+02  0.61556386874E+02  0.00000000000E+00 0.  1.
         25    2    1    2    0    0 -0.93411143554E+02 -0.99557111550E+00  0.15870945996E+03  0.22262126050E+03  0.12507957485E+03 0.  0.
          5    1    3    3  502    0  0.17669129485E+02  0.15890069845E+01 -0.98307665158E+01  0.20708439107E+02  0.41800000000E+01 0. -1.
         -5    1    3    3    0  502 -0.11108027304E+03 -0.25845781000E+01  0.16854022648E+03  0.20191282140E+03  0.41800000000E+01 0. -1.
        -11    1    1    2    0    0  0.49630684340E+02  0.44596265018E+02  0.63529681423E+02  0.92130625219E+02  0.00000000000E+00 0. -1.
         11    1    1    2    0    0  0.43780459214E+02 -0.43600693902E+02  0.47081446863E+02  0.77681476276E+02  0.00000000000E+00 0.  1.
</event>
<event>
 7    1  0.2564986E-009  0.1356779E+03  0.7561462E-02  0.1219266E+00
         -2   -1    0    0    0  501 -0.00000000000E+00  0.00000000000E+00  0.66077126087E+02  0.66077126087E+02  0.00000000000E+00 0.  1.
          2   -1    0    0  501    0  0.00000000000E+00 -0.00000000000E+00 -0.42029637680E+03  0.42029637680E+03  0.00000000000E+00 0. -1.
         25    2    1    2    0    0  0.73469875223E+02  0.61268600082E+02 -0.69409683006E+02  0.17209325684E+03  0.12508685396E+03 0.  0.
          5    1    3    3  502    0  0.92366133458E+02  0.79674689679E+02 -0.32090457673E+02  0.12620153984E+03  0.41800000000E+01 0.  1.
         -5    1    3    3    0  502 -0.18896258235E+02 -0.18406089597E+02 -0.37319225333E+02  0.45891716997E+02  0.41800000000E+01 0.  1.
        -11    1    1    2    0    0 -0.60310404536E+02 -0.39205085301E+00 -0.79857129960E+02  0.10007327218E+03  0.00000000000E+00 0.  1.
         11    1    1    2    0    0 -0.13159470687E+02 -0.60876549229E+02 -0.20495243775E+03  0.21420697387E+03  0.00000000000E+00 0. -1.
</event>
<event>
 7    1  0.2564986E-009  0.2379828E+03  0.7561462E-02  0.1121144E+00
          4   -1    0    0  501    0  0.00000000000E+00  0.00000000000E+00  0.15586153799E+04  0.15586153799E+04  0.00000000000E+00 0.  1.
         -4   -1    0    0    0  501 -0.00000000000E+00 -0.00000000000E+00 -0.42713722370E+02  0.42713722370E+02  0.00000000000E+00 0. -1.
         25    2    1    2    0    0  0.24191824480E+00 -0.22327298994E+03  0.10011943672E+04  0.10333865662E+04  0.12508696062E+03 0.  0.
          5    1    3    3  502    0 -0.16446928826E+02 -0.22750476251E+03  0.81429419105E+03  0.84564852060E+03  0.41800000000E+01 0. -1.
         -5    1    3    3    0  502  0.16688847071E+02  0.42317725682E+01  0.18690017611E+03  0.18773804555E+03  0.41800000000E+01 0. -1.
        -11    1    1    2    0    0  0.27557446277E+02  0.98721805775E+02  0.15103550715E+03  0.18252981182E+03  0.00000000000E+00 0.  1.
         11    1    1    2    0    0 -0.27799364521E+02  0.12455118416E+03  0.36367178326E+03  0.38541272434E+03  0.00000000000E+00 0. -1.
</event>
<event>
 7    1  0.2564986E-009  0.1530179E+03  0.7561462E-02  0.1196813E+00
          2   -1    0    0  501    0  0.00000000000E+00  0.00000000000E+00  0.12248637605E+03  0.12248637605E+03  0.00000000000E+00 0. -1.
         -2   -1    0    0    0  501 -0.00000000000E+00 -0.00000000000E+00 -0.21872248403E+03  0.21872248403E+03  0.00000000000E+00 0.  1.
         25    2    1    2    0    0 -0.11344701783E+03 -0.17239068785E+02 -0.95429306891E+02  0.19473567520E+03  0.12509124364E+03 0.  0.
          5    1    3    3  502    0 -0.57220209537E+02 -0.65862487651E+02 -0.21803954328E+02  0.90027243006E+02  0.41800000000E+01 0.  1.
         -5    1    3    3    0  502 -0.56226808291E+02  0.48623418866E+02 -0.73625352564E+02  0.10470843220E+03  0.41800000000E+01 0.  1.
        -11    1    1    2    0    0  0.41816554090E+02 -0.35847490037E+02  0.12082892975E+02  0.56388500960E+02  0.00000000000E+00 0. -1.
         11    1    1    2    0    0  0.71630463738E+02  0.53086558822E+02 -0.12889694060E+02  0.90084683913E+02  0.00000000000E+00 0.  1.
</event>
<event>
 7    1  0.2564986E-009  0.2236145E+03  0.7561462E-02  0.1131217E+00
         -2   -1    0    0    0  501 -0.00000000000E+00  0.00000000000E+00  0.36165235599E+02  0.36165235599E+02  0.00000000000E+00 0.  1.
          2   -1    0    0  501    0  0.00000000000E+00 -0.00000000000E+00 -0.14702215494E+04  0.14702215494E+04  0.00000000000E+00 0. -1.
         25    2    1    2    0    0  0.10964370255E+03  0.16610453453E+03 -0.87997632655E+03  0.91083393771E+03  0.12509064268E+03 0.  0.
          5    1    3    3  502    0 -0.36135271629E+01  0.98224448306E+02 -0.28948570699E+03  0.30574588595E+03  0.41800000000E+01 0. -1.
         -5    1    3    3    0  502  0.11325722971E+03  0.67880086223E+02 -0.59049061956E+03  0.60508805175E+03  0.41800000000E+01 0. -1.
        -11    1    1    2    0    0 -0.33375366119E+02 -0.12645016413E+03 -0.29813319830E+03  0.32555638990E+03  0.00000000000E+00 0.  1.
         11    1    1    2    0    0 -0.76268336430E+02 -0.39654370398E+02 -0.25594678890E+03  0.26999645735E+03  0.00000000000E+00 0. -1.
</event>
<event>
 7    1  0.2564986E-009  0.1140347E+03  0.7561462E-02  0.1253275E+00
         -1   -1    0    0    0  501 -0.00000000000E+00  0.00000000000E+00  0.32604820458E+02  0.32604820458E+02  0.00000000000E+00 0.  1.
          1   -1    0    0  501    0  0.00000000000E+00 -0.00000000000E+00 -0.41018022522E+03  0.41018022522E+03  0.00000000000E+00 0. -1.
         25    2    1    2    0    0  0.12168383202E+02  0.36496549072E+02 -0.20074035086E+03  0.23963334077E+03  0.12508949557E+03 0.  0.
          5    1    3    3  502    0 -0.33849593386E+02 -0.32028538710E+02 -0.56149195194E+02  0.73087801890E+02  0.41800000000E+01 0. -1.
         -5    1    3    3    0  502  0.46017976589E+02  0.68525087781E+02 -0.14459115566E+03  0.16654553888E+03  0.41800000000E+01 0. -1.
        -11    1    1    2    0    0 -0.45670523757E+02 -0.44950360870E+02 -0.98177716125E+02  0.11723990629E+03  0.00000000000E+00 0.  1.
         11    1    1    2    0    0  0.33502140555E+02  0.84538117980E+01 -0.78657337785E+02  0.85911798625E+02  0.00000000000E+00 0. -1.
</event>
<event>
 7    1  0.2564986E-009  0.1035304E+03  0.7561462E-02  0.1273042E+00
          2   -1    0    0  501    0  0.00000000000E+00  0.00000000000E+00  0.39596987046E+03  0.39596987046E+03  0.00000000000E+00 0. -1.
         -2   -1    0    0    0  501 -0.00000000000E+00 -0.00000000000E+00 -0.33005503529E+02  0.33005503529E+02  0.00000000000E+00 0.  1.
         25    2    1    2    0    0  0.22962471605E+01 -0.37193029628E+02  0.18878191797E+03  0.22951652865E+03  0.12510247865E+03 0.  0.
          5    1    3    3  502    0 -0.52108511712E+02  0.64989336881E+01  0.12179606675E+03  0.13269999024E+03  0.41800000000E+01 0. -1.
         -5    1    3    3    0  502  0.54404758873E+02 -0.43691963316E+02  0.66985851221E+02  0.96816538413E+02  0.41800000000E+01 0. -1.
        -11    1    1    2    0    0  0.15648801145E+02  0.56201417571E+02  0.65664844315E+02  0.87837099754E+02  0.00000000000E+00 0.  1.
         11    1    1    2    0    0 -0.17945048306E+02 -0.19008387943E+02  0.10851760464E+03  0.11162174559E+03  0.00000000000E+00 0. -1.
</event>
<event>
 7    1  0.2564986E-009  0.1896866E+03  0.7561462E-02  0.1158744E+00
          2   -1    0    0  501    0  0.00000000000E+00  0.00000000000E+00  0.93977004405E+02  0.93977004405E+02  0.00000000000E+00 0. -1.
         -2   -1    0    0    0  501 -0.00000000000E+00 -0.00000000000E+00 -0.41287776873E+03  0.41287776873E+03  0.00000000000E+00 0.  1.
         25    2    1    2    0    0  0.89283611457E+02 -0.13639832176E+03 -0.14390424118E+03  0.25086248622E+03  0.12508993128E+03 0.  0.
          5    1    3    3  502    0 -0.20531507533E+02 -0.53733453824E+02 -0.81519684711E+02  0.99858691443E+02  0.41800000000E+01 0.  1.
         -5    1    3    3    0  502  0.10981511899E+03 -0.82664867940E+02 -0.62384556468E+02  0.15100379477E+03  0.41800000000E+01 0.  1.
        -11    1    1    2    0    0 -0.14468724526E+02  0.99898389149E+02 -0.11706535008E+03  0.15457466912E+03  0.00000000000E+00 0.  1.
         11    1    1    2    0    0 -0.74814886931E+02  0.36499932615E+02 -0.57931173068E+02  0.10141761780E+03  0.00000000000E+00 0. -1.
</event>
<event>
 7    1  0.2564986E-009  0.9188902E+02  0.7561462E-02  0.1298341E+00
          2   -1    0    0  501    0  0.00000000000E+00  0.00000000000E+00  0.30799415557E+03  0.30799415557E+03  0.00000000000E+00 0. -1.
         -2   -1    0    0    0  501 -0.00000000000E+00 -0.00000000000E+00 -0.44720877208E+02  0.44720877208E+02  0.00000000000E+00 0.  1.
         25    2    1    2    0    0  0.28931372747E+02  0.35993605900E+02  0.14797597707E+03  0.19918370536E+03  0.12507875398E+03 0.  0.
          5    1    3    3  502    0  0.49395906130E+02  0.12210362551E+02  0.15795024295E+03  0.16599638593E+03  0.41800000000E+01 0. -1.
         -5    1    3    3    0  502 -0.20464533383E+02  0.23783243348E+02 -0.99742658800E+01  0.33187319425E+02  0.41800000000E+01 0. -1.
        -11    1    1    2    0    0 -0.51456176283E+02 -0.52218468426E+02  0.78098579792E+02  0.10711626715E+03  0.00000000000E+00 0. -1.
         11    1    1    2    0    0  0.22524803536E+02  0.16224862526E+02  0.37198721498E+02  0.46415060265E+02  0.00000000000E+00 0.  1.
</event>
<event>
 7    1  0.2564986E-009  0.3162135E+03  0.7561462E-02  0.1077405E+00
         -3   -1    0    0    0  501 -0.00000000000E+00  0.00000000000E+00  0.38936930714E+03  0.38936930714E+03  0.00000000000E+00 0.  1.
          3   -1    0    0  501    0  0.00000000000E+00 -0.00000000000E+00 -0.32658487205E+03  0.32658487205E+03  0.00000000000E+00 0. -1.
         25    2    1    2    0    0  0.29452018923E+03  0.42237033421E+02  0.19608089428E+03  0.37765239969E+03  0.12509000374E+03 0.  0.
          5    1    3    3  502    0  0.29537204063E+03  0.16508731080E+02  0.18715309414E+03  0.35008703723E+03  0.41800000000E+01 0.  1.
         -5    1    3    3    0  502 -0.85185140897E+00  0.25728302341E+02  0.89278001420E+01  0.27565362460E+02  0.41800000000E+01 0.  1.
        -11    1    1    2    0    0 -0.24007550379E+03  0.23900616547E+01 -0.95349997994E+02  0.25832843829E+03  0.00000000000E+00 0. -1.
         11    1    1    2    0    0 -0.54444685437E+02 -0.44627095076E+02 -0.37946461191E+02  0.79973341209E+02  0.00000000000E+00 0.  1.
</event>
<event>
 7    1  0.2564986E-009  0.8561344E+02  0.7561462E-02  0.1313836E+00
          2   -1    0    0  501    0  0.00000000000E+00  0.00000000000E+00  0.70464980555E+03  0.70464980555E+03  0.00000000000E+00 0.  1.
         -2   -1    0    0    0  501 -0.00000000000E+00 -0.00000000000E+00 -0.30646482827E+02  0.30646482827E+02  0.00000000000E+00 0. -1.
         25    2    1    2    0    0  0.59779968956E+02 -0.28435563940E+02  0.55964036923E+03  0.57725808019E+03  0.12508925730E+03 0.  0.
          5    1    3    3  502    0  0.77900948702E+02 -0.32063154295E+02  0.54917167365E+03  0.55561101790E+03  0.41800000000E+01 0. -1.
         -5    1    3    3    0  502 -0.18120979746E+02  0.36275903552E+01  0.10468695576E+02  0.21647062290E+02  0.41800000000E+01 0. -1.
        -11    1    1    2    0    0 -0.39689690113E+02  0.26560402501E+02  0.12599893392E+03  0.13474590098E+03  0.00000000000E+00 0.  1.
         11    1    1    2    0    0 -0.20090278843E+02  0.18751614389E+01 -0.11635980425E+02  0.23292307204E+02  0.00000000000E+00 0. -1.
</event>
<event>
 7    1  0.2564986E-009  0.9053137E+02  0.7561462E-02  0.1301570E+00
         -2   -1    0    0    0  501 -0.00000000000E+00  0.00000000000E+00  0.52366251310E+02  0.52366251310E+02  0.00000000000E+00 0.  1.
          2   -1    0    0  501    0  0.00000000000E+00 -0.00000000000E+00 -0.34390372860E+03  0.34390372860E+03  0.00000000000E+00 0. -1.
         25    2    1    2    0    0  0.37647511494E+02  0.57203564508E+02 -0.10272376928E+03  0.17575360959E+03  0.12509026978E+03 0.  0.
          5    1    3    3  502    0  0.26484554495E+02  0.54874090197E+02 -0.13124201767E+03  0.14475682023E+03  0.41800000000E+01 0.  1.
         -5    1    3    3    0  502  0.11162956999E+02  0.23294743119E+01  0.28518248385E+02  0.30996789358E+02  0.41800000000E+01 0.  1.
        -11    1    1    2    0    0  0.78112920318E+01 -0.61672409369E+02 -0.14248751889E+03  0.15545801812E+03  0.00000000000E+00 0.  1.
         11    1    1    2    0    0 -0.45458803526E+02  0.44688448610E+01 -0.46326189123E+02  0.65058352201E+02  0.00000000000E+00 0. -1.
</event>
<event>
 7    1  0.2564986E-009  0.1210432E+03  0.7561462E-02  0.1241386E+00
          1   -1    0    0  501    0  0.00000000000E+00  0.00000000000E+00  0.21829931339E+03  0.21829931339E+03  0.00000000000E+00 0. -1.
         -1   -1    0    0    0  501 -0.00000000000E+00 -0.00000000000E+00 -0.10407019639E+03  0.10407019639E+03  0.00000000000E+00 0.  1.
         25    2    1    2    0    0  0.10148127210E+03  0.12378280645E+02  0.41426288995E+02  0.16677609817E+03  0.12508580688E+03 0.  0.
          5    1    3    3  502    0  0.59913070620E+02  0.39267322941E+02  0.77317995423E+02  0.10548480221E+03  0.41800000000E+01 0. -1.
         -5    1    3    3    0  502  0.41568201476E+02 -0.26889042297E+02 -0.35891706428E+02  0.61291295955E+02  0.41800000000E+01 0. -1.
        -11    1    1    2    0    0 -0.87458514735E+02 -0.34860408699E+02  0.84612378682E+02  0.12658394259E+03  0.00000000000E+00 0. -1.
         11    1    1    2    0    0 -0.14022757361E+02  0.22482128054E+02 -0.11809550674E+02  0.29009469022E+02  0.00000000000E+00 0.  1.
</event>
<event>
 7    1  0.2564986E-009  0.1779699E+03  0.7561462E-02  0.1169782E+00
         -2   -1    0    0    0  501 -0.00000000000E+00  0.00000000000E+00  0.95635419075E+02  0.95635419075E+02  0.00000000000E+00 0.  1.
          2   -1    0    0  501    0  0.00000000000E+00 -0.00000000000E+00 -0.40030894416E+03  0.40030894416E+03  0.00000000000E+00 0. -1.
         25    2    1    2    0    0 -0.40799536206E+02 -0.14566624767E+03 -0.23604446581E+03  0.30699582941E+03  0.12508473756E+03 0.  0.
          5    1    3    3  502    0 -0.74559955031E+02 -0.38965503688E+02 -0.97419864269E+02  0.12878509124E+03  0.41800000000E+01 0.  1.
         -5    1    3    3    0  502  0.33760418825E+02 -0.10670074399E+03 -0.13862460154E+03  0.17821073817E+03  0.41800000000E+01 0.  1.
        -11    1    1    2    0    0  0.30395288102E+01  0.10176179939E+03 -0.35973192460E+01  0.10187071834E+03  0.00000000000E+00 0.  1.
         11    1    1    2    0    0  0.37760007396E+02  0.43904448285E+02 -0.65031740031E+02  0.87077815483E+02  0.00000000000E+00 0. -1.
</event>
<event>
 7    1  0.2564986E-009  0.1483833E+03  0.7561462E-02  0.1202474E+00
         -1   -1    0    0    0  501 -0.00000000000E+00  0.00000000000E+00  0.24376349399E+02  0.24376349399E+02  0.00000000000E+00 0.  1.
          1   -1    0    0  501    0  0.00000000000E+00 -0.00000000000E+00 -0.12818874776E+04  0.12818874776E+04  0.00000000000E+00 0. -1.
         25    2    1    2    0    0 -0.17793248423E+01 -0.12629146127E+03 -0.88258057743E+03  0.90030496596E+03  0.12509139412E+03 0.  0.
          5    1    3    3  502    0 -0.28158881510E+01  0.14909096727E+02 -0.31555002075E+03  0.31594223901E+03  0.41800000000E+01 0. -1.
         -5    1    3    3    0  502  0.10365633087E+01 -0.14120055800E+03 -0.56703055668E+03  0.58436272695E+03  0.41800000000E+01 0. -1.
        -11    1    1    2    0    0 -0.27766866241E+02  0.41167057364E+02 -0.23001610926E+03  0.23531497189E+03  0.00000000000E+00 0. -1.
         11    1    1    2    0    0  0.29546191083E+02  0.85124403910E+02 -0.14491444149E+03  0.17064388914E+03  0.00000000000E+00 0.  1.
</event>
<event>
 7    1  0.2564986E-009  0.8381222E+02  0.7561462E-02  0.1318568E+00
         -2   -1    0    0    0  501 -0.00000000000E+00  0.00000000000E+00  0.10416843593E+02  0.10416843593E+02  0.00000000000E+00 0.  1.
          2   -1    0    0  501    0  0.00000000000E+00 -0.00000000000E+00 -0.22636036393E+04  0.22636036393E+04  0.00000000000E+00 0. -1.
         25    2    1    2    0    0  0.17268024950E+02  0.55411072759E+02 -0.18927059633E+04  0.18977224724E+04  0.12508456012E+03 0.  0.
          5    1    3    3  502    0  0.42381217114E+01 -0.20594348973E+00 -0.15674985850E+04  0.15675099012E+04  0.41800000000E+01 0.  1.
         -5    1    3    3    0  502  0.13029903239E+02  0.55617016249E+02 -0.32520737832E+03  0.33021257122E+03  0.41800000000E+01 0.  1.
        -11    1    1    2    0    0 -0.23145630140E+02 -0.77838954143E+02 -0.23351071348E+03  0.24722838891E+03  0.00000000000E+00 0.  1.
         11    1    1    2    0    0  0.58776051901E+01  0.22427881384E+02 -0.12697011896E+03  0.12906962158E+03  0.00000000000E+00 0. -1.
</event>
<event>
 7    1  0.2695877E-009  0.6724467E+02  0.7561462E-02  0.1369721E+00
          1   -1    0    0  501    0  0.00000000000E+00  0.00000000000E+00  0.38097140022E+03  0.38097140022E+03  0.00000000000E+00 0. -1.
         -1   -1    0    0    0  501 -0.00000000000E+00 -0.00000000000E+00 -0.40320317825E+02  0.40320317825E+02  0.00000000000E+00 0.  1.
         25    2    1    2    0    0 -0.30763766712E+02 -0.39861971016E+02  0.13344587287E+03  0.18971136387E+03  0.12508882652E+03 0.  0.
          5    1    3    3  502    0 -0.10287854730E+02 -0.10084325236E+02 -0.23898581709E+02  0.28216097854E+02  0.41800000000E+01 0.  1.
         -5    1    3    3    0  502 -0.20475911982E+02 -0.29777645780E+02  0.15734445458E+03  0.16149526602E+03  0.41800000000E+01 0.  1.
        -11    1    1    2    0    0 -0.20867634475E+02  0.74985715905E+01  0.85096354481E+01  0.23750802932E+02  0.00000000000E+00 0.  1.
         11    1    1    2    0    0  0.51631401186E+02  0.32363399425E+02  0.19869557408E+03  0.20782955125E+03  0.00000000000E+00 0. -1.
</event>
<event>
 7    1  0.2564986E-009  0.1036599E+03  0.7561462E-02  0.1272783E+00
         -1   -1    0    0    0  501 -0.00000000000E+00  0.00000000000E+00  0.18900875460E+03  0.18900875460E+03  0.00000000000E+00 0.  1.
          1   -1    0    0  501    0  0.00000000000E+00 -0.00000000000E+00 -0.97737658730E+02  0.97737658730E+02  0.00000000000E+00 0. -1.
         25    2    1    2    0    0 -0.44401335393E+02 -0.61309019042E+02  0.82796214752E+02  0.16802440526E+03  0.12508682259E+03 0.  0.
          5    1    3    3  502    0 -0.11630884580E+02 -0.73840100009E+02  0.10299116375E+03  0.12732749136E+03  0.41800000000E+01 0. -1.
         -5    1    3    3    0  502 -0.32770450814E+02  0.12531080966E+02 -0.20194948995E+02  0.40696913908E+02  0.41800000000E+01 0. -1.
        -11    1    1    2    0    0  0.38085749634E+02  0.27107076149E+01 -0.29810437479E+02  0.48441040902E+02  0.00000000000E+00 0. -1.
         11    1    1    2    0    0  0.63155857595E+01  0.58598311428E+02  0.38285318602E+02  0.70280967168E+02  0.00000000000E+00 0.  1.
</event>
<event>
 7    1  0.2564986E-009  0.1359896E+03  0.7561462E-02  0.1218829E+00
         -2   -1    0    0    0  501 -0.00000000000E+00  0.00000000000E+00  0.50080883046E+02  0.50080883046E+02  0.00000000000E+00 0.  1.
          2   -1    0    0  501    0  0.00000000000E+00 -0.00000000000E+00 -0.49202667915E+03  0.49202667915E+03  0.00000000000E+00 0. -1.
         25    2    1    2    0    0  0.32643941275E+02  0.10203806929E+03 -0.29323846077E+03  0.33632320685E+03  0.12508840916E+03 0.  0.
          5    1    3    3  502    0 -0.21747891217E+01  0.10813664594E+03 -0.27661440426E+03  0.29703748071E+03  0.41800000000E+01 0.  1.
         -5    1    3    3    0  502  0.34818730397E+02 -0.60985766489E+01 -0.16624056510E+02  0.39285726141E+02  0.41800000000E+01 0.  1.
        -11    1    1    2    0    0  0.20416403672E+02 -0.49178773820E+02 -0.10830088721E+03  0.12068331908E+03  0.00000000000E+00 0. -1.
         11    1    1    2    0    0 -0.53060344947E+02 -0.52859295472E+02 -0.40406448126E+02  0.85101036267E+02  0.00000000000E+00 0.  1.
</event>
<event>
 7    1  0.2564986E-009  0.1068861E+03  0.7561462E-02  0.1266448E+00
          2   -1    0    0  501    0  0.00000000000E+00  0.00000000000E+00  0.40829499489E+03  0.40829499489E+03  0.00000000000E+00 0. -1.
         -2   -1    0    0    0  501 -0.00000000000E+00 -0.00000000000E+00 -0.41450127310E+02  0.41450127310E+02  0.00000000000E+00 0.  1.
         25    2    1    2    0    0  0.16354250945E+01  0.21223582781E+02  0.32188605079E+03  0.34599250027E+03  0.12508823071E+03 0.  0.
          5    1    3    3  502    0 -0.22773313571E+02 -0.47031373662E+02  0.10660625272E+03  0.11879789324E+03  0.41800000000E+01 0.  1.
         -5    1    3    3    0  502  0.24408738665E+02  0.68254956442E+02  0.21527979808E+03  0.22719460703E+03  0.41800000000E+01 0.  1.
        -11    1    1    2    0    0 -0.30650645349E+02 -0.42757627026E+02  0.10147037946E+02  0.53578345516E+02  0.00000000000E+00 0.  1.
         11    1    1    2    0    0  0.29015220255E+02  0.21534044245E+02  0.34811778837E+02  0.50174276415E+02  0.00000000000E+00 0. -1.
</event>
<event>
 7    1  0.3652130E-009  0.1160811E+03  0.7561462E-02  0.1249706E+00
         -2   -1    0    0    0  501 -0.00000000000E+00  0.00000000000E+00  0.25665938004E+02  0.25665938004E+02  0.00000000000E+00 0. -1.
          2   -1    0    0  501    0  0.00000000000E+00 -0.00000000000E+00 -0.88394581324E+03  0.88394581324E+03  0.00000000000E+00 0.  1.
         25    2    1    2    0    0 -0.98217996361E+02 -0.33143713204E+02 -0.48688685067E+03  0.51327481334E+03  0.12508776169E+03 0.  0.
          5    1    3    3  502    0 -0.95989924034E+02 -0.12877918637E+01 -0.46379822245E+03  0.47364753507E+03  0.41800000000E+01 0. -1.
         -5    1    3    3    0  502 -0.22280723269E+01 -0.31855921341E+02 -0.23088628216E+02  0.39627278277E+02  0.41800000000E+01 0. -1.
        -11    1    1    2    0    0  0.54946412984E+02  0.15098476869E+02 -0.32646810870E+03  0.33140382964E+03  0.00000000000E+00 0.  1.
         11    1    1    2    0    0  0.43271583377E+02  0.18045236335E+02 -0.44924915864E+02  0.64933108256E+02  0.00000000000E+00 0. -1.
</event>
<event>
 7    1  0.2564986E-009  0.1222818E+03  0.7561462E-02  0.1239380E+00
          2   -1    0    0  501    0  0.00000000000E+00  0.00000000000E+00  0.38636109751E+03  0.38636109751E+03  0.00000000000E+00 0. -1.
         -2   -1    0    0    0  501 -0.00000000000E+00 -0.00000000000E+00 -0.59192444610E+02  0.59192444610E+02  0.00000000000E+00 0.  1.
         25    2    1    2    0    0  0.86211098171E+02 -0.19246313780E+02  0.26068965709E+03  0.30234381747E+03  0.12509961074E+03 0.  0.
          5    1    3    3  502    0 -0.15290034594E+02 -0.24149562984E+02  0.14695556532E+03  0.14976781072E+03  0.41800000000E+01 0. -1.
         -5    1    3    3    0  502  0.10150113276E+03  0.49032492041E+01  0.11373409177E+03  0.15257600675E+03  0.41800000000E+01 0. -1.
        -11    1    1    2    0    0 -0.85614830472E+02  0.39091437717E+02  0.25243861882E+02  0.97443790271E+02  0.00000000000E+00 0.  1.
         11    1    1    2    0    0 -0.59626769827E+00 -0.19845123938E+02  0.41235133927E+02  0.45765934375E+02  0.00000000000E+00 0. -1.
</event>
<event>
 7    1  0.2564986E-009  0.3311593E+03  0.7561462E-02  0.1070625E+00
         -3   -1    0    0    0  501 -0.00000000000E+00  0.00000000000E+00  0.45238643766E+03  0.45238643766E+03  0.00000000000E+00 0.  1.
          3   -1    0    0  501    0  0.00000000000E+00 -0.00000000000E+00 -0.26686949042E+03  0.26686949042E+03  0.00000000000E+00 0. -1.
         25    2    1    2    0    0 -0.25712950589E+03  0.18961216989E+03  0.18512734863E+03  0.38985691551E+03  0.12509165276E+03 0.  0.
          5    1    3    3  502    0  0.59386933986E+01  0.17460181079E+02 -0.83580997524E+01  0.20675014730E+02  0.41800000000E+01 0. -1.
         -5    1    3    3    0  502 -0.26306819929E+03  0.17215198881E+03  0.19348544838E+03  0.36918190078E+03  0.41800000000E+01 0. -1.
        -11    1    1    2    0    0  0.18937685081E+03 -0.17867225805E+03  0.69758460262E+01  0.26045350804E+03  0.00000000000E+00 0.  1.
         11    1    1    2    0    0  0.67752655075E+02 -0.10939911838E+02 -0.65862474144E+01  0.68945504536E+02  0.00000000000E+00 0. -1.
</event>
<event>
 7    1  0.2564986E-009  0.1146056E+03  0.7561462E-02  0.1252271E+00
          3   -1    0    0  501    0  0.00000000000E+00  0.00000000000E+00  0.42442480353E+03  0.42442480353E+03  0.00000000000E+00 0. -1.
         -3   -1    0    0    0  501 -0.00000000000E+00 -0.00000000000E+00 -0.36802292901E+02  0.36802292901E+02  0.00000000000E+00 0.  1.
         25    2    1    2    0    0  0.16592291560E+02 -0.43089423978E+02  0.28363658161E+03  0.31342344967E+03  0.12511013457E+03 0.  0.
          5    1    3    3  502    0  0.68178681168E+02 -0.10087203624E+02  0.11718079229E+03  0.13601064195E+03  0.41800000000E+01 0.  1.
         -5    1    3    3    0  502 -0.51586389608E+02 -0.33002220354E+02  0.16645578932E+03  0.17741280771E+03  0.41800000000E+01 0.  1.
        -11    1    1    2    0    0 -0.33565787237E+02 -0.16084999364E+02  0.65102006958E+02  0.74991070050E+02  0.00000000000E+00 0. -1.
         11    1    1    2    0    0  0.16973495677E+02  0.59174423341E+02  0.38883922055E+02  0.72812576714E+02  0.00000000000E+00 0.  1.
</event>
<event>
 7    1  0.2564986E-009  0.7263297E+02  0.7561462E-02  0.1351362E+00
         -2   -1    0    0    0  501 -0.00000000000E+00  0.00000000000E+00  0.49042340371E+02  0.49042340371E+02  0.00000000000E+00 0. -1.
          2   -1    0    0  501    0  0.00000000000E+00 -0.00000000000E+00 -0.53951871498E+03  0.53951871498E+03  0.00000000000E+00 0.  1.
         25    2    1    2    0    0 -0.21667306128E+02  0.39841302238E+02 -0.59739995622E+02  0.14585733576E+03  0.12509473930E+03 0.  0.
          5    1    3    3  502    0 -0.19477387535E+02  0.35894716757E+02  0.33149014288E+02  0.52764844969E+02  0.41800000000E+01 0.  1.
         -5    1    3    3    0  502 -0.21899185931E+01  0.39465854810E+01 -0.92889009910E+02  0.93092490795E+02  0.41800000000E+01 0.  1.
        -11    1    1    2    0    0  0.72310134337E+01  0.27888619548E+02 -0.76145596942E+02  0.81413847651E+02  0.00000000000E+00 0.  1.
         11    1    1    2    0    0  0.14436292695E+02 -0.67729921787E+02 -0.35459078205E+03  0.36128987194E+03  0.00000000000E+00 0. -1.
</event>
<event>
 7    1  0.2564986E-009  0.2776903E+03  0.7561462E-02  0.1096957E+00
          2   -1    0    0  501    0  0.00000000000E+00  0.00000000000E+00  0.25156134580E+03  0.25156134580E+03  0.00000000000E+00 0. -1.
         -2   -1    0    0    0  501 -0.00000000000E+00 -0.00000000000E+00 -0.32046773495E+03  0.32046773495E+03  0.00000000000E+00 0.  1.
         25    2    1    2    0    0  0.17384119119E+03 -0.19230776848E+03 -0.74102245671E+02  0.29722359210E+03  0.12509070037E+03 0.  0.
          5    1    3    3  502    0 -0.10691506422E+02  0.37084199070E+01 -0.18833436551E+02  0.22365853887E+02  0.41800000000E+01 0. -1.
         -5    1    3    3    0  502  0.18453269761E+03 -0.19601618838E+03 -0.55268809120E+02  0.27485773821E+03  0.41800000000E+01 0. -1.
        -11    1    1    2    0    0 -0.18440227197E+03  0.18516126180E+03  0.81677219967E+00  0.26132270835E+03  0.00000000000E+00 0.  1.
         11    1    1    2    0    0  0.10561080787E+02  0.71465066765E+01  0.43790843209E+01  0.13482780298E+02  0.00000000000E+00 0. -1.
</event>
<event>
 7    1  0.2564986E-009  0.2017185E+03  0.7561462E-02  0.1148297E+00
         -2   -1    0    0    0  501 -0.00000000000E+00  0.00000000000E+00  0.13430151543E+03  0.13430151543E+03  0.00000000000E+00 0.  1.
          2   -1    0    0  501    0  0.00000000000E+00 -0.00000000000E+00 -0.34725537555E+03  0.34725537555E+03  0.00000000000E+00 0. -1.
         25    2    1    2    0    0 -0.16633434814E+03 -0.59253235352E+02 -0.17788671890E+03  0.28012427843E+03  0.12509142789E+03 0.  0.
          5    1    3    3  502    0 -0.78162231324E+02  0.31547921539E+02 -0.10240837680E+03  0.13270099396E+03  0.41800000000E+01 0.  1.
         -5    1    3    3    0  502 -0.88172116814E+02 -0.90801156891E+02 -0.75478342103E+02  0.14742328447E+03  0.41800000000E+01 0.  1.
        -11    1    1    2    0    0  0.68897089389E+02  0.65110600688E+02  0.71847257578E+01  0.95067447281E+02  0.00000000000E+00 0.  1.
         11    1    1    2    0    0  0.97437258749E+02 -0.58573653359E+01 -0.42251866978E+02  0.10636516528E+03  0.00000000000E+00 0. -1.
</event>
<event>
 7    1  0.2564986E-009  0.1107049E+03  0.7561462E-02  0.1259270E+00
         -2   -1    0    0    0  501 -0.00000000000E+00  0.00000000000E+00  0.11679219205E+02  0.11679219205E+02  0.00000000000E+00 0.  1.
          2   -1    0    0  501    0  0.00000000000E+00 -0.00000000000E+00 -0.16099283625E+04  0.16099283625E+04  0.00000000000E+00 0. -1.
         25    2    1    2    0    0  0.32328980292E+02  0.23089847019E+02 -0.13119055570E+04  0.13184548295E+04  0.12509453649E+03 0.  0.
          5    1    3    3  502    0  0.68654848030E+02  0.50654625420E+02 -0.86915291451E+03  0.87334050658E+03  0.41800000000E+01 0.  1.
         -5    1    3    3    0  502 -0.36325867738E+02 -0.27564778400E+02 -0.44275264248E+03  0.44511432296E+03  0.41800000000E+01 0.  1.
        -11    1    1    2    0    0  0.27260646208E+02 -0.35805157859E+01 -0.37307859158E+02  0.46344786977E+02  0.00000000000E+00 0.  1.
         11    1    1    2    0    0 -0.59589626500E+02 -0.19509331233E+02 -0.24903572714E+03  0.25680796518E+03  0.00000000000E+00 0. -1.
</event>
<event>
 7    1  0.2564986E-009  0.1279154E+03  0.7561462E-02  0.1230582E+00
          2   -1    0    0  501    0  0.00000000000E+00  0.00000000000E+00  0.45379095187E+03  0.45379095187E+03  0.00000000000E+00 0. -1.
         -2   -1    0    0    0  501 -0.00000000000E+00 -0.00000000000E+00 -0.57035180987E+02  0.57035180987E+02  0.00000000000E+00 0.  1.
         25    2    1    2    0    0 -0.10847278200E+03  0.46988053284E+01  0.13658884408E+03  0.21469294177E+03  0.12509246065E+03 0.  0.
          5    1    3    3  502    0 -0.12143924927E+03  0.58061012114E+01  0.57720471081E+02  0.13464890366E+03  0.41800000000E+01 0.  1.
         -5    1    3    3    0  502  0.12966467268E+02 -0.11072958830E+01  0.78868373000E+02  0.80044038112E+02  0.41800000000E+01 0.  1.
        -11    1    1    2    0    0  0.80240360003E+02  0.20338154276E+02  0.23886338430E+03  0.25280006379E+03  0.00000000000E+00 0. -1.
         11    1    1    2    0    0  0.28232421997E+02 -0.25036959605E+02  0.21303542495E+02  0.43333127292E+02  0.00000000000E+00 0.  1.
</event>
<event>
 7    1  0.2564986E-009  0.7634215E+02  0.7561462E-02  0.1339764E+00
          1   -1    0    0  501    0  0.00000000000E+00  0.00000000000E+00  0.32801576821E+03  0.32801576821E+03  0.00000000000E+00 0. -1.
         -1   -1    0    0    0  501 -0.00000000000E+00 -0.00000000000E+00 -0.57595393444E+02  0.57595393444E+02  0.00000000000E+00 0.  1.
         25    2    1    2    0    0  0.32240340529E+02  0.20799049371E+02  0.23213329205E+03  0.26646827004E+03  0.12508970240E+03 0.  0.
          5    1    3    3  502    0  0.42741499212E+02 -0.22013841231E+01  0.23658134332E+03  0.24045766000E+03  0.41800000000E+01 0.  1.
         -5    1    3    3    0  502 -0.10501158684E+02  0.23000433494E+02 -0.44480512655E+01  0.26010610040E+02  0.41800000000E+01 0.  1.
        -11    1    1    2    0    0  0.16595233087E+02  0.15887832393E+02 -0.23075463125E+02  0.32562278449E+02  0.00000000000E+00 0.  1.
         11    1    1    2    0    0 -0.48835573616E+02 -0.36686881763E+02  0.61362545839E+02  0.86580613163E+02  0.00000000000E+00 0. -1.
</event>
<event>
 7    1  0.2625615E-009  0.1244958E+03  0.7561462E-02  0.1235859E+00
         -4   -1    0    0    0  501 -0.00000000000E+00  0.00000000000E+00  0.44831995723E+03  0.44831995723E+03  0.00000000000E+00 0.  1.
          4   -1    0    0  501    0  0.00000000000E+00 -0.00000000000E+00 -0.40800953977E+02  0.40800953977E+02  0.00000000000E+00 0. -1.
         25    2    1    2    0    0  0.76821835170E+02 -0.16047233589E+02  0.25498620508E+03  0.29466039282E+03  0.12509066413E+03 0.  0.
          5    1    3    3  502    0  0.83778412537E+02 -0.59533003095E+02  0.18981309251E+03  0.21589229572E+03  0.41800000000E+01 0.  1.
         -5    1    3    3    0  502 -0.69565773669E+01  0.43485769507E+02  0.65173112570E+02  0.78768097097E+02  0.41800000000E+01 0.  1.
        -11    1    1    2    0    0 -0.31015998848E+02  0.39669443486E+02  0.12766383621E+03  0.13723597199E+03  0.00000000000E+00 0.  1.
         11    1    1    2    0    0 -0.45805836322E+02 -0.23622209897E+02  0.24868961962E+02  0.57224546399E+02  0.00000000000E+00 0. -1.
</event>
<event>
 7    1  0.2564986E-009  0.1203527E+03  0.7561462E-02  0.1242516E+00
         -1   -1    0    0    0  501 -0.00000000000E+00  0.00000000000E+00  0.10665291841E+03  0.10665291841E+03  0.00000000000E+00 0.  1.
          1   -1    0    0  501    0  0.00000000000E+00 -0.00000000000E+00 -0.22512893963E+03  0.22512893963E+03  0.00000000000E+00 0. -1.
         25    2    1    2    0    0  0.17946503311E+01  0.80850770274E+02  0.15871930060E+02  0.14979733324E+03  0.12508898856E+03 0.  0.
          5    1    3    3  502    0  0.33883374935E+02  0.33297792800E+01  0.48732869826E+02  0.59594760916E+02  0.41800000000E+01 0.  1.
         -5    1    3    3    0  502 -0.32088724604E+02  0.77520990994E+02 -0.32860939767E+02  0.90202572324E+02  0.41800000000E+01 0.  1.
        -11    1    1    2    0    0 -0.35904976220E+02 -0.13961519171E+01 -0.45917580260E+02  0.58305580646E+02  0.00000000000E+00 0.  1.
         11    1    1    2    0    0  0.34110325889E+02 -0.79454618357E+02 -0.88430371014E+02  0.12367894416E+03  0.00000000000E+00 0. -1.
</event>
<event>
 7    1  0.2564986E-009  0.2350641E+03  0.7561462E-02  0.1123125E+00
          1   -1    0    0  501    0  0.00000000000E+00  0.00000000000E+00  0.10097340895E+04  0.10097340895E+04  0.00000000000E+00 0. -1.
         -1   -1    0    0    0  501 -0.00000000000E+00 -0.00000000000E+00 -0.69430651671E+02  0.69430651671E+02  0.00000000000E+00 0.  1.
         25    2    1    2    0    0  0.14508417394E+03  0.14962468613E+03  0.23588540285E+03  0.33871306154E+03  0.12509056940E+03 0.  0.
          5    1    3    3  502    0  0.16192963322E+03  0.15473102449E+03  0.22549582490E+03  0.31785017776E+03  0.41800000000E+01 0. -1.
         -5    1    3    3    0  502 -0.16845459275E+02 -0.51063383626E+01  0.10389577953E+02  0.20862883782E+02  0.41800000000E+01 0. -1.
        -11    1    1    2    0    0 -0.80312425706E+02 -0.19459649894E+02  0.26825202536E+03  0.28069184670E+03  0.00000000000E+00 0. -1.
         11    1    1    2    0    0 -0.64771748237E+02 -0.13016503623E+03  0.43616600959E+03  0.45975983290E+03  0.00000000000E+00 0.  1.
</event>
<event>
 7    1  0.2564986E-009  0.1048770E+03  0.7561462E-02  0.1270362E+00
          4   -1    0    0  501    0  0.00000000000E+00  0.00000000000E+00  0.36298691815E+03  0.36298691815E+03  0.00000000000E+00 0. -1.
         -4   -1    0    0    0  501 -0.00000000000E+00 -0.00000000000E+00 -0.71980160510E+02  0.71980160510E+02  0.00000000000E+00 0.  1.
         25    2    1    2    0    0  0.95487458693E+02  0.11622016174E+02  0.60258782435E+02  0.16890791456E+03  0.12508331908E+03 0.  0.
          5    1    3    3  502    0  0.88800875583E+02  0.37798161796E+01 -0.17223858196E+02  0.90631209888E+02  0.41800000000E+01 0.  1.
         -5    1    3    3    0  502  0.66865831101E+01  0.78421999947E+01  0.77482640631E+02  0.78276704667E+02  0.41800000000E+01 0.  1.
        -11    1    1    2    0    0 -0.47890181496E+02 -0.32293283141E+02  0.45063899482E+02  0.73260362108E+02  0.00000000000E+00 0.  1.
         11    1    1    2    0    0 -0.47597277197E+02  0.20671266966E+02  0.18568407573E+03  0.19279880200E+03  0.00000000000E+00 0. -1.
</event>
<event>
 7    1  0.2564986E-009  0.1756923E+03  0.7561462E-02  0.1172038E+00
         -2   -1    0    0    0  501 -0.00000000000E+00  0.00000000000E+00  0.11183381013E+03  0.11183381013E+03  0.00000000000E+00 0.  1.
          2   -1    0    0  501    0  0.00000000000E+00 -0.00000000000E+00 -0.54298083720E+03  0.54298083720E+03  0.00000000000E+00 0. -1.
         25    2    1    2    0    0 -0.13826153758E+03 -0.48901293765E+02 -0.25463106658E+01  0.19277585831E+03  0.12509379898E+03 0.  0.
          5    1    3    3  502    0 -0.88386080400E+02  0.29515852066E+02 -0.26005567474E+02  0.96835152043E+02  0.41800000000E+01 0.  1.
         -5    1    3    3    0  502 -0.49875457183E+02 -0.78417145831E+02  0.23459256809E+02  0.95940706269E+02  0.41800000000E+01 0.  1.
        -11    1    1    2    0    0  0.72347770809E+02  0.64965436812E+02 -0.31557039800E+03  0.33021112037E+03  0.00000000000E+00 0. -1.
         11    1    1    2    0    0  0.65913766774E+02 -0.16064143047E+02 -0.11303031841E+03  0.13182766865E+03  0.00000000000E+00 0.  1.
</event>
<event>
 7    1  0.2564986E-009  0.1062946E+03  0.7561462E-02  0.1267590E+00
         -3   -1    0    0    0  501 -0.00000000000E+00  0.00000000000E+00  0.22146683629E+03  0.22146683629E+03  0.00000000000E+00 0.  1.
          3   -1    0    0  501    0  0.00000000000E+00 -0.00000000000E+00 -0.77945387666E+02  0.77945387666E+02  0.00000000000E+00 0. -1.
         25    2    1    2    0    0  0.59550878449E+00  0.65833494682E+02  0.42673280546E+02  0.14764979757E+03  0.12508017507E+03 0.  0.
          5    1    3    3  502    0 -0.21357066249E+02 -0.24394581283E+02 -0.17340850040E+02  0.37005369270E+02  0.41800000000E+01 0.  1.
         -5    1    3    3    0  502  0.21952575033E+02  0.90228075966E+02  0.60014130585E+02  0.11064442830E+03  0.41800000000E+01 0.  1.
        -11    1    1    2    0    0  0.27149464644E+02 -0.43723682516E+02  0.76401885227E+01  0.52031013097E+02  0.00000000000E+00 0. -1.
         11    1    1    2    0    0 -0.27744973429E+02 -0.22109812166E+02  0.93207979552E+02  0.99731413290E+02  0.00000000000E+00 0.  1.
</event>
<event>
 7    1  0.2564986E-009  0.1842644E+03  0.7561462E-02  0.1163739E+00
         -1   -1    0    0    0  501 -0.00000000000E+00  0.00000000000E+00  0.17385143935E+03  0.17385143935E+03  0.00000000000E+00 0.  1.
          1   -1    0    0  501    0  0.00000000000E+00 -0.00000000000E+00 -0.44355466206E+03  0.44355466206E+03  0.00000000000E+00 0. -1.
         25    2    1    2    0    0  0.16028575632E+03 -0.56344324970E+02  0.74081873606E+02  0.22361194879E+03  0.12509185828E+03 0.  0.
          5    1    3    3  502    0  0.72976860213E+02  0.11048001208E+01  0.91980708788E+02  0.11749368451E+03  0.41800000000E+01 0.  1.
         -5    1    3    3    0  502  0.87308896111E+02 -0.57449125091E+02 -0.17898835182E+02  0.10611826428E+03  0.41800000000E+01 0.  1.
        -11    1    1    2    0    0 -0.22163358335E+02  0.47505379208E+02 -0.75532732288E+02  0.91941117860E+02  0.00000000000E+00 0.  1.
         11    1    1    2    0    0 -0.13812239799E+03  0.88389457621E+01 -0.26825236403E+03  0.30185303476E+03  0.00000000000E+00 0. -1.
</event>
<event>
 7    1  0.2564986E-009  0.1022101E+03  0.7561462E-02  0.1275716E+00
         -2   -1    0    0    0  501 -0.00000000000E+00  0.00000000000E+00  0.22960607983E+02  0.22960607983E+02  0.00000000000E+00 0.  1.
          2   -1    0    0  501    0  0.00000000000E+00 -0.00000000000E+00 -0.67747038384E+03  0.67747038384E+03  0.00000000000E+00 0. -1.
         25    2    1    2    0    0 -0.34608459220E+02 -0.17223514038E+02 -0.49618422535E+03  0.51316667776E+03  0.12508740460E+03 0.  0.
          5    1    3    3  502    0  0.35041132587E+02  0.13241206143E+02 -0.63571489802E+02  0.73905461428E+02  0.41800000000E+01 0.  1.
         -5    1    3    3    0  502 -0.69649591807E+02 -0.30464720181E+02 -0.43261273555E+03  0.43926121633E+03  0.41800000000E+01 0.  1.
        -11    1    1    2    0    0 -0.23703932300E+02  0.21662739070E+02 -0.22001204819E+02  0.38925617323E+02  0.00000000000E+00 0.  1.
         11    1    1    2    0    0  0.58312391520E+02 -0.44392250315E+01 -0.13632434569E+03  0.14833869674E+03  0.00000000000E+00 0. -1.
</event>
<event>
 7    1  0.2564986E-009  0.9774718E+02  0.7561462E-02  0.1285106E+00
         -2   -1    0    0    0  501 -0.00000000000E+00  0.00000000000E+00  0.11585713641E+04  0.11585713641E+04  0.00000000000E+00 0.  1.
          2   -1    0    0  501    0  0.00000000000E+00 -0.00000000000E+00 -0.13086981605E+02  0.13086981605E+02  0.00000000000E+00 0. -1.
         25    2    1    2    0    0  0.15634862756E+02 -0.56963022500E+02  0.67026282279E+03  0.68438884576E+03  0.12508639306E+03 0.  0.
          5    1    3    3  502    0  0.27326025156E+02  0.36854707382E+01  0.53394282711E+03  0.53467065505E+03  0.41800000000E+01 0. -1.
         -5    1    3    3    0  502 -0.11691162401E+02 -0.60648493238E+02  0.13631999568E+03  0.14971819072E+03  0.41800000000E+01 0. -1.
        -11    1    1    2    0    0 -0.42564644099E+02 -0.14016382967E+00  0.23876958085E+03  0.24253387663E+03  0.00000000000E+00 0. -1.
         11    1    1    2    0    0  0.26929781343E+02  0.57103186330E+02  0.23645197883E+03  0.24473562329E+03  0.00000000000E+00 0.  1.
</event>
<event>
 7    1  0.2564986E-009  0.1307384E+03  0.7561462E-02  0.1226364E+00
          2   -1    0    0  501    0  0.00000000000E+00  0.00000000000E+00  0.81945263453E+02  0.81945263453E+02  0.00000000000E+00 0.  1.
         -2   -1    0    0    0  501 -0.00000000000E+00 -0.00000000000E+00 -0.26861625265E+03  0.26861625265E+03  0.00000000000E+00 0. -1.
         25    2    1    2    0    0 -0.57393145928E+02 -0.77375187973E+02 -0.67357263100E+02  0.17166923440E+03  0.12510968082E+03 0.  0.
          5    1    3    3  502    0 -0.69037172601E+02 -0.22371376500E+02 -0.85705093885E+02  0.11238080443E+03  0.41800000000E+01 0.  1.
         -5    1    3    3    0  502  0.11644026673E+02 -0.55003811472E+02  0.18347830784E+02  0.59288429969E+02  0.41800000000E+01 0.  1.
        -11    1    1    2    0    0  0.24590636427E+02  0.92912023446E+02 -0.77056330249E+02  0.12318693734E+03  0.00000000000E+00 0. -1.
         11    1    1    2    0    0  0.32802509501E+02 -0.15536835473E+02 -0.42257395843E+02  0.55705344354E+02  0.00000000000E+00 0.  1.
</event>
<event>
 7    1  0.2564986E-009  0.9159269E+02  0.7561462E-02  0.1299040E+00
          1   -1    0    0  501    0  0.00000000000E+00  0.00000000000E+00  0.60368183226E+03  0.60368183226E+03  0.00000000000E+00 0. -1.
         -1   -1    0    0    0  501 -0.00000000000E+00 -0.00000000000E+00 -0.20294952016E+02  0.20294952016E+02  0.00000000000E+00 0.  1.
         25    2    1    2    0    0  0.84253322930E+01 -0.25877252137E+01  0.24027611885E+03  0.27102809804E+03  0.12508370835E+03 0.  0.
          5    1    3    3  502    0  0.18242828336E+02  0.48876863587E+02  0.45711190047E+02  0.69489091772E+02  0.41800000000E+01 0. -1.
         -5    1    3    3    0  502 -0.98174960434E+01 -0.51464588800E+02  0.19456492880E+03  0.20153900627E+03  0.41800000000E+01 0. -1.
        -11    1    1    2    0    0 -0.11446337538E+02 -0.36926140510E+02  0.22681962943E+03  0.23009064038E+03  0.00000000000E+00 0. -1.
         11    1    1    2    0    0  0.30210052445E+01  0.39513865724E+02  0.11629113197E+03  0.12285804586E+03  0.00000000000E+00 0.  1.
</event>
<event>
 7    1  0.2564986E-009  0.1133740E+03  0.7561462E-02  0.1254446E+00
          1   -1    0    0  501    0  0.00000000000E+00  0.00000000000E+00  0.12485461909E+04  0.12485461909E+04  0.00000000000E+00 0. -1.
         -1   -1    0    0    0  501 -0.00000000000E+00 -0.00000000000E+00 -0.13089332525E+02  0.13089332525E+02  0.00000000000E+00 0.  1.
         25    2    1    2    0    0  0.13369239108E+02  0.33844297526E+02  0.80386191441E+03  0.81434988207E+03  0.12509028723E+03 0.  0.
          5    1    3    3  502    0  0.48167273592E+02 -0.14178930434E+02  0.15992128708E+03  0.16767056621E+03  0.41800000000E+01 0. -1.
         -5    1    3    3    0  502 -0.34798034485E+02  0.48023227961E+02  0.64394062733E+03  0.64667931585E+03  0.41800000000E+01 0. -1.
        -11    1    1    2    0    0  0.18359299472E+02 -0.67915948423E+02  0.27993873269E+03  0.28864395713E+03  0.00000000000E+00 0. -1.
         11    1    1    2    0    0 -0.31728538580E+02  0.34071650897E+02  0.15165621125E+03  0.15864168420E+03  0.00000000000E+00 0.  1.
</event>
<event>
 7    1  0.2564986E-009  0.1063979E+03  0.7561462E-02  0.1267390E+00
         -2   -1    0    0    0  501 -0.00000000000E+00  0.00000000000E+00  0.15459179934E+02  0.15459179934E+02  0.00000000000E+00 0.  1.
          2   -1    0    0  501    0  0.00000000000E+00 -0.00000000000E+00 -0.89480549488E+03  0.89480549488E+03  0.00000000000E+00 0. -1.
         25    2    1    2    0    0 -0.22166142914E+02  0.44696958549E+02 -0.55439202312E+03  0.57051719117E+03  0.12510073590E+03 0.  0.
          5    1    3    3  502    0 -0.24525578910E+02  0.77102162994E+02 -0.21858515189E+03  0.23311625552E+03  0.41800000000E+01 0.  1.
         -5    1    3    3    0  502  0.23594359952E+01 -0.32405204445E+02 -0.33580687123E+03  0.33740093565E+03  0.41800000000E+01 0.  1.
        -11    1    1    2    0    0 -0.32507604056E+02 -0.90202565228E+01 -0.11946114404E+03  0.12413329241E+03  0.00000000000E+00 0. -1.
         11    1    1    2    0    0  0.54673746970E+02 -0.35676702026E+02 -0.20549314779E+03  0.21561419124E+03  0.00000000000E+00 0.  1.
</event>
<event>
 7    1  0.2564986E-009  0.8185806E+02  0.7561462E-02  0.1323860E+00
         -1   -1    0    0    0  501 -0.00000000000E+00  0.00000000000E+00  0.17616454330E+02  0.17616454330E+02  0.00000000000E+00 0.  1.
          1   -1    0    0  501    0  0.00000000000E+00 -0.00000000000E+00 -0.10174837676E+04  0.10174837676E+04  0.00000000000E+00 0. -1.
         25    2    1    2    0    0  0.63746715271E+02  0.35777099242E+02 -0.68441449015E+03  0.69957991255E+03  0.12508083460E+03 0.  0.
          5    1    3    3  502    0  0.14583573637E+02  0.27220061467E+02 -0.60429494149E+03  0.60509789380E+03  0.41800000000E+01 0.  1.
         -5    1    3    3    0  502  0.49163141635E+02  0.85570377756E+01 -0.80119548652E+02  0.94482018750E+02  0.41800000000E+01 0.  1.
        -11    1    1    2    0    0 -0.46516963935E+02 -0.43415676149E+02 -0.30917563260E+03  0.31565538275E+03  0.00000000000E+00 0. -1.
         11    1    1    2    0    0 -0.17229751336E+02  0.76385769071E+01 -0.62771905003E+01  0.19864926601E+02  0.00000000000E+00 0.  1.
</event>
<event>
 7    1  0.2579820E-009  0.1772368E+03  0.7561462E-02  0.1170504E+00
          1   -1    0    0  501    0  0.00000000000E+00  0.00000000000E+00  0.16463426292E+04  0.16463426292E+04  0.00000000000E+00 0. -1.
         -1   -1    0    0    0  501 -0.00000000000E+00 -0.00000000000E+00 -0.23869042149E+02  0.23869042149E+02  0.00000000000E+00 0.  1.
         25    2    1    2    0    0 -0.58991898338E+02 -0.14477755345E+03  0.61712342101E+03  0.64879027683E+03  0.12508765927E+03 0.  0.
          5    1    3    3  502    0 -0.45264950227E+01  0.90946762351E+01  0.20796764267E+03  0.20825756910E+03  0.41800000000E+01 0. -1.
         -5    1    3    3    0  502 -0.54465403316E+02 -0.15387222969E+03  0.40915577834E+03  0.44053270773E+03  0.41800000000E+01 0. -1.
        -11    1    1    2    0    0 -0.64195274018E+01  0.10166265073E+03  0.54033043472E+03  0.54984860059E+03  0.00000000000E+00 0.  1.
         11    1    1    2    0    0  0.65411425740E+02  0.43114902725E+02  0.46501973136E+03  0.47157279396E+03  0.00000000000E+00 0. -1.
</event>
<event>
 7    1  0.2564986E-009  0.3019395E+03  0.7561462E-02  0.1084275E+00
         -3   -1    0    0    0  501 -0.00000000000E+00  0.00000000000E+00  0.11944716103E+04  0.11944716103E+04  0.00000000000E+00 0.  1.
          3   -1    0    0  501    0  0.00000000000E+00 -0.00000000000E+00 -0.86534023261E+02  0.86534023261E+02  0.00000000000E+00 0. -1.
         25    2    1    2    0    0 -0.67187472798E+02  0.28347713021E+03  0.40131460182E+03  0.51144340673E+03  0.12509000278E+03 0.  0.
          5    1    3    3  502    0 -0.21517975708E+02 -0.27898002107E+01  0.58147032220E+02  0.62204147930E+02  0.41800000000E+01 0. -1.
         -5    1    3    3    0  502 -0.45669497091E+02  0.28626693043E+03  0.34316756960E+03  0.44923925880E+03  0.41800000000E+01 0. -1.
        -11    1    1    2    0    0  0.66080153590E+02 -0.25683000741E+03  0.54896699865E+03  0.60966630628E+03  0.00000000000E+00 0. -1.
         11    1    1    2    0    0  0.11073192083E+01 -0.26647122808E+02  0.15765598661E+03  0.15989592060E+03  0.00000000000E+00 0.  1.
</event>
<event>
 7    1  0.2564986E-009  0.1928647E+03  0.7561462E-02  0.1155903E+00
          1   -1    0    0  501    0  0.00000000000E+00  0.00000000000E+00  0.24313728737E+03  0.24313728737E+03  0.00000000000E+00 0. -1.
         -1   -1    0    0    0  501 -0.00000000000E+00 -0.00000000000E+00 -0.26422913996E+03  0.26422913996E+03  0.00000000000E+00 0.  1.
         25    2    1    2    0    0 -0.17179025654E+03 -0.79820918662E+01 -0.14968270579E+03  0.26005618275E+03  0.12509476305E+03 0.  0.
          5    1    3    3  502    0 -0.63066149887E+02  0.57621840348E+02 -0.56746390777E+02  0.10264132215E+03  0.41800000000E+01 0.  1.
         -5    1    3    3    0  502 -0.10872410665E+03 -0.65603932214E+02 -0.92936315011E+02  0.15741486060E+03  0.41800000000E+01 0.  1.
        -11    1    1    2    0    0  0.15710928110E+02 -0.51105978436E+01 -0.23673830638E+02  0.28868698091E+02  0.00000000000E+00 0.  1.
         11    1    1    2    0    0  0.15607932843E+03  0.13092689710E+02  0.15226468384E+03  0.21844154649E+03  0.00000000000E+00 0. -1.
</event>
<event>
 7    1  0.2564986E-009  0.7759503E+02  0.7561462E-02  0.1336018E+00
          1   -1    0    0  501    0  0.00000000000E+00  0.00000000000E+00  0.39606792996E+02  0.39606792996E+02  0.00000000000E+00 0. -1.
         -1   -1    0    0    0  501 -0.00000000000E+00 -0.00000000000E+00 -0.43453044873E+03  0.43453044873E+03  0.00000000000E+00 0.  1.
         25    2    1    2    0    0  0.53305462142E+02 -0.15926441730E+02 -0.32721735904E+03  0.35470307594E+03  0.12509175905E+03 0.  0.
          5    1    3    3  502    0  0.26014530849E+00 -0.24630180218E+02 -0.28534456490E+03  0.28643621728E+03  0.41800000000E+01 0.  1.
         -5    1    3    3    0  502  0.53045316833E+02  0.87037384881E+01 -0.41872794143E+02  0.68266858657E+02  0.41800000000E+01 0.  1.
        -11    1    1    2    0    0 -0.13975066551E+02 -0.19070453556E+02  0.99195989755E+01  0.25639483766E+02  0.00000000000E+00 0. -1.
         11    1    1    2    0    0 -0.39330395590E+02  0.34996895286E+02 -0.77625895665E+02  0.93794682018E+02  0.00000000000E+00 0.  1.
</event>
<event>
 7    1  0.2564986E-009  0.1649979E+03  0.7561462E-02  0.1183167E+00
         -2   -1    0    0    0  501 -0.00000000000E+00  0.00000000000E+00  0.50256129021E+02  0.50256129021E+02  0.00000000000E+00 0. -1.
          2   -1    0    0  501    0  0.00000000000E+00 -0.00000000000E+00 -0.61273297790E+03  0.61273297790E+03  0.00000000000E+00 0.  1.
         25    2    1    2    0    0 -0.13577782454E+03  0.89001876073E+01 -0.33810195575E+03  0.38532545290E+03  0.12509173113E+03 0.  0.
          5    1    3    3  502    0 -0.14129274843E+03 -0.27559680998E+02 -0.29617897605E+03  0.32933665911E+03  0.41800000000E+01 0.  1.
         -5    1    3    3    0  502  0.55149238897E+01  0.36459868605E+02 -0.41922979691E+02  0.55988793792E+02  0.41800000000E+01 0.  1.
        -11    1    1    2    0    0  0.11738016835E+03 -0.29720848989E+02 -0.21767006663E+03  0.24908169481E+03  0.00000000000E+00 0.  1.
         11    1    1    2    0    0  0.18397656190E+02  0.20820661381E+02 -0.67048265079E+01  0.28581959208E+02  0.00000000000E+00 0. -1.
</event>
<event>
 7    1  0.2564986E-009  0.2002993E+03  0.7561462E-02  0.1149487E+00
          2   -1    0    0  501    0  0.00000000000E+00  0.00000000000E+00  0.88007560999E+03  0.88007560999E+03  0.00000000000E+00 0. -1.
         -2   -1    0    0    0  501 -0.00000000000E+00 -0.00000000000E+00 -0.74621341327E+02  0.74621341327E+02  0.00000000000E+00 0.  1.
         25    2    1    2    0    0  0.16735753015E+03  0.18631216669E+02  0.11851568810E+03  0.24093551183E+03  0.12509311492E+03 0.  0.
          5    1    3    3  502    0  0.56884948030E+02 -0.52116158839E+02  0.56826670814E+02  0.95910032011E+02  0.41800000000E+01 0.  1.
         -5    1    3    3    0  502  0.11047258212E+03  0.70747375509E+02  0.61689017283E+02  0.14502547982E+03  0.41800000000E+01 0.  1.
        -11    1    1    2    0    0 -0.17067069857E+01 -0.26205726387E+02  0.13156611619E+03  0.13416145450E+03  0.00000000000E+00 0.  1.
         11    1    1    2    0    0 -0.16565082317E+03  0.75745097181E+01  0.55537246438E+03  0.57959998499E+03  0.00000000000E+00 0. -1.
</event>
<event>
 7    1  0.2564986E-009  0.9949337E+02  0.7561462E-02  0.1281365E+00
          1   -1    0    0  501    0  0.00000000000E+00  0.00000000000E+00  0.11260983865E+03  0.11260983865E+03  0.00000000000E+00 0. -1.
         -1   -1    0    0    0  501 -0.00000000000E+00 -0.00000000000E+00 -0.11517416551E+03  0.11517416551E+03  0.00000000000E+00 0.  1.
         25    2    1    2    0    0  0.31638304167E+02 -0.47169887923E+01  0.43283986573E+01  0.12918744795E+03  0.12508968542E+03 0.  0.
          5    1    3    3  502    0  0.66148145658E+02  0.10067652217E+02 -0.34174289385E+02  0.75248184364E+02  0.41800000000E+01 0. -1.
         -5    1    3    3    0  502 -0.34509841490E+02 -0.14784641010E+02  0.38502688042E+02  0.53939263584E+02  0.41800000000E+01 0. -1.
        -11    1    1    2    0    0 -0.53165186325E+02 -0.23958648803E+02  0.96508355559E+01  0.59107465826E+02  0.00000000000E+00 0. -1.
         11    1    1    2    0    0  0.21526882158E+02  0.28675637595E+02 -0.16543561072E+02  0.39489090391E+02  0.00000000000E+00 0.  1.
</event>
<event>
 7    1  0.2564986E-009  0.9364252E+02  0.7561462E-02  0.1294263E+00
         -4   -1    0    0    0  501 -0.00000000000E+00  0.00000000000E+00  0.46309019625E+03  0.46309019625E+03  0.00000000000E+00 0.  1.
          4   -1    0    0  501    0  0.00000000000E+00 -0.00000000000E+00 -0.36824477834E+02  0.36824477834E+02  0.00000000000E+00 0. -1.
         25    2    1    2    0    0 -0.53744535592E+02 -0.40898220861E+02  0.28715027840E+03  0.32041208069E+03  0.12508988564E+03 0.  0.
          5    1    3    3  502    0  0.25038545801E+02  0.50546571932E+01  0.16963129903E+03  0.17159466293E+03  0.41800000000E+01 0.  1.
         -5    1    3    3    0  502 -0.78783081393E+02 -0.45952878054E+02  0.11751897937E+03  0.14881741776E+03  0.41800000000E+01 0.  1.
        -11    1    1    2    0    0  0.26150647172E+02  0.83979022364E+01 -0.61192642192E+01  0.28139411935E+02  0.00000000000E+00 0. -1.
         11    1    1    2    0    0  0.27593888421E+02  0.32500318625E+02  0.14523470424E+03  0.15136318147E+03  0.00000000000E+00 0.  1.
</event>
<event>
 7    1  0.2995878E-009  0.1146668E+03  0.7561462E-02  0.1252164E+00
         -2   -1    0    0    0  501 -0.00000000000E+00  0.00000000000E+00  0.31416511868E+02  0.31416511868E+02  0.00000000000E+00 0.  1.
          2   -1    0    0  501    0  0.00000000000E+00 -0.00000000000E+00 -0.78281168405E+03  0.78281168405E+03  0.00000000000E+00 0. -1.
         25    2    1    2    0    0 -0.37594741335E+02  0.83031118541E+02 -0.57837015107E+03  0.59872059266E+03  0.12508711046E+03 0.  0.
          5    1    3    3  502    0 -0.45907806453E+01 -0.47633321505E+01  0.40295483226E+01  0.88019463639E+01  0.41800000000E+01 0.  1.
         -5    1    3    3    0  502 -0.33003960689E+02  0.87794450691E+02 -0.58239969939E+03  0.58991864629E+03  0.41800000000E+01 0.  1.
        -11    1    1    2    0    0 -0.29072961042E+02 -0.34749381658E+02 -0.49886346027E+02  0.67389940713E+02  0.00000000000E+00 0.  1.
         11    1    1    2    0    0  0.66667702377E+02 -0.48281736882E+02 -0.12313867508E+03  0.14811766255E+03  0.00000000000E+00 0. -1.
</event>
<event>
 7    1  0.2564986E-009  0.9778463E+02  0.7561462E-02  0.1285025E+00
         -1   -1    0    0    0  501 -0.00000000000E+00  0.00000000000E+00  0.62161243429E+02  0.62161243429E+02  0.00000000000E+00 0.  1.
          1   -1    0    0  501    0  0.00000000000E+00 -0.00000000000E+00 -0.20492372856E+03  0.20492372856E+03  0.00000000000E+00 0. -1.
         25    2    1    2    0    0  0.24665782974E+02  0.20702979436E+02 -0.76839867024E+02  0.15030560021E+03  0.12510153510E+03 0.  0.
          5    1    3    3  502    0 -0.19948059837E+02 -0.40093589546E+02 -0.56256414950E+02  0.72025534618E+02  0.41800000000E+01 0.  1.
         -5    1    3    3    0  502  0.44613842811E+02  0.60796568983E+02 -0.20583452074E+02  0.78280065596E+02  0.41800000000E+01 0.  1.
        -11    1    1    2    0    0  0.10478513644E+02  0.19212888343E+02 -0.59271213632E+02  0.63182363774E+02  0.00000000000E+00 0. -1.
         11    1    1    2    0    0 -0.35144296618E+02 -0.39915867780E+02 -0.66514044761E+01  0.53597008003E+02  0.00000000000E+00 0.  1.
</event>
<event>
 7    1  0.2564986E-009  0.1172656E+03  0.7561462E-02  0.1247677E+00
         -2   -1    0    0    0  501 -0.00000000000E+00  0.00000000000E+00  0.11722613201E+03  0.11722613201E+03  0.00000000000E+00 0.  1.
          2   -1    0    0  501    0  0.00000000000E+00 -0.00000000000E+00 -0.14646451671E+03  0.14646451671E+03  0.00000000000E+00 0. -1.
         25    2    1    2    0    0 -0.29359779497E+02 -0.43865657646E+02  0.33229394567E+02  0.13977767011E+03  0.12508961517E+03 0.  0.
          5    1    3    3  502    0  0.33250555072E+02  0.25063883962E+02  0.37613701109E+01  0.42016877525E+02  0.41800000000E+01 0.  1.
         -5    1    3    3    0  502 -0.62610334569E+02 -0.68929541607E+02  0.29468024456E+02  0.97760792583E+02  0.41800000000E+01 0.  1.
        -11    1    1    2    0    0 -0.29710836910E+02  0.98297469684E+01  0.22367144274E+00  0.31295491437E+02  0.00000000000E+00 0. -1.
         11    1    1    2    0    0  0.59070616407E+02  0.34035910677E+02 -0.62691450716E+02  0.92617487179E+02  0.00000000000E+00 0.  1.
</event>
<event>
 7    1  0.2564986E-009  0.7524055E+02  0.7561462E-02  0.1343128E+00
         -2   -1    0    0    0  501 -0.00000000000E+00  0.00000000000E+00  0.98469632301E+02  0.98469632301E+02  0.00000000000E+00 0.  1.
          2   -1    0    0  501    0  0.00000000000E+00 -0.00000000000E+00 -0.18841864641E+03  0.18841864641E+03  0.00000000000E+00 0. -1.
         25    2    1    2    0    0 -0.42312645597E+02 -0.39466243038E+02 -0.11227196533E+03  0.17776156861E+03  0.12508491819E+03 0.  0.
          5    1    3    3  502    0 -0.21633841979E+02  0.13548853894E+02  0.20657978761E+02  0.33103157660E+02  0.41800000000E+01 0.  1.
         -5    1    3    3    0  502 -0.20678803618E+02 -0.53015096932E+02 -0.13292994409E+03  0.14465841095E+03  0.41800000000E+01 0.  1.
        -11    1    1    2    0    0  0.40116885819E+02  0.14749991081E+02  0.54012179090E+02  0.68878460020E+02  0.00000000000E+00 0.  1.
         11    1    1    2    0    0  0.21957597778E+01  0.24716251957E+02 -0.31689227865E+02  0.40248250080E+02  0.00000000000E+00 0. -1.
</event>
<event>
 7    1  0.3032000E-009  0.2127685E+03  0.7561462E-02  0.1139392E+00
         -3   -1    0    0    0  501 -0.00000000000E+00  0.00000000000E+00  0.30022017345E+03  0.30022017345E+03  0.00000000000E+00 0.  1.
          3   -1    0    0  501    0  0.00000000000E+00 -0.00000000000E+00 -0.17187377348E+03  0.17187377348E+03  0.00000000000E+00 0. -1.
         25    2    1    2    0    0 -0.18941975420E+03 -0.34522334733E+02  0.11885426272E+03  0.25854459252E+03  0.12508931080E+03 0.  0.
          5    1    3    3  502    0 -0.12933831413E+03  0.35887045877E+02  0.89382550836E+02  0.16131643548E+03  0.41800000000E+01 0.  1.
         -5    1    3    3    0  502 -0.60081440073E+02 -0.70409380610E+02  0.29471711882E+02  0.97228157034E+02  0.41800000000E+01 0.  1.
        -11    1    1    2    0    0  0.11652892368E+03  0.45074326540E+02  0.43670292914E+02  0.13235474850E+03  0.00000000000E+00 0.  1.
         11    1    1    2    0    0  0.72890830521E+02 -0.10551991807E+02 -0.34178155660E+02  0.81194605913E+02  0.00000000000E+00 0. -1.
</event>
<event>
 7    1  0.2564986E-009  0.1313279E+03  0.7561462E-02  0.1225499E+00
          2   -1    0    0  501    0  0.00000000000E+00  0.00000000000E+00  0.80223176976E+03  0.80223176976E+03  0.00000000000E+00 0. -1.
         -2   -1    0    0    0  501 -0.00000000000E+00 -0.00000000000E+00 -0.32430562186E+02  0.32430562186E+02  0.00000000000E+00 0.  1.
         25    2    1    2    0    0  0.12153884813E+02  0.10292319682E+03  0.56328354507E+03  0.58624067250E+03  0.12509545393E+03 0.  0.
          5    1    3    3  502    0  0.47641318808E+02  0.49166908862E+02  0.11948383946E+03  0.13777133402E+03  0.41800000000E+01 0. -1.
         -5    1    3    3    0  502 -0.35487433995E+02  0.53756287961E+02  0.44379970560E+03  0.44846933848E+03  0.41800000000E+01 0. -1.
        -11    1    1    2    0    0 -0.21738856896E+02  0.40521194830E+01  0.77272418746E+02  0.80374276173E+02  0.00000000000E+00 0. -1.
         11    1    1    2    0    0  0.95849720834E+01 -0.10697531631E+03  0.12924524376E+03  0.16804738327E+03  0.00000000000E+00 0.  1.
</event>
<event>
 7    1  0.2564986E-009  0.1199378E+03  0.7561462E-02  0.1243200E+00
          2   -1    0    0  501    0  0.00000000000E+00  0.00000000000E+00  0.20060396915E+03  0.20060396915E+03  0.00000000000E+00 0. -1.
         -2   -1    0    0    0  501 -0.00000000000E+00 -0.00000000000E+00 -0.82771245389E+02  0.82771245389E+02  0.00000000000E+00 0.  1.
         25    2    1    2    0    0  0.32160212943E+02 -0.44602865476E+02  0.11201807893E+03  0.17668906370E+03  0.12508908952E+03 0.  0.
          5    1    3    3  502    0 -0.43215238419E+02  0.80760222176E+01  0.29912186250E+02  0.53338450041E+02  0.41800000000E+01 0.  1.
         -5    1    3    3    0  502  0.75375451362E+02 -0.52678887693E+02  0.82105892683E+02  0.12335061366E+03  0.41800000000E+01 0.  1.
        -11    1    1    2    0    0 -0.58409066675E+02  0.49970169227E+02  0.15088477447E+02  0.78334532833E+02  0.00000000000E+00 0. -1.
         11    1    1    2    0    0  0.26248853733E+02 -0.53673037518E+01 -0.92738326230E+01  0.28351618003E+02  0.00000000000E+00 0.  1.
</event>
<event>
 7    1  0.2564986E-009  0.1519612E+03  0.7561462E-02  0.1198084E+00
          1   -1    0    0  501    0  0.00000000000E+00  0.00000000000E+00  0.99533287480E+03  0.99533287480E+03  0.00000000000E+00 0. -1.
         -1   -1    0    0    0  501 -0.00000000000E+00 -0.00000000000E+00 -0.25810794318E+02  0.25810794318E+02  0.00000000000E+00 0.  1.
         25    2    1    2    0    0  0.11212414861E+03  0.33874205141E+02  0.57377435446E+03  0.59881806776E+03  0.12508709753E+03 0.  0.
          5    1    3    3  502    0  0.11522310485E+03  0.60011635252E+02  0.34811058703E+03  0.37158607813E+03  0.41800000000E+01 0. -1.
         -5    1    3    3    0  502 -0.30989562390E+01 -0.26137430111E+02  0.22566376743E+03  0.22723198963E+03  0.41800000000E+01 0. -1.
        -11    1    1    2    0    0 -0.36485123957E+02 -0.57455275014E+02  0.19281524501E+03  0.20447491681E+03  0.00000000000E+00 0. -1.
         11    1    1    2    0    0 -0.75639024650E+02  0.23581069873E+02  0.20293248101E+03  0.21785068454E+03  0.00000000000E+00 0.  1.
</event>
<event>
 7    1  0.2564986E-009  0.1052555E+03  0.7561462E-02  0.1269617E+00
          3   -1    0    0  501    0  0.00000000000E+00  0.00000000000E+00  0.26974833803E+03  0.26974833803E+03  0.00000000000E+00 0. -1.
         -3   -1    0    0    0  501 -0.00000000000E+00 -0.00000000000E+00 -0.49454343048E+02  0.49454343048E+02  0.00000000000E+00 0.  1.
         25    2    1    2    0    0 -0.29287138289E+02  0.24095365397E+02  0.14195319143E+03  0.19296745835E+03  0.12508960118E+03 0.  0.
          5    1    3    3  502    0 -0.77574749721E+02  0.24303234295E+02  0.78150884962E+02  0.11284290944E+03  0.41800000000E+01 0.  1.
         -5    1    3    3    0  502  0.48287611432E+02 -0.20786889817E+00  0.63802306463E+02  0.80124548906E+02  0.41800000000E+01 0.  1.
        -11    1    1    2    0    0  0.48764459192E+02  0.11238320296E+01  0.85594762849E+01  0.49522723198E+02  0.00000000000E+00 0.  1.
         11    1    1    2    0    0 -0.19477320902E+02 -0.25219197427E+02  0.69781327272E+02  0.76712499531E+02  0.00000000000E+00 0. -1.
</event>
<event>
 7    1  0.2564986E-009  0.9058503E+02  0.7561462E-02  0.1301441E+00
          4   -1    0    0  501    0  0.00000000000E+00  0.00000000000E+00  0.22878219131E+03  0.22878219131E+03  0.00000000000E+00 0.  1.
         -4   -1    0    0    0  501 -0.00000000000E+00 -0.00000000000E+00 -0.57930537341E+02  0.57930537341E+02  0.00000000000E+00 0. -1.
         25    2    1    2    0    0 -0.17813874851E+02  0.76553542764E+00  0.53650061524E+02  0.13727391272E+03  0.12509147784E+03 0.  0.
          5    1    3    3  502    0  0.31948091043E+02 -0.15750124603E+02 -0.24240439274E+02  0.43287622278E+02  0.41800000000E+01 0.  1.
         -5    1    3    3    0  502 -0.49761965894E+02  0.16515660030E+02  0.77890500798E+02  0.93986290439E+02  0.41800000000E+01 0.  1.
        -11    1    1    2    0    0 -0.21354812183E+02  0.34123437001E+02  0.50156083524E+02  0.64312282424E+02  0.00000000000E+00 0. -1.
         11    1    1    2    0    0  0.39168687034E+02 -0.34888972429E+02  0.67045508925E+02  0.85126533514E+02  0.00000000000E+00 0.  1.
</event>
<event>
 7    1  0.2564986E-009  0.1282376E+03  0.7561462E-02  0.1230094E+00
          1   -1    0    0  501    0  0.00000000000E+00  0.00000000000E+00  0.84769814195E+02  0.84769814195E+02  0.00000000000E+00 0. -1.
         -1   -1    0    0    0  501 -0.00000000000E+00 -0.00000000000E+00 -0.25667212996E+03  0.25667212996E+03  0.00000000000E+00 0.  1.
         25    2    1    2    0    0  0.92560898035E+02  0.29471385814E+02 -0.76553367204E+02  0.17591040356E+03  0.12509184476E+03 0.  0.
          5    1    3    3  502    0  0.24387891973E+02  0.73172576891E+02 -0.35111733362E+02  0.84848697712E+02  0.41800000000E+01 0.  1.
         -5    1    3    3    0  502  0.68173006062E+02 -0.43701191078E+02 -0.41441633842E+02  0.91061705852E+02  0.41800000000E+01 0.  1.
        -11    1    1    2    0    0 -0.17562107057E+02 -0.11603357436E+02  0.18506836902E+02  0.28027995294E+02  0.00000000000E+00 0. -1.
         11    1    1    2    0    0 -0.74998790977E+02 -0.17868028377E+02 -0.11385578547E+03  0.13750354530E+03  0.00000000000E+00 0.  1.
</event>
<event>
 7    1  0.2564986E-009  0.1118999E+03  0.7561462E-02  0.1257091E+00
          1   -1    0    0  501    0  0.00000000000E+00  0.00000000000E+00  0.37157260240E+03  0.37157260240E+03  0.00000000000E+00 0. -1.
         -1   -1    0    0    0  501 -0.00000000000E+00 -0.00000000000E+00 -0.61588390284E+02  0.61588390284E+02  0.00000000000E+00 0.  1.
         25    2    1    2    0    0  0.10581494310E+03  0.26837481020E+01  0.15512582775E+03  0.22564296810E+03  0.12508685755E+03 0.  0.
          5    1    3    3  502    0  0.28724651104E+02  0.16468114447E+02 -0.16291574945E+02  0.37137476876E+02  0.41800000000E+01 0.  1.
         -5    1    3    3    0  502  0.77090291991E+02 -0.13784366345E+02  0.17141740269E+03  0.18850549122E+03  0.41800000000E+01 0.  1.
        -11    1    1    2    0    0 -0.77626944135E+02  0.14527991932E+02  0.15558657357E+03  0.17448262630E+03  0.00000000000E+00 0. -1.
         11    1    1    2    0    0 -0.28187998960E+02 -0.17211740034E+02 -0.72818920304E+00  0.33035398286E+02  0.00000000000E+00 0.  1.
</event>
<event>
 7    1  0.2564986E-009  0.9343506E+02  0.7561462E-02  0.1294740E+00
         -2   -1    0    0    0  501 -0.00000000000E+00  0.00000000000E+00  0.17400905889E+03  0.17400905889E+03  0.00000000000E+00 0.  1.
          2   -1    0    0  501    0  0.00000000000E+00 -0.00000000000E+00 -0.10289563369E+03  0.10289563369E+03  0.00000000000E+00 0. -1.
         25    2    1    2    0    0 -0.48724040012E+02 -0.56676769588E+02  0.52509791188E+02  0.15488883150E+03  0.12508790376E+03 0.  0.
          5    1    3    3  502    0 -0.59211308430E+02 -0.33935811658E+02 -0.25404983543E+02  0.72941784648E+02  0.41800000000E+01 0. -1.
         -5    1    3    3    0  502  0.10487268417E+02 -0.22740957930E+02  0.77914774730E+02  0.81947046851E+02  0.41800000000E+01 0. -1.
        -11    1    1    2    0    0  0.32761064897E+02  0.66662272964E+02  0.47033371974E+02  0.87916347110E+02  0.00000000000E+00 0.  1.
         11    1    1    2    0    0  0.15962975115E+02 -0.99855033766E+01 -0.28429737963E+02  0.34099513968E+02  0.00000000000E+00 0. -1.
</event>
<event>
 7    1  0.2564986E-009  0.1240806E+03  0.7561462E-02  0.1236513E+00
         -2   -1    0    0    0  501 -0.00000000000E+00  0.00000000000E+00  0.62833041224E+02  0.62833041224E+02  0.00000000000E+00 0.  1.
          2   -1    0    0  501    0  0.00000000000E+00 -0.00000000000E+00 -0.36524485642E+03  0.36524485642E+03  0.00000000000E+00 0. -1.
         25    2    1    2    0    0  0.52697163816E+02 -0.91470231445E+02 -0.15832194997E+03  0.22772121306E+03  0.12508923502E+03 0.  0.
          5    1    3    3  502    0 -0.48846365063E+01 -0.71874754799E+02 -0.14964944671E+03  0.16613930706E+03  0.41800000000E+01 0. -1.
         -5    1    3    3    0  502  0.57581800322E+02 -0.19595476646E+02 -0.86725032658E+01  0.61581905997E+02  0.41800000000E+01 0. -1.
        -11    1    1    2    0    0  0.82302623619E+01  0.16387970296E+02  0.81001222843E+01  0.20047812100E+02  0.00000000000E+00 0.  1.
         11    1    1    2    0    0 -0.60927426178E+02  0.75082261149E+02 -0.15218998751E+03  0.18030887249E+03  0.00000000000E+00 0. -1.
</event>
<event>
 7    1  0.2564986E-009  0.1099273E+03  0.7561462E-02  0.1260705E+00
          2   -1    0    0  501    0  0.00000000000E+00  0.00000000000E+00  0.53719285185E+03  0.53719285185E+03  0.00000000000E+00 0. -1.
         -2   -1    0    0    0  501 -0.00000000000E+00 -0.00000000000E+00 -0.25330681820E+02  0.25330681820E+02  0.00000000000E+00 0.  1.
         25    2    1    2    0    0  0.20894001188E+02 -0.28646528689E+02  0.30594215849E+03  0.33242554938E+03  0.12509579787E+03 0.  0.
          5    1    3    3  502    0 -0.19007355088E+02 -0.62838891487E+02  0.98912738626E+02  0.11879060608E+03  0.41800000000E+01 0. -1.
         -5    1    3    3    0  502  0.39901356277E+02  0.34192362798E+02  0.20702941987E+03  0.21363494329E+03  0.41800000000E+01 0. -1.
        -11    1    1    2    0    0 -0.12959545907E+00 -0.34697173327E+02  0.88773074290E+02  0.95313007249E+02  0.00000000000E+00 0. -1.
         11    1    1    2    0    0 -0.20764405729E+02  0.63343702016E+02  0.11714693725E+03  0.13478497704E+03  0.00000000000E+00 0.  1.
</event>
<event>
 7    1  0.3010051E-009  0.6416837E+02  0.7561462E-02  0.1381127E+00
         -3   -1    0    0    0  501 -0.00000000000E+00  0.00000000000E+00  0.45738191223E+02  0.45738191223E+02  0.00000000000E+00 0.  1.
          3   -1    0    0  501    0  0.00000000000E+00 -0.00000000000E+00 -0.30695812045E+03  0.30695812045E+03  0.00000000000E+00 0. -1.
         25    2    1    2    0    0 -0.13215946121E+02  0.28290847182E+00 -0.78171589608E+02  0.14809391940E+03  0.12508505215E+03 0.  0.
          5    1    3    3  502    0 -0.33982274232E+02 -0.75576166688E+01 -0.10634956325E+03  0.11198042032E+03  0.41800000000E+01 0.  1.
         -5    1    3    3    0  502  0.20766328111E+02  0.78405251406E+01  0.28177973637E+02  0.36113499083E+02  0.41800000000E+01 0.  1.
        -11    1    1    2    0    0 -0.28238067977E+02 -0.59181187026E+01 -0.17266836303E+02  0.33623745299E+02  0.00000000000E+00 0.  1.
         11    1    1    2    0    0  0.41454014098E+02  0.56352102308E+01 -0.16578150332E+03  0.17097864698E+03  0.00000000000E+00 0. -1.
</event>
<event>
 7    1  0.2564986E-009  0.1319774E+03  0.7561462E-02  0.1224551E+00
         -2   -1    0    0    0  501 -0.00000000000E+00  0.00000000000E+00  0.80996807463E+02  0.80996807463E+02  0.00000000000E+00 0.  1.
          2   -1    0    0  501    0  0.00000000000E+00 -0.00000000000E+00 -0.33290490219E+03  0.33290490219E+03  0.00000000000E+00 0. -1.
         25    2    1    2    0    0 -0.10346211216E+03  0.42517636724E+02 -0.19765472322E+03  0.25928206169E+03  0.12509052650E+03 0.  0.
          5    1    3    3  502    0 -0.32835741264E+02 -0.62898568718E+01 -0.16326555476E+03  0.16670591464E+03  0.41800000000E+01 0. -1.
         -5    1    3    3    0  502 -0.70626370893E+02  0.48807493596E+02 -0.34389168461E+02  0.92576147058E+02  0.41800000000E+01 0. -1.
        -11    1    1    2    0    0  0.17709559069E+02  0.28105259391E+02 -0.17882074224E+02  0.37726683745E+02  0.00000000000E+00 0. -1.
         11    1    1    2    0    0  0.85752553088E+02 -0.70622896115E+02 -0.36371297284E+02  0.11689296421E+03  0.00000000000E+00 0.  1.
</event>
<event>
 7    1  0.3684084E-009  0.9390613E+02  0.7561462E-02  0.1293659E+00
         -1   -1    0    0    0  501 -0.00000000000E+00  0.00000000000E+00  0.30270576272E+02  0.30270576272E+02  0.00000000000E+00 0.  1.
          1   -1    0    0  501    0  0.00000000000E+00 -0.00000000000E+00 -0.50243532139E+03  0.50243532139E+03  0.00000000000E+00 0. -1.
         25    2    1    2    0    0  0.50655616353E+02 -0.28853254610E+02 -0.26807709968E+03  0.30151266518E+03  0.12508418812E+03 0.  0.
          5    1    3    3  502    0  0.63904659827E+02  0.11507765261E+02 -0.58069844372E+02  0.87211314830E+02  0.41800000000E+01 0.  1.
         -5    1    3    3    0  502 -0.13249043474E+02 -0.40361019871E+02 -0.21000725531E+03  0.21430135035E+03  0.41800000000E+01 0.  1.
        -11    1    1    2    0    0 -0.52920962160E+01  0.33996572807E+02 -0.16551819257E+02  0.38180308612E+02  0.00000000000E+00 0.  1.
         11    1    1    2    0    0 -0.45363520137E+02 -0.51433181975E+01 -0.18753582618E+03  0.19301292387E+03  0.00000000000E+00 0. -1.
</event>
<event>
 7    1  0.2564986E-009  0.1825858E+03  0.7561462E-02  0.1165324E+00
          1   -1    0    0  501    0  0.00000000000E+00  0.00000000000E+00  0.99054107282E+03  0.99054107282E+03  0.00000000000E+00 0. -1.
         -1   -1    0    0    0  501 -0.00000000000E+00 -0.00000000000E+00 -0.46181699706E+02  0.46181699706E+02  0.00000000000E+00 0.  1.
         25    2    1    2    0    0 -0.11914135625E+03  0.97505200705E+02  0.24685338018E+03  0.31667961444E+03  0.12508980757E+03 0.  0.
          5    1    3    3  502    0 -0.14517555244E+03  0.87101950359E+02  0.20172891217E+03  0.26339080695E+03  0.41800000000E+01 0.  1.
         -5    1    3    3    0  502  0.26034196195E+02  0.10403250346E+02  0.45124468019E+02  0.53288807486E+02  0.41800000000E+01 0.  1.
        -11    1    1    2    0    0  0.33026102009E+02 -0.69451560506E+02  0.19834720163E+03  0.21273423576E+03  0.00000000000E+00 0.  1.
         11    1    1    2    0    0  0.86115254238E+02 -0.28053640199E+02  0.49915879130E+03  0.50730892233E+03  0.00000000000E+00 0. -1.
</event>
<event>
 7    1  0.2564986E-009  0.1674628E+03  0.7561462E-02  0.1180520E+00
         -3   -1    0    0    0  501 -0.00000000000E+00  0.00000000000E+00  0.37560762405E+03  0.37560762405E+03  0.00000000000E+00 0.  1.
          3   -1    0    0  501    0  0.00000000000E+00 -0.00000000000E+00 -0.11821620086E+03  0.11821620086E+03  0.00000000000E+00 0. -1.
         25    2    1    2    0    0  0.91080669901E+02  0.11103455740E+03  0.26265504130E+03  0.32444083909E+03  0.12509926452E+03 0.  0.
          5    1    3    3  502    0  0.61770720402E+02 -0.54002051972E+01  0.48281684662E+02  0.78698015152E+02  0.41800000000E+01 0. -1.
         -5    1    3    3    0  502  0.29309949499E+02  0.11643476259E+03  0.21437335664E+03  0.24574282394E+03  0.41800000000E+01 0. -1.
        -11    1    1    2    0    0 -0.69554989736E+02 -0.44170404161E+02  0.33741991985E+02  0.89036190529E+02  0.00000000000E+00 0.  1.
         11    1    1    2    0    0 -0.21525680165E+02 -0.66864153236E+02 -0.39005610092E+02  0.80346795289E+02  0.00000000000E+00 0. -1.
</event>
<event>
 7    1  0.2564986E-009  0.1586659E+03  0.7561462E-02  0.1190211E+00
         -1   -1    0    0    0  501 -0.00000000000E+00  0.00000000000E+00  0.13861040132E+03  0.13861040132E+03  0.00000000000E+00 0.  1.
          1   -1    0    0  501    0  0.00000000000E+00 -0.00000000000E+00 -0.18667764276E+03  0.18667764276E+03  0.00000000000E+00 0. -1.
         25    2    1    2    0    0  0.11709875110E+03 -0.36314002588E+01 -0.12290359520E+02  0.17182498684E+03  0.12508984206E+03 0.  0.
          5    1    3    3  502    0  0.56040045640E+02  0.60062106493E+02  0.23628133212E+01  0.82286078036E+02  0.41800000000E+01 0.  1.
         -5    1    3    3    0  502  0.61058705462E+02 -0.63693506752E+02 -0.14653172841E+02  0.89538908801E+02  0.41800000000E+01 0.  1.
        -11    1    1    2    0    0 -0.12532649057E+03 -0.15154277688E+02 -0.40195103675E+02  0.13248406595E+03  0.00000000000E+00 0. -1.
         11    1    1    2    0    0  0.82277394644E+01  0.18785677947E+02  0.44182217543E+01  0.20978991303E+02  0.00000000000E+00 0.  1.
</event>
<event>
 7    1  0.2564986E-009  0.1785265E+03  0.7561462E-02  0.1169237E+00
         -1   -1    0    0    0  501 -0.00000000000E+00  0.00000000000E+00  0.76213076715E+02  0.76213076715E+02  0.00000000000E+00 0.  1.
          1   -1    0    0  501    0  0.00000000000E+00 -0.00000000000E+00 -0.47282346922E+03  0.47282346922E+03  0.00000000000E+00 0. -1.
         25    2    1    2    0    0  0.13918588780E+03  0.65715387204E+02 -0.26519778807E+03  0.33116321040E+03  0.12509189281E+03 0.  0.
          5    1    3    3  502    0  0.74991900847E+02  0.87952476840E+02 -0.10150601952E+03  0.15388426747E+03  0.41800000000E+01 0.  1.
         -5    1    3    3    0  502  0.64193986957E+02 -0.22237089636E+02 -0.16369176855E+03  0.17727894293E+03  0.41800000000E+01 0.  1.
        -11    1    1    2    0    0 -0.12930483796E+03 -0.82835490277E+02 -0.11116060648E+03  0.18957357412E+03  0.00000000000E+00 0. -1.
         11    1    1    2    0    0 -0.98810498389E+01  0.17120103073E+02 -0.20251997954E+02  0.28299761417E+02  0.00000000000E+00 0.  1.
</event>
<event>
 7    1  0.2564986E-009  0.1241016E+03  0.7561462E-02  0.1236480E+00
         -2   -1    0    0    0  501 -0.00000000000E+00  0.00000000000E+00  0.47097560241E+03  0.47097560241E+03  0.00000000000E+00 0. -1.
          2   -1    0    0  501    0  0.00000000000E+00 -0.00000000000E+00 -0.37618603501E+02  0.37618603501E+02  0.00000000000E+00 0.  1.
         25    2    1    2    0    0 -0.29115283812E+02 -0.64387935298E+02  0.18220888753E+03  0.23203719768E+03  0.12509067291E+03 0.  0.
          5    1    3    3  502    0 -0.70188931822E+02 -0.57441180679E+02  0.77871567061E+02  0.11961366454E+03  0.41800000000E+01 0. -1.
         -5    1    3    3    0  502  0.41073648010E+02 -0.69467546186E+01  0.10433732047E+03  0.11242353314E+03  0.41800000000E+01 0. -1.
        -11    1    1    2    0    0 -0.32755554039E+02  0.31636390730E+02  0.90204024380E+02  0.10104728375E+03  0.00000000000E+00 0. -1.
         11    1    1    2    0    0  0.61870837851E+02  0.32751544568E+02  0.16094408700E+03  0.17550972449E+03  0.00000000000E+00 0.  1.
</event>
<event>
 7    1  0.2564986E-009  0.1041864E+03  0.7561462E-02  0.1271731E+00
          2   -1    0    0  501    0  0.00000000000E+00  0.00000000000E+00  0.12260108457E+03  0.12260108457E+03  0.00000000000E+00 0. -1.
         -2   -1    0    0    0  501 -0.00000000000E+00 -0.00000000000E+00 -0.10343201673E+03  0.10343201673E+03  0.00000000000E+00 0.  1.
         25    2    1    2    0    0 -0.30053071304E+02 -0.31949321463E+01  0.51689521401E+00  0.12868142210E+03  0.12508095988E+03 0.  0.
          5    1    3    3  502    0 -0.56114087164E+02  0.37948255893E+02 -0.26465162230E+02  0.72847361760E+02  0.41800000000E+01 0. -1.
         -5    1    3    3    0  502  0.26061015860E+02 -0.41143188039E+02  0.26982057444E+02  0.55834060335E+02  0.41800000000E+01 0. -1.
        -11    1    1    2    0    0 -0.30568798896E+02 -0.28362732922E+01  0.19599761165E+02  0.36423159526E+02  0.00000000000E+00 0. -1.
         11    1    1    2    0    0  0.60621870200E+02  0.60312054385E+01 -0.94758854371E+00  0.60928519674E+02  0.00000000000E+00 0.  1.
</event>
<event>
 7    1  0.2564986E-009  0.1058232E+03  0.7561462E-02  0.1268506E+00
         -1   -1    0    0    0  501 -0.00000000000E+00  0.00000000000E+00  0.31998160164E+02  0.31998160164E+02  0.00000000000E+00 0.  1.
          1   -1    0    0  501    0  0.00000000000E+00 -0.00000000000E+00 -0.42221708741E+03  0.42221708741E+03  0.00000000000E+00 0. -1.
         25    2    1    2    0    0  0.47357696991E+01 -0.34571331645E+02 -0.27692080506E+03  0.30585946561E+03  0.12508907205E+03 0.  0.
          5    1    3    3  502    0  0.16734332790E+02 -0.80010046736E+02 -0.19186965211E+03  0.20859789374E+03  0.41800000000E+01 0.  1.
         -5    1    3    3    0  502 -0.11998563091E+02  0.45438715092E+02 -0.85051152952E+02  0.97261571876E+02  0.41800000000E+01 0.  1.
        -11    1    1    2    0    0 -0.39880280521E+02  0.17681434640E+02 -0.21531224662E+02  0.48648366270E+02  0.00000000000E+00 0.  1.
         11    1    1    2    0    0  0.35144510822E+02  0.16889897005E+02 -0.91766897525E+02  0.99707415688E+02  0.00000000000E+00 0. -1.
</event>
<event>
 7    1  0.2564986E-009  0.1238122E+03  0.7561462E-02  0.1236937E+00
         -1   -1    0    0    0  501 -0.00000000000E+00  0.00000000000E+00  0.41813465787E+02  0.41813465787E+02  0.00000000000E+00 0.  1.
          1   -1    0    0  501    0  0.00000000000E+00 -0.00000000000E+00 -0.48063074474E+03  0.48063074474E+03  0.00000000000E+00 0. -1.
         25    2    1    2    0    0  0.84763657299E+02  0.28171430819E+01 -0.20238746654E+03  0.25258826915E+03  0.12508930093E+03 0.  0.
          5    1    3    3  502    0 -0.16680937797E+02  0.37393952984E+02 -0.36302754760E+02  0.54880996790E+02  0.41800000000E+01 0.  1.
         -5    1    3    3    0  502  0.10144459510E+03 -0.34576809902E+02 -0.16608471178E+03  0.19770727236E+03  0.41800000000E+01 0.  1.
        -11    1    1    2    0    0 -0.65641651069E+02 -0.24712182873E+02 -0.22949039784E+03  0.23996950023E+03  0.00000000000E+00 0. -1.
         11    1    1    2    0    0 -0.19122006230E+02  0.21895039791E+02 -0.69394145660E+01  0.29886441143E+02  0.00000000000E+00 0.  1.
</event>
<event>
 7    1  0.2564986E-009  0.9673856E+02  0.7561462E-02  0.1287308E+00
          2   -1    0    0  501    0  0.00000000000E+00  0.00000000000E+00  0.32118854558E+03  0.32118854558E+03  0.00000000000E+00 0. -1.
         -2   -1    0    0    0  501 -0.00000000000E+00 -0.00000000000E+00 -0.43883339063E+02  0.43883339063E+02  0.00000000000E+00 0.  1.
         25    2    1    2    0    0  0.29387859601E+01  0.47494254759E+02  0.15062121898E+03  0.20149133056E+03  0.12509062310E+03 0.  0.
          5    1    3    3  502    0 -0.57203105228E-02  0.68772696094E+02  0.23949854571E+02  0.72943482880E+02  0.41800000000E+01 0. -1.
         -5    1    3    3    0  502  0.29445062706E+01 -0.21278441335E+02  0.12667136441E+03  0.12854784768E+03  0.41800000000E+01 0. -1.
        -11    1    1    2    0    0  0.43817077777E+02 -0.28235037719E+02  0.54174123282E+02  0.75179713309E+02  0.00000000000E+00 0. -1.
         11    1    1    2    0    0 -0.46755863737E+02 -0.19259217040E+02  0.72509864256E+02  0.88400840772E+02  0.00000000000E+00 0.  1.
</event>
<event>
 7    1  0.2564986E-009  0.1122902E+03  0.7561462E-02  0.1256387E+00
         -2   -1    0    0    0  501 -0.00000000000E+00  0.00000000000E+00  0.36767588442E+03  0.36767588442E+03  0.00000000000E+00 0.  1.
          2   -1    0    0  501    0  0.00000000000E+00 -0.00000000000E+00 -0.36549183582E+02  0.36549183582E+02  0.00000000000E+00 0. -1.
         25    2    1    2    0    0 -0.91114805069E+00  0.39394583811E+02  0.20164989910E+03  0.24054827291E+03  0.12509207156E+03 0.  0.
          5    1    3    3  502    0  0.26833395821E+02 -0.38713091922E+02  0.60257009794E+02  0.76597090328E+02  0.41800000000E+01 0.  1.
         -5    1    3    3    0  502 -0.27744543872E+02  0.78107675732E+02  0.14139288931E+03  0.16395118258E+03  0.41800000000E+01 0.  1.
        -11    1    1    2    0    0 -0.19320902073E+02 -0.61421721001E+02  0.59895084385E+02  0.87939446217E+02  0.00000000000E+00 0. -1.
         11    1    1    2    0    0  0.20232050124E+02  0.22027137190E+02  0.69581717354E+02  0.75737348877E+02  0.00000000000E+00 0.  1.
</event>
<event>
 7    1  0.2564986E-009  0.1135366E+03  0.7561462E-02  0.1254157E+00
         -1   -1    0    0    0  501 -0.00000000000E+00  0.00000000000E+00  0.25378865512E+02  0.25378865512E+02  0.00000000000E+00 0.  1.
          1   -1    0    0  501    0  0.00000000000E+00 -0.00000000000E+00 -0.99917826268E+03  0.99917826268E+03  0.00000000000E+00 0. -1.
         25    2    1    2    0    0 -0.94458251210E+02  0.11513351232E+02 -0.72665807316E+03  0.74346290810E+03  0.12510084711E+03 0.  0.
          5    1    3    3  502    0 -0.54185658221E+02  0.48536368428E+02 -0.18193497585E+03  0.19598385764E+03  0.41800000000E+01 0.  1.
         -5    1    3    3    0  502 -0.40272592989E+02 -0.37023017197E+02 -0.54472309731E+03  0.54747905046E+03  0.41800000000E+01 0.  1.
        -11    1    1    2    0    0  0.13655720813E+02  0.85192118789E+01  0.39410345318E+01  0.16570679984E+02  0.00000000000E+00 0.  1.
         11    1    1    2    0    0  0.80802530397E+02 -0.20032563111E+02 -0.25108235854E+03  0.26452354011E+03  0.00000000000E+00 0. -1.
</event>
<event>
 7    1  0.2564986E-009  0.1163116E+03  0.7561462E-02  0.1249309E+00
         -2   -1    0    0    0  501 -0.00000000000E+00  0.00000000000E+00  0.76810143265E+02  0.76810143265E+02  0.00000000000E+00 0.  1.
          2   -1    0    0  501    0  0.00000000000E+00 -0.00000000000E+00 -0.26582910629E+03  0.26582910629E+03  0.00000000000E+00 0. -1.
         25    2    1    2    0    0 -0.95218387025E+02 -0.24949826611E+02 -0.82377818602E+02  0.17922878976E+03  0.12509124272E+03 0.  0.
          5    1    3    3  502    0 -0.95561494117E+02 -0.10527025735E+02 -0.11099947616E+03  0.14690532168E+03  0.41800000000E+01 0.  1.
         -5    1    3    3    0  502  0.34310709124E+00 -0.14422800876E+02  0.28621657560E+02  0.32323468085E+02  0.41800000000E+01 0.  1.
        -11    1    1    2    0    0 -0.45430408272E+01  0.21050397244E+02 -0.77519652902E+01  0.22887800461E+02  0.00000000000E+00 0.  1.
         11    1    1    2    0    0  0.99761427853E+02  0.38994293675E+01 -0.98889179134E+02  0.14052265933E+03  0.00000000000E+00 0. -1.
</event>
<event>
 7    1  0.2564986E-009  0.1119781E+03  0.7561462E-02  0.1256950E+00
          1   -1    0    0  501    0  0.00000000000E+00  0.00000000000E+00  0.26448587339E+03  0.26448587339E+03  0.00000000000E+00 0. -1.
         -1   -1    0    0    0  501 -0.00000000000E+00 -0.00000000000E+00 -0.72926193874E+02  0.72926193874E+02  0.00000000000E+00 0.  1.
         25    2    1    2    0    0 -0.41458289517E+02  0.79074613329E+02  0.90631509910E+02  0.17842301830E+03  0.12509643731E+03 0.  0.
          5    1    3    3  502    0  0.41183938266E+00  0.50642531164E+02  0.11225979118E+03  0.12322568194E+03  0.41800000000E+01 0.  1.
         -5    1    3    3    0  502 -0.41870128900E+02  0.28432082166E+02 -0.21628281270E+02  0.55197336358E+02  0.41800000000E+01 0.  1.
        -11    1    1    2    0    0  0.55681282215E+02 -0.16339728470E+02  0.54966182269E+02  0.79929175580E+02  0.00000000000E+00 0.  1.
         11    1    1    2    0    0 -0.14222992699E+02 -0.62734884860E+02  0.45961987337E+02  0.79059873385E+02  0.00000000000E+00 0. -1.
</event>
<event>
 7    1  0.2564986E-009  0.1191744E+03  0.7561462E-02  0.1244465E+00
         -3   -1    0    0    0  501 -0.00000000000E+00  0.00000000000E+00  0.62131594507E+02  0.62131594507E+02  0.00000000000E+00 0.  1.
          3   -1    0    0  501    0  0.00000000000E+00 -0.00000000000E+00 -0.35472082371E+03  0.35472082371E+03  0.00000000000E+00 0. -1.
         25    2    1    2    0    0 -0.86640745247E+02  0.96297334537E+01 -0.22465775993E+03  0.27151378444E+03  0.12509706449E+03 0.  0.
          5    1    3    3  502    0 -0.83737434226E+02  0.39188073836E+02 -0.22303789941E+03  0.24147678977E+03  0.41800000000E+01 0. -1.
         -5    1    3    3    0  502 -0.29033110206E+01 -0.29558340382E+02 -0.16198605139E+01  0.30036994675E+02  0.41800000000E+01 0. -1.
        -11    1    1    2    0    0  0.70508145541E+02  0.27220935367E+02 -0.72650583965E+02  0.10483551526E+03  0.00000000000E+00 0.  1.
         11    1    1    2    0    0  0.16132599706E+02 -0.36850668821E+02  0.47191146868E+01  0.40503118513E+02  0.00000000000E+00 0. -1.
</event>
<event>
 7    1  0.2564986E-009  0.1413075E+03  0.7561462E-02  0.1211580E+00
         -1   -1    0    0    0  501 -0.00000000000E+00  0.00000000000E+00  0.25323545498E+03  0.25323545498E+03  0.00000000000E+00 0.  1.
          1   -1    0    0  501    0  0.00000000000E+00 -0.00000000000E+00 -0.88022668026E+02  0.88022668026E+02  0.00000000000E+00 0. -1.
         25    2    1    2    0    0 -0.94109044286E+02 -0.39677485020E+02  0.88109552098E+02  0.18396066610E+03  0.12508964173E+03 0.  0.
          5    1    3    3  502    0 -0.25835202972E+02  0.43656472944E+02  0.12904152138E+02  0.52510331220E+02  0.41800000000E+01 0.  1.
         -5    1    3    3    0  502 -0.68273841314E+02 -0.83333957964E+02  0.75205399961E+02  0.13145033488E+03  0.41800000000E+01 0.  1.
        -11    1    1    2    0    0  0.44193875487E+02  0.56044971746E+02  0.76692309070E+02  0.10476568025E+03  0.00000000000E+00 0.  1.
         11    1    1    2    0    0  0.49915168799E+02 -0.16367486725E+02  0.41092578639E+00  0.52531776649E+02  0.00000000000E+00 0. -1.
</event>
<event>
 7    1  0.2564986E-009  0.1107964E+03  0.7561462E-02  0.1259102E+00
         -1   -1    0    0    0  501 -0.00000000000E+00  0.00000000000E+00  0.24160966007E+02  0.24160966007E+02  0.00000000000E+00 0. -1.
          1   -1    0    0  501    0  0.00000000000E+00 -0.00000000000E+00 -0.63356281179E+03  0.63356281179E+03  0.00000000000E+00 0.  1.
         25    2    1    2    0    0 -0.30166504714E+02  0.43306172091E+02 -0.40938331148E+03  0.43130917733E+03  0.12508984045E+03 0.  0.
          5    1    3    3  502    0 -0.11759080247E+01  0.73544393299E+02 -0.35484841086E+03  0.36241554552E+03  0.41800000000E+01 0.  1.
         -5    1    3    3    0  502 -0.28990596690E+02 -0.30238221208E+02 -0.54534900621E+02  0.68893631810E+02  0.41800000000E+01 0.  1.
        -11    1    1    2    0    0 -0.50379265081E+01 -0.64522231486E+02 -0.11429708923E+03  0.13134810111E+03  0.00000000000E+00 0.  1.
         11    1    1    2    0    0  0.35204431222E+02  0.21216059394E+02 -0.85721445077E+02  0.95066499357E+02  0.00000000000E+00 0. -1.
</event>
<event>
 7    1  0.2564986E-009  0.1007004E+03  0.7561462E-02  0.1278830E+00
         -1   -1    0    0    0  501 -0.00000000000E+00  0.00000000000E+00  0.36407818939E+02  0.36407818939E+02  0.00000000000E+00 0.  1.
          1   -1    0    0  501    0  0.00000000000E+00 -0.00000000000E+00 -0.33691548342E+03  0.33691548342E+03  0.00000000000E+00 0. -1.
         25    2    1    2    0    0 -0.25086568274E+02  0.20440261726E+01 -0.16779727904E+03  0.21080062527E+03  0.12508981897E+03 0.  0.
          5    1    3    3  502    0  0.36833274292E+02  0.40244302459E+02 -0.70916036138E+02  0.89570366512E+02  0.41800000000E+01 0. -1.
         -5    1    3    3    0  502 -0.61919842567E+02 -0.38200276286E+02 -0.96881242902E+02  0.12123025876E+03  0.41800000000E+01 0. -1.
        -11    1    1    2    0    0  0.48758086458E+02 -0.79777644863E+01 -0.31921850761E+02  0.58821767036E+02  0.00000000000E+00 0.  1.
         11    1    1    2    0    0 -0.23671518183E+02  0.59337383137E+01 -0.10078853468E+03  0.10370091005E+03  0.00000000000E+00 0. -1.
</event>
<event>
 7    1  0.2564986E-009  0.1483815E+03  0.7561462E-02  0.1202476E+00
         -1   -1    0    0    0  501 -0.00000000000E+00  0.00000000000E+00  0.86440388151E+02  0.86440388151E+02  0.00000000000E+00 0.  1.
          1   -1    0    0  501    0  0.00000000000E+00 -0.00000000000E+00 -0.48034037503E+03  0.48034037503E+03  0.00000000000E+00 0. -1.
         25    2    1    2    0    0  0.75348569426E+02  0.67046555481E+02 -0.39941107015E+03  0.43052274741E+03  0.12509190847E+03 0.  0.
          5    1    3    3  502    0 -0.34987853796E+02  0.20869283183E+02 -0.10667950755E+03  0.11427014756E+03  0.41800000000E+01 0. -1.
         -5    1    3    3    0  502  0.11033642322E+03  0.46177272298E+02 -0.29273156260E+03  0.31625259984E+03  0.41800000000E+01 0. -1.
        -11    1    1    2    0    0 -0.73506721644E+02 -0.88244670754E+02  0.54811878120E+01  0.11498001332E+03  0.00000000000E+00 0. -1.
         11    1    1    2    0    0 -0.18418477822E+01  0.21198115273E+02  0.29895459259E-01  0.21278002447E+02  0.00000000000E+00 0.  1.
</event>
<event>
 7    1  0.2564986E-009  0.9222546E+02  0.7561462E-02  0.1297550E+00
          2   -1    0    0  501    0  0.00000000000E+00  0.00000000000E+00  0.60450870013E+03  0.60450870013E+03  0.00000000000E+00 0. -1.
         -2   -1    0    0    0  501 -0.00000000000E+00 -0.00000000000E+00 -0.21476531731E+02  0.21476531731E+02  0.00000000000E+00 0.  1.
         25    2    1    2    0    0  0.21087854285E+02  0.17070867047E+02  0.39578373456E+03  0.41596924118E+03  0.12509809338E+03 0.  0.
          5    1    3    3  502    0  0.52702196002E+02 -0.35349098395E+01  0.35972832856E+03  0.36360962559E+03  0.41800000000E+01 0. -1.
         -5    1    3    3    0  502 -0.31614341717E+02  0.20605776887E+02  0.36055405998E+02  0.52359615593E+02  0.41800000000E+01 0. -1.
        -11    1    1    2    0    0 -0.22549852471E+02 -0.52969266020E+02  0.13328261543E+03  0.14518434684E+03  0.00000000000E+00 0. -1.
         11    1    1    2    0    0  0.14619981862E+01  0.35898398972E+02  0.53965818405E+02  0.64831643845E+02  0.00000000000E+00 0.  1.
</event>
<event>
 7    1  0.2564986E-009  0.9546615E+02  0.7561462E-02  0.1290130E+00
          1   -1    0    0  501    0  0.00000000000E+00  0.00000000000E+00  0.37124463205E+02  0.37124463205E+02  0.00000000000E+00 0. -1.
         -1   -1    0    0    0  501 -0.00000000000E+00 -0.00000000000E+00 -0.35470468268E+03  0.35470468268E+03  0.00000000000E+00 0.  1.
         25    2    1    2    0    0 -0.14059832662E+02  0.14632287278E+02 -0.21887140706E+03  0.25291226986E+03  0.12509252853E+03 0.  0.
          5    1    3    3  502    0 -0.40585079184E+02  0.51467289164E+02 -0.64895096458E+02  0.92330257503E+02  0.41800000000E+01 0. -1.
         -5    1    3    3    0  502  0.26525246522E+02 -0.36835001886E+02 -0.15397631060E+03  0.16058201236E+03  0.41800000000E+01 0. -1.
        -11    1    1    2    0    0  0.43819677103E+02 -0.21971966622E+02 -0.96437851540E+02  0.10818128594E+03  0.00000000000E+00 0.  1.
         11    1    1    2    0    0 -0.29759844441E+02  0.73396793440E+01 -0.22709608712E+01  0.30735590075E+02  0.00000000000E+00 0. -1.
</event>
<event>
 7    1  0.2673553E-009  0.1232279E+03  0.7561462E-02  0.1237865E+00
          1   -1    0    0  501    0  0.00000000000E+00  0.00000000000E+00  0.10877704396E+04  0.10877704396E+04  0.00000000000E+00 0. -1.
         -1   -1    0    0    0  501 -0.00000000000E+00 -0.00000000000E+00 -0.26379021201E+02  0.26379021201E+02  0.00000000000E+00 0.  1.
         25    2    1    2    0    0 -0.85683426385E+02  0.64658205916E+02  0.80391504804E+03  0.82063961086E+03  0.12509050041E+03 0.  0.
          5    1    3    3  502    0 -0.11296083712E+02  0.62310883680E+02  0.15547494367E+03  0.16792908694E+03  0.41800000000E+01 0.  1.
         -5    1    3    3    0  502 -0.74387342673E+02  0.23473222355E+01  0.64844010438E+03  0.65271052392E+03  0.41800000000E+01 0.  1.
        -11    1    1    2    0    0  0.48246646363E+02 -0.26725310236E+02  0.22373139574E+03  0.23042942202E+03  0.00000000000E+00 0. -1.
         11    1    1    2    0    0  0.37436780022E+02 -0.37932895680E+02  0.33744974584E+02  0.63080427890E+02  0.00000000000E+00 0.  1.
</event>
<event>
 7    1  0.2564986E-009  0.8222951E+02  0.7561462E-02  0.1322841E+00
         -2   -1    0    0    0  501 -0.00000000000E+00  0.00000000000E+00  0.18730503848E+02  0.18730503848E+02  0.00000000000E+00 0.  1.
          2   -1    0    0  501    0  0.00000000000E+00 -0.00000000000E+00 -0.90859163720E+03  0.90859163720E+03  0.00000000000E+00 0. -1.
         25    2    1    2    0    0 -0.14688435487E+02  0.25157822743E+02 -0.73584851718E+03  0.74697381271E+03  0.12509264749E+03 0.  0.
          5    1    3    3  502    0  0.36272155290E+02  0.12924121137E+02 -0.78591100452E+02  0.87616982524E+02  0.41800000000E+01 0. -1.
         -5    1    3    3    0  502 -0.50960590777E+02  0.12233701606E+02 -0.65725741673E+03  0.65935683019E+03  0.41800000000E+01 0. -1.
        -11    1    1    2    0    0  0.28439785710E+02  0.13964551156E+02 -0.14574992878E+02  0.34874926776E+02  0.00000000000E+00 0.  1.
         11    1    1    2    0    0 -0.13751350223E+02 -0.39122373899E+02 -0.13943762330E+03  0.14547340157E+03  0.00000000000E+00 0. -1.
</event>
<event>
 7    1  0.2564986E-009  0.2650536E+03  0.7561462E-02  0.1104144E+00
          1   -1    0    0  501    0  0.00000000000E+00  0.00000000000E+00  0.10201946080E+03  0.10201946080E+03  0.00000000000E+00 0. -1.
         -1   -1    0    0    0  501 -0.00000000000E+00 -0.00000000000E+00 -0.69564823648E+03  0.69564823648E+03  0.00000000000E+00 0.  1.
         25    2    1    2    0    0 -0.16853442572E+03 -0.17514252775E+03 -0.32829615619E+03  0.42720641092E+03  0.12509274032E+03 0.  0.
          5    1    3    3  502    0  0.62724521075E+01 -0.64486598784E+02 -0.98490940500E+02  0.11796526115E+03  0.41800000000E+01 0. -1.
         -5    1    3    3    0  502 -0.17480687782E+03 -0.11065592896E+03 -0.22980521569E+03  0.30924114977E+03  0.41800000000E+01 0. -1.
        -11    1    1    2    0    0  0.93713376637E+02  0.36233160014E+02 -0.94855139519E+02  0.13817574439E+03  0.00000000000E+00 0. -1.
         11    1    1    2    0    0  0.74821049080E+02  0.13890936773E+03 -0.17047747997E+03  0.23228554197E+03  0.00000000000E+00 0.  1.
</event>
<event>
 7    1  0.2564986E-009  0.2365897E+03  0.7561462E-02  0.1122086E+00
          1   -1    0    0  501    0  0.00000000000E+00  0.00000000000E+00  0.29282448368E+04  0.29282448368E+04  0.00000000000E+00 0. -1.
         -1   -1    0    0    0  501 -0.00000000000E+00 -0.00000000000E+00 -0.23158357048E+02  0.23158357048E+02  0.00000000000E+00 0.  1.
         25    2    1    2    0    0  0.20931244710E+03  0.86446933045E+02  0.18730256352E+04  0.18908085317E+04  0.12508837281E+03 0.  0.
          5    1    3    3  502    0  0.21527421533E+02 -0.30224002720E+01  0.63780845594E+03  0.63819249733E+03  0.41800000000E+01 0.  1.
         -5    1    3    3    0  502  0.18778502557E+03  0.89469333317E+02  0.12352171792E+04  0.12526160344E+04  0.41800000000E+01 0.  1.
        -11    1    1    2    0    0 -0.12497636489E+03 -0.39855297006E+01  0.47489996969E+03  0.49108548893E+03  0.00000000000E+00 0. -1.
         11    1    1    2    0    0 -0.84336082214E+02 -0.82461403344E+02  0.55716087495E+03  0.56950917322E+03  0.00000000000E+00 0.  1.
</event>
<event>
 7    1  0.2564986E-009  0.1190437E+03  0.7561462E-02  0.1244683E+00
         -1   -1    0    0    0  501 -0.00000000000E+00  0.00000000000E+00  0.37665980724E+02  0.37665980724E+02  0.00000000000E+00 0.  1.
          1   -1    0    0  501    0  0.00000000000E+00 -0.00000000000E+00 -0.24354819615E+04  0.24354819615E+04  0.00000000000E+00 0. -1.
         25    2    1    2    0    0  0.53303149021E+01 -0.58239850388E+02 -0.23507010234E+04  0.23547534185E+04  0.12509223815E+03 0.  0.
          5    1    3    3  502    0  0.37136103583E+02  0.23310970166E+02 -0.11579863534E+04  0.11588236961E+04  0.41800000000E+01 0.  1.
         -5    1    3    3    0  502 -0.31805788681E+02 -0.81550820554E+02 -0.11927146700E+04  0.11959297224E+04  0.41800000000E+01 0.  1.
        -11    1    1    2    0    0  0.41657829976E+02  0.32476572515E+02 -0.35267202931E+02  0.63512818889E+02  0.00000000000E+00 0.  1.
         11    1    1    2    0    0 -0.46988144878E+02  0.25763277873E+02 -0.11847754497E+02  0.54881704898E+02  0.00000000000E+00 0. -1.
</event>
<event>
 7    1  0.2564986E-009  0.1110665E+03  0.7561462E-02  0.1258608E+00
          1   -1    0    0  501    0  0.00000000000E+00  0.00000000000E+00  0.89968246433E+02  0.89968246433E+02  0.00000000000E+00 0. -1.
         -1   -1    0    0    0  501 -0.00000000000E+00 -0.00000000000E+00 -0.27170727796E+03  0.27170727796E+03  0.00000000000E+00 0.  1.
         25    2    1    2    0    0  0.27137925048E+02 -0.86938570407E+02 -0.16174472206E+03  0.22383991498E+03  0.12509264736E+03 0.  0.
          5    1    3    3  502    0  0.23418294597E+02 -0.10480941577E+03 -0.17175217985E+03  0.20260728970E+03  0.41800000000E+01 0. -1.
         -5    1    3    3    0  502  0.37196304507E+01  0.17870845366E+02  0.10007457790E+02  0.21232625278E+02  0.41800000000E+01 0. -1.
        -11    1    1    2    0    0  0.22027991402E+01  0.43242790999E+02  0.39353929557E+02  0.58510879920E+02  0.00000000000E+00 0. -1.
         11    1    1    2    0    0 -0.29340724188E+02  0.43695779408E+02 -0.59348239020E+02  0.79324729490E+02  0.00000000000E+00 0.  1.
</event>
<event>
 7    1  0.2564986E-009  0.1444037E+03  0.7561462E-02  0.1207523E+00
          1   -1    0    0  501    0  0.00000000000E+00  0.00000000000E+00  0.79727634374E+02  0.79727634374E+02  0.00000000000E+00 0. -1.
         -1   -1    0    0    0  501 -0.00000000000E+00 -0.00000000000E+00 -0.32934212855E+03  0.32934212855E+03  0.00000000000E+00 0.  1.
         25    2    1    2    0    0  0.74122901420E+02 -0.91357696765E+02 -0.16071200756E+03  0.23519687125E+03  0.12509510621E+03 0.  0.
          5    1    3    3  502    0 -0.34817079066E+02 -0.18269434416E+02 -0.48010458675E+02  0.62197088121E+02  0.41800000000E+01 0.  1.
         -5    1    3    3    0  502  0.10893998049E+03 -0.73088262349E+02 -0.11270154889E+03  0.17299978313E+03  0.41800000000E+01 0.  1.
        -11    1    1    2    0    0 -0.44014613354E+02  0.61348032537E+02 -0.10421259169E+03  0.12869006003E+03  0.00000000000E+00 0.  1.
         11    1    1    2    0    0 -0.30108288066E+02  0.30009664228E+02  0.15310105077E+02  0.45182831638E+02  0.00000000000E+00 0. -1.
</event>
<event>
 7    1  0.2564986E-009  0.1321945E+03  0.7561462E-02  0.1224235E+00
          2   -1    0    0  501    0  0.00000000000E+00  0.00000000000E+00  0.23717336369E+03  0.23717336369E+03  0.00000000000E+00 0. -1.
         -2   -1    0    0    0  501 -0.00000000000E+00 -0.00000000000E+00 -0.12457987179E+03  0.12457987179E+03  0.00000000000E+00 0.  1.
         25    2    1    2    0    0 -0.48916900617E+02  0.10869972732E+03 -0.74075666641E+00  0.17279280498E+03  0.12509320863E+03 0.  0.
          5    1    3    3  502    0 -0.33072559152E+02  0.88204941582E+02 -0.57372966767E+02  0.11037678924E+03  0.41800000000E+01 0. -1.
         -5    1    3    3    0  502 -0.15844341465E+02  0.20494785741E+02  0.56632210100E+02  0.62416015732E+02  0.41800000000E+01 0. -1.
        -11    1    1    2    0    0  0.65625249034E+02 -0.49108550974E+02  0.34993393164E+02  0.89122728048E+02  0.00000000000E+00 0.  1.
         11    1    1    2    0    0 -0.16708348417E+02 -0.59591176349E+02  0.78340855407E+02  0.99837702455E+02  0.00000000000E+00 0. -1.
</event>
<event>
 7    1  0.2564986E-009  0.1720636E+03  0.7561462E-02  0.1175713E+00
         -2   -1    0    0    0  501 -0.00000000000E+00  0.00000000000E+00  0.17093804120E+03  0.17093804120E+03  0.00000000000E+00 0.  1.
          2   -1    0    0  501    0  0.00000000000E+00 -0.00000000000E+00 -0.23698746927E+03  0.23698746927E+03  0.00000000000E+00 0. -1.
         25    2    1    2    0    0  0.16055952407E+03  0.38903501490E+01  0.16998440217E+02  0.20428071212E+03  0.12508863570E+03 0.  0.
          5    1    3    3  502    0  0.10921527599E+03  0.13539367325E+02 -0.48548707035E+02  0.12035672117E+03  0.41800000000E+01 0. -1.
         -5    1    3    3    0  502  0.51344248082E+02 -0.96490171764E+01  0.65547147253E+02  0.83923990947E+02  0.41800000000E+01 0. -1.
        -11    1    1    2    0    0 -0.16960700858E+03 -0.11169470783E+02 -0.64579344412E+02  0.18182900253E+03  0.00000000000E+00 0.  1.
         11    1    1    2    0    0  0.90474845096E+01  0.72791206344E+01 -0.18468523876E+02  0.21815795821E+02  0.00000000000E+00 0. -1.
</event>
<event>
 7    1  0.2564986E-009  0.9813094E+02  0.7561462E-02  0.1284276E+00
         -2   -1    0    0    0  501 -0.00000000000E+00  0.00000000000E+00  0.18511642361E+02  0.18511642361E+02  0.00000000000E+00 0.  1.
          2   -1    0    0  501    0  0.00000000000E+00 -0.00000000000E+00 -0.69393571652E+03  0.69393571652E+03  0.00000000000E+00 0. -1.
         25    2    1    2    0    0 -0.11444673267E+01 -0.34125861153E+02 -0.36800261216E+03  0.39018080298E+03  0.12509697140E+03 0.  0.
          5    1    3    3  502    0 -0.15452266682E+02  0.30577187306E+02 -0.26755254804E+03  0.26976948548E+03  0.41800000000E+01 0.  1.
         -5    1    3    3    0  502  0.14307799355E+02 -0.64703048459E+02 -0.10045006412E+03  0.12041131751E+03  0.41800000000E+01 0.  1.
        -11    1    1    2    0    0 -0.27367712826E+02 -0.20187538397E+02 -0.13643670941E+03  0.14061118052E+03  0.00000000000E+00 0. -1.
         11    1    1    2    0    0  0.28512180153E+02  0.54313399550E+02 -0.17098475258E+03  0.18165537538E+03  0.00000000000E+00 0.  1.
</event>
<event>
 7    1  0.2564986E-009  0.1144361E+03  0.7561462E-02  0.1252569E+00
         -2   -1    0    0    0  501 -0.00000000000E+00  0.00000000000E+00  0.15134546166E+03  0.15134546166E+03  0.00000000000E+00 0.  1.
          2   -1    0    0  501    0  0.00000000000E+00 -0.00000000000E+00 -0.16179870576E+03  0.16179870576E+03  0.00000000000E+00 0. -1.
         25    2    1    2    0    0  0.39671029188E+01  0.82773802564E+02  0.71291639202E+02  0.16612247521E+03  0.12508772383E+03 0.  0.
          5    1    3    3  502    0  0.58632596067E+02  0.50590156686E+02  0.10680824121E+02  0.78285999253E+02  0.41800000000E+01 0.  1.
         -5    1    3    3    0  502 -0.54665493148E+02  0.32183645878E+02  0.60610815081E+02  0.87836475953E+02  0.41800000000E+01 0.  1.
        -11    1    1    2    0    0  0.12390455085E+02 -0.42696097459E+02  0.10008123174E+02  0.45570194699E+02  0.00000000000E+00 0.  1.
         11    1    1    2    0    0 -0.16357558004E+02 -0.40077705105E+02 -0.91753006472E+02  0.10145149751E+03  0.00000000000E+00 0. -1.
</event>
<event>
 7    1  0.2564986E-009  0.1691010E+03  0.7561462E-02  0.1178789E+00
         -2   -1    0    0    0  501 -0.00000000000E+00  0.00000000000E+00  0.24461095377E+02  0.24461095377E+02  0.00000000000E+00 0.  1.
          2   -1    0    0  501    0  0.00000000000E+00 -0.00000000000E+00 -0.14130934571E+04  0.14130934571E+04  0.00000000000E+00 0. -1.
         25    2    1    2    0    0  0.12803002083E+03  0.66041499937E+02 -0.91639238680E+03  0.93604336132E+03  0.12509597012E+03 0.  0.
          5    1    3    3  502    0  0.85568982330E+02  0.89189766931E+02 -0.80623907838E+03  0.81566892130E+03  0.41800000000E+01 0.  1.
         -5    1    3    3    0  502  0.42461038498E+02 -0.23148266994E+02 -0.11015330842E+03  0.12037444002E+03  0.41800000000E+01 0.  1.
        -11    1    1    2    0    0 -0.38404592444E+02 -0.66005420657E+02 -0.26352431367E+03  0.27436598217E+03  0.00000000000E+00 0.  1.
         11    1    1    2    0    0 -0.89625428384E+02 -0.36079279777E-01 -0.20871566129E+03  0.22714520902E+03  0.00000000000E+00 0. -1.
</event>
<event>
 7    1  0.2564986E-009  0.1422257E+03  0.7561462E-02  0.1210365E+00
          1   -1    0    0  501    0  0.00000000000E+00  0.00000000000E+00  0.18460331917E+03  0.18460331917E+03  0.00000000000E+00 0. -1.
         -1   -1    0    0    0  501 -0.00000000000E+00 -0.00000000000E+00 -0.16465897144E+03  0.16465897144E+03  0.00000000000E+00 0.  1.
         25    2    1    2    0    0 -0.98909342547E+02  0.49207150659E+02  0.90576204380E+02  0.18988400310E+03  0.12508990412E+03 0.  0.
          5    1    3    3  502    0  0.16391338823E+02  0.11676626989E+02  0.61886958844E+02  0.65211100905E+02  0.41800000000E+01 0.  1.
         -5    1    3    3    0  502 -0.11530068137E+03  0.37530523670E+02  0.28689245535E+02  0.12467290219E+03  0.41800000000E+01 0.  1.
        -11    1    1    2    0    0  0.13730259407E+02  0.25700692102E+02 -0.18711716676E+02  0.34629090933E+02  0.00000000000E+00 0.  1.
         11    1    1    2    0    0  0.85179083140E+02 -0.74907842761E+02 -0.51920139975E+02  0.12474919658E+03  0.00000000000E+00 0. -1.
</event>
<event>
 7    1  0.2564986E-009  0.1976972E+03  0.7561462E-02  0.1151697E+00
          4   -1    0    0  501    0  0.00000000000E+00  0.00000000000E+00  0.34151460929E+03  0.34151460929E+03  0.00000000000E+00 0. -1.
         -4   -1    0    0    0  501 -0.00000000000E+00 -0.00000000000E+00 -0.12891031179E+03  0.12891031179E+03  0.00000000000E+00 0.  1.
         25    2    1    2    0    0 -0.41150798640E+02 -0.17370282902E+03  0.13117310649E+03  0.25440731397E+03  0.12510250395E+03 0.  0.
          5    1    3    3  502    0  0.27227562745E+02 -0.48500999300E+02  0.89974999177E+02  0.10586151323E+03  0.41800000000E+01 0. -1.
         -5    1    3    3    0  502 -0.68378361385E+02 -0.12520182972E+03  0.41198107313E+02  0.14854580074E+03  0.41800000000E+01 0. -1.
        -11    1    1    2    0    0  0.64076324912E+02  0.92532111521E+02  0.27365872236E+02  0.11583116178E+03  0.00000000000E+00 0.  1.
         11    1    1    2    0    0 -0.22925526271E+02  0.81170717496E+02  0.54065318770E+02  0.10018644533E+03  0.00000000000E+00 0. -1.
</event>
<event>
 7    1  0.2564986E-009  0.1111259E+03  0.7561462E-02  0.1258499E+00
          1   -1    0    0  501    0  0.00000000000E+00  0.00000000000E+00  0.82965297636E+03  0.82965297636E+03  0.00000000000E+00 0. -1.
         -1   -1    0    0    0  501 -0.00000000000E+00 -0.00000000000E+00 -0.27706259402E+02  0.27706259402E+02  0.00000000000E+00 0.  1.
         25    2    1    2    0    0 -0.46049517805E+02 -0.56548024549E+02  0.64878438847E+03  0.66474571192E+03  0.12508973426E+03 0.  0.
          5    1    3    3  502    0 -0.67081362862E+02 -0.27238892356E+02  0.59761424971E+03  0.60199844714E+03  0.41800000000E+01 0.  1.
         -5    1    3    3    0  502  0.21031845056E+02 -0.29309132193E+02  0.51170138762E+02  0.62747264779E+02  0.41800000000E+01 0.  1.
        -11    1    1    2    0    0  0.36675779695E+02  0.80082978135E+02  0.97130628609E+02  0.13112114710E+03  0.00000000000E+00 0. -1.
         11    1    1    2    0    0  0.93737381100E+01 -0.23534953585E+02  0.56031699875E+02  0.61492376741E+02  0.00000000000E+00 0.  1.
</event>
<event>
 7    1  0.2564986E-009  0.1269487E+03  0.7561462E-02  0.1232055E+00
          2   -1    0    0  501    0  0.00000000000E+00  0.00000000000E+00  0.54448276841E+03  0.54448276841E+03  0.00000000000E+00 0. -1.
         -2   -1    0    0    0  501 -0.00000000000E+00 -0.00000000000E+00 -0.42725617699E+02  0.42725617699E+02  0.00000000000E+00 0.  1.
         25    2    1    2    0    0 -0.78933643218E+02 -0.42835291602E+02  0.16180318401E+03  0.22336438726E+03  0.12508395941E+03 0.  0.
          5    1    3    3  502    0 -0.69524440823E+00  0.22399231063E+02  0.10337023302E+03  0.10585408066E+03  0.41800000000E+01 0.  1.
         -5    1    3    3    0  502 -0.78238398809E+02 -0.65234522664E+02  0.58432950988E+02  0.11751030660E+03  0.41800000000E+01 0.  1.
        -11    1    1    2    0    0  0.17477465086E+02 -0.29464843679E+02  0.10519030521E+03  0.11062838293E+03  0.00000000000E+00 0.  1.
         11    1    1    2    0    0  0.61456178131E+02  0.72300135280E+02  0.23476366149E+03  0.25321561593E+03  0.00000000000E+00 0. -1.
</event>
<event>
 7    1  0.2564986E-009  0.1463517E+03  0.7561462E-02  0.1205029E+00
          2   -1    0    0  501    0  0.00000000000E+00  0.00000000000E+00  0.51387816581E+03  0.51387816581E+03  0.00000000000E+00 0. -1.
         -2   -1    0    0    0  501 -0.00000000000E+00 -0.00000000000E+00 -0.58621401676E+02  0.58621401676E+02  0.00000000000E+00 0.  1.
         25    2    1    2    0    0 -0.13240471316E+03  0.39715522879E+02  0.22882386673E+03  0.29515514049E+03  0.12509142316E+03 0.  0.
          5    1    3    3  502    0 -0.11583716379E+03  0.34280649657E+02  0.79313740949E+02  0.14457369525E+03  0.41800000000E+01 0.  1.
         -5    1    3    3    0  502 -0.16567549375E+02  0.54348732222E+01  0.14951012578E+03  0.15058144524E+03  0.41800000000E+01 0.  1.
        -11    1    1    2    0    0  0.74393346436E+02  0.12990156903E+02  0.72910093760E+02  0.10497140536E+03  0.00000000000E+00 0.  1.
         11    1    1    2    0    0  0.58011366726E+02 -0.52705679782E+02  0.15352280365E+03  0.17237302164E+03  0.00000000000E+00 0. -1.
</event>
<event>
 7    1  0.2564986E-009  0.2116251E+03  0.7561462E-02  0.1140286E+00
         -1   -1    0    0    0  501 -0.00000000000E+00  0.00000000000E+00  0.53216093689E+03  0.53216093689E+03  0.00000000000E+00 0.  1.
          1   -1    0    0  501    0  0.00000000000E+00 -0.00000000000E+00 -0.99096893850E+02  0.99096893850E+02  0.00000000000E+00 0. -1.
         25    2    1    2    0    0 -0.83316436706E+02 -0.17482516990E+03  0.15560879182E+03  0.27814958490E+03  0.12509047460E+03 0.  0.
          5    1    3    3  502    0  0.52762886029E+01  0.16826624226E+02  0.51078569354E+01  0.18829155763E+02  0.41800000000E+01 0.  1.
         -5    1    3    3    0  502 -0.88592725309E+02 -0.19165179413E+03  0.15050093488E+03  0.25932042914E+03  0.41800000000E+01 0.  1.
        -11    1    1    2    0    0  0.38582991996E+02  0.68960126939E+02  0.38388781298E+02  0.87851265832E+02  0.00000000000E+00 0. -1.
         11    1    1    2    0    0  0.44733444711E+02  0.10586504296E+03  0.23906646993E+03  0.26525698001E+03  0.00000000000E+00 0.  1.
</event>
<event>
 7    1  0.2564986E-009  0.1608522E+03  0.7561462E-02  0.1187738E+00
         -2   -1    0    0    0  501 -0.00000000000E+00  0.00000000000E+00  0.32405974865E+03  0.32405974865E+03  0.00000000000E+00 0. -1.
          2   -1    0    0  501    0  0.00000000000E+00 -0.00000000000E+00 -0.12530552140E+03  0.12530552140E+03  0.00000000000E+00 0.  1.
         25    2    1    2    0    0  0.64066355234E+02  0.12704337212E+03  0.20549398630E+03  0.27949931679E+03  0.12509026104E+03 0.  0.
          5    1    3    3  502    0  0.82312195074E+02  0.42833130676E+02  0.15157047877E+03  0.17776686130E+03  0.41800000000E+01 0.  1.
         -5    1    3    3    0  502 -0.18245839839E+02  0.84210241449E+02  0.53923507531E+02  0.10173245549E+03  0.41800000000E+01 0.  1.
        -11    1    1    2    0    0 -0.27324957308E+02 -0.63948335006E+02 -0.49401528462E+02  0.85302718927E+02  0.00000000000E+00 0.  1.
         11    1    1    2    0    0 -0.36741397926E+02 -0.63095037118E+02  0.42661769405E+02  0.84563234324E+02  0.00000000000E+00 0. -1.
</event>
<event>
 7    1  0.2564986E-009  0.8906220E+02  0.7561462E-02  0.1305139E+00
         -2   -1    0    0    0  501 -0.00000000000E+00  0.00000000000E+00  0.11790765120E+03  0.11790765120E+03  0.00000000000E+00 0. -1.
          2   -1    0    0  501    0  0.00000000000E+00 -0.00000000000E+00 -0.15345422933E+03  0.15345422933E+03  0.00000000000E+00 0.  1.
         25    2    1    2    0    0  0.58630467735E+02  0.76674199153E+01 -0.75344823299E+02  0.15754381847E+03  0.12508753441E+03 0.  0.
          5    1    3    3  502    0  0.47323236293E+02  0.47176104257E+02  0.50666190801E+01  0.67143253831E+02  0.41800000000E+01 0.  1.
         -5    1    3    3    0  502  0.11307231442E+02 -0.39508684342E+02 -0.80411442379E+02  0.90400564637E+02  0.41800000000E+01 0.  1.
        -11    1    1    2    0    0 -0.25185232568E+02 -0.22035937741E+02  0.62516226803E+02  0.70909499401E+02  0.00000000000E+00 0. -1.
         11    1    1    2    0    0 -0.33445235167E+02  0.14368517826E+02 -0.22717981636E+02  0.42908562659E+02  0.00000000000E+00 0.  1.
</event>
<event>
 7    1  0.2564986E-009  0.1067902E+03  0.7561462E-02  0.1266632E+00
          1   -1    0    0  501    0  0.00000000000E+00  0.00000000000E+00  0.16574334029E+04  0.16574334029E+04  0.00000000000E+00 0. -1.
         -1   -1    0    0    0  501 -0.00000000000E+00 -0.00000000000E+00 -0.16430470300E+02  0.16430470300E+02  0.00000000000E+00 0.  1.
         25    2    1    2    0    0 -0.29420031699E+02  0.51165623838E+02  0.14331652477E+04  0.14398242069E+04  0.12509060793E+03 0.  0.
          5    1    3    3  502    0  0.10694369032E+02 -0.20965717966E+02  0.66555561537E+02  0.70718074283E+02  0.41800000000E+01 0. -1.
         -5    1    3    3    0  502 -0.40114400731E+02  0.72131341804E+02  0.13666096862E+04  0.13691061326E+04  0.41800000000E+01 0. -1.
        -11    1    1    2    0    0  0.60473141136E+02 -0.44991959001E+02  0.15686993500E+03  0.17403865570E+03  0.00000000000E+00 0. -1.
         11    1    1    2    0    0 -0.31053109436E+02 -0.61736648371E+01  0.50967749859E+02  0.60001010565E+02  0.00000000000E+00 0.  1.
</event>
<event>
 7    1  0.2564986E-009  0.1459571E+03  0.7561462E-02  0.1205531E+00
          1   -1    0    0  501    0  0.00000000000E+00  0.00000000000E+00  0.11090388131E+03  0.11090388131E+03  0.00000000000E+00 0. -1.
         -1   -1    0    0    0  501 -0.00000000000E+00 -0.00000000000E+00 -0.20505981137E+03  0.20505981137E+03  0.00000000000E+00 0.  1.
         25    2    1    2    0    0 -0.14733283721E+01  0.10213804109E+03 -0.36467775225E+02  0.16556146645E+03  0.12508537248E+03 0.  0.
          5    1    3    3  502    0 -0.27325699666E+02  0.12166882782E+03 -0.43516395535E+02  0.13214063192E+03  0.41800000000E+01 0.  1.
         -5    1    3    3    0  502  0.25852371294E+02 -0.19530786733E+02  0.70486203097E+01  0.33420834522E+02  0.41800000000E+01 0.  1.
        -11    1    1    2    0    0  0.37867785078E+02 -0.16273866831E+02 -0.35836759694E+02  0.54617590882E+02  0.00000000000E+00 0.  1.
         11    1    1    2    0    0 -0.36394456706E+02 -0.85864174255E+02 -0.21851395143E+02  0.95784635350E+02  0.00000000000E+00 0. -1.
</event>
<event>
 7    1  0.2564986E-009  0.1165290E+03  0.7561462E-02  0.1248935E+00
         -1   -1    0    0    0  501 -0.00000000000E+00  0.00000000000E+00  0.48784224269E+02  0.48784224269E+02  0.00000000000E+00 0.  1.
          1   -1    0    0  501    0  0.00000000000E+00 -0.00000000000E+00 -0.32297437065E+03  0.32297437065E+03  0.00000000000E+00 0. -1.
         25    2    1    2    0    0 -0.11496971580E+02  0.51168716452E+02 -0.20493468928E+03  0.24575539932E+03  0.12508825496E+03 0.  0.
          5    1    3    3  502    0  0.37662608206E+02 -0.19191567438E+02 -0.33899546359E+02  0.54345560637E+02  0.41800000000E+01 0. -1.
         -5    1    3    3    0  502 -0.49159579786E+02  0.70360283890E+02 -0.17103514292E+03  0.19140983869E+03  0.41800000000E+01 0. -1.
        -11    1    1    2    0    0 -0.21499505941E+02 -0.65302783628E+02 -0.38902334292E+02  0.78994138508E+02  0.00000000000E+00 0. -1.
         11    1    1    2    0    0  0.32996477520E+02  0.14134067176E+02 -0.30353122810E+02  0.47009057085E+02  0.00000000000E+00 0.  1.
</event>
<event>
 7    1  0.2564986E-009  0.1265998E+03  0.7561462E-02  0.1232590E+00
          1   -1    0    0  501    0  0.00000000000E+00  0.00000000000E+00  0.21018186519E+04  0.21018186519E+04  0.00000000000E+00 0. -1.
         -1   -1    0    0    0  501 -0.00000000000E+00 -0.00000000000E+00 -0.17092219177E+02  0.17092219177E+02  0.00000000000E+00 0.  1.
         25    2    1    2    0    0  0.72296492591E+02 -0.81772772066E+02  0.17551813485E+04  0.17630153166E+04  0.12509145153E+03 0.  0.
          5    1    3    3  502    0  0.78975167870E+01 -0.42281014611E+02  0.15130466274E+03  0.15735510266E+03  0.41800000000E+01 0. -1.
         -5    1    3    3    0  502  0.64398975804E+02 -0.39491757454E+02  0.16038766858E+04  0.16056602139E+04  0.41800000000E+01 0. -1.
        -11    1    1    2    0    0 -0.21695024813E+02  0.80855904957E+02  0.19985225753E+03  0.21667781683E+03  0.00000000000E+00 0.  1.
         11    1    1    2    0    0 -0.50601467777E+02  0.91686710877E+00  0.12969282666E+03  0.13921773764E+03  0.00000000000E+00 0. -1.
</event>
<event>
 7    1  0.2564986E-009  0.1797682E+03  0.7561462E-02  0.1168028E+00
          3   -1    0    0  501    0  0.00000000000E+00  0.00000000000E+00  0.30410761102E+03  0.30410761102E+03  0.00000000000E+00 0. -1.
         -3   -1    0    0    0  501 -0.00000000000E+00 -0.00000000000E+00 -0.12437321227E+03  0.12437321227E+03  0.00000000000E+00 0.  1.
         25    2    1    2    0    0  0.15392148645E+03  0.19809281686E+02  0.14139093769E+03  0.24438366548E+03  0.12509095515E+03 0.  0.
          5    1    3    3  502    0  0.89686629411E+02  0.69029237723E+02  0.10878920996E+03  0.15703914085E+03  0.41800000000E+01 0. -1.
         -5    1    3    3    0  502  0.64234857041E+02 -0.49219956037E+02  0.32601727723E+02  0.87344524625E+02  0.41800000000E+01 0. -1.
        -11    1    1    2    0    0 -0.17750198402E+02  0.16593501914E+02  0.35619140947E+02  0.43117711568E+02  0.00000000000E+00 0. -1.
         11    1    1    2    0    0 -0.13617128805E+03 -0.36402783600E+02  0.27243201131E+01  0.14097944624E+03  0.00000000000E+00 0.  1.
</event>
<event>
 7    1  0.2564986E-009  0.7813695E+02  0.7561462E-02  0.1334423E+00
          3   -1    0    0  501    0  0.00000000000E+00  0.00000000000E+00  0.22634331745E+03  0.22634331745E+03  0.00000000000E+00 0. -1.
         -3   -1    0    0    0  501 -0.00000000000E+00 -0.00000000000E+00 -0.72393351363E+02  0.72393351363E+02  0.00000000000E+00 0.  1.
         25    2    1    2    0    0 -0.67883317500E+02  0.38836138877E+01  0.85050451605E+02  0.16584195999E+03  0.12508696625E+03 0.  0.
          5    1    3    3  502    0 -0.58553026666E+02  0.52413281668E+01 -0.18506338705E+02  0.61772853463E+02  0.41800000000E+01 0. -1.
         -5    1    3    3    0  502 -0.93302908338E+01 -0.13577142791E+01  0.10355679031E+03  0.10406910653E+03  0.41800000000E+01 0. -1.
        -11    1    1    2    0    0  0.38221819364E+02  0.24961192561E+02 -0.72582119593E+01  0.46223914270E+02  0.00000000000E+00 0.  1.
         11    1    1    2    0    0  0.29661498136E+02 -0.28844806449E+02  0.76157726440E+02  0.86670794546E+02  0.00000000000E+00 0. -1.
</event>
<event>
 7    1  0.2564986E-009  0.1237326E+03  0.7561462E-02  0.1237063E+00
         -1   -1    0    0    0  501 -0.00000000000E+00  0.00000000000E+00  0.11751230108E+03  0.11751230108E+03  0.00000000000E+00 0.  1.
          1   -1    0    0  501    0  0.00000000000E+00 -0.00000000000E+00 -0.15090936212E+03  0.15090936212E+03  0.00000000000E+00 0. -1.
         25    2    1    2    0    0 -0.71262289516E+02  0.13920045302E+02 -0.44947681620E+02  0.15145987376E+03  0.12509083783E+03 0.  0.
          5    1    3    3  502    0 -0.79943579294E+02  0.58263513745E+02 -0.26675681039E+02  0.10254110036E+03  0.41800000000E+01 0.  1.
         -5    1    3    3    0  502  0.86812897785E+01 -0.44343468443E+02 -0.18272000581E+02  0.48918773400E+02  0.41800000000E+01 0.  1.
        -11    1    1    2    0    0  0.65959129995E+02 -0.39547186745E+02  0.32448558714E+02  0.83471526712E+02  0.00000000000E+00 0.  1.
         11    1    1    2    0    0  0.53031595211E+01  0.25627141442E+02 -0.20897938130E+02  0.33490262726E+02  0.00000000000E+00 0. -1.
</event>
<event>
 7    1  0.2564986E-009  0.1516491E+03  0.7561462E-02  0.1198461E+00
         -2   -1    0    0    0  501 -0.00000000000E+00  0.00000000000E+00  0.97873956560E+02  0.97873956560E+02  0.00000000000E+00 0.  1.
          2   -1    0    0  501    0  0.00000000000E+00 -0.00000000000E+00 -0.46006083891E+03  0.46006083891E+03  0.00000000000E+00 0. -1.
         25    2    1    2    0    0  0.96597440330E+02  0.71505172689E+02 -0.36839706642E+03  0.40719471165E+03  0.12508828662E+03 0.  0.
          5    1    3    3  502    0  0.20539510994E+02 -0.23239667404E+02 -0.17545495042E+02  0.35878551380E+02  0.41800000000E+01 0.  1.
         -5    1    3    3    0  502  0.76057929336E+02  0.94744840092E+02 -0.35085157138E+03  0.37131616027E+03  0.41800000000E+01 0.  1.
        -11    1    1    2    0    0 -0.11167131942E+03 -0.45931530407E+02  0.20617598405E+01  0.12076605450E+03  0.00000000000E+00 0. -1.
         11    1    1    2    0    0  0.15073879087E+02 -0.25573642282E+02  0.41484242264E+01  0.29974029323E+02  0.00000000000E+00 0.  1.
</event>
<event>
 7    1  0.2564986E-009  0.1787995E+03  0.7561462E-02  0.1168970E+00
          2   -1    0    0  501    0  0.00000000000E+00  0.00000000000E+00  0.58300789945E+03  0.58300789945E+03  0.00000000000E+00 0. -1.
         -2   -1    0    0    0  501 -0.00000000000E+00 -0.00000000000E+00 -0.69028086882E+02  0.69028086882E+02  0.00000000000E+00 0.  1.
         25    2    1    2    0    0  0.16058935751E+03 -0.40904950375E+01  0.26605925020E+03  0.33502166997E+03  0.12508525426E+03 0.  0.
          5    1    3    3  502    0  0.47127594409E+02  0.15202971838E+02  0.19146235475E+03  0.19780658784E+03  0.41800000000E+01 0.  1.
         -5    1    3    3    0  502  0.11346176311E+03 -0.19293466875E+02  0.74596895450E+02  0.13721508212E+03  0.41800000000E+01 0.  1.
        -11    1    1    2    0    0 -0.10106308363E+03  0.54422135453E+02  0.18073292061E+03  0.21410255555E+03  0.00000000000E+00 0. -1.
         11    1    1    2    0    0 -0.59526273882E+02 -0.50331640416E+02  0.67187641751E+02  0.10291176081E+03  0.00000000000E+00 0.  1.
</event>
<event>
 7    1  0.2564986E-009  0.1455013E+03  0.7561462E-02  0.1206112E+00
         -1   -1    0    0    0  501 -0.00000000000E+00  0.00000000000E+00  0.15365827573E+03  0.15365827573E+03  0.00000000000E+00 0.  1.
          1   -1    0    0  501    0  0.00000000000E+00 -0.00000000000E+00 -0.18722482619E+03  0.18722482619E+03  0.00000000000E+00 0. -1.
         25    2    1    2    0    0  0.72515587865E+02  0.89699759745E+02 -0.78676703462E+02  0.18746342355E+03  0.12509178278E+03 0.  0.
          5    1    3    3  502    0  0.82010714249E+02  0.10494251230E+03 -0.94342436212E+02  0.16326866144E+03  0.41800000000E+01 0.  1.
         -5    1    3    3    0  502 -0.94951263831E+01 -0.15242752555E+02  0.15665732751E+02  0.24194762101E+02  0.41800000000E+01 0.  1.
        -11    1    1    2    0    0  0.51475441650E+01 -0.53289578100E+02  0.41201460938E+02  0.67556174614E+02  0.00000000000E+00 0.  1.
         11    1    1    2    0    0 -0.77663132030E+02 -0.36410181645E+02  0.39086920657E+01  0.85863503760E+02  0.00000000000E+00 0. -1.
</event>
<event>
 7    1  0.2564986E-009  0.7202520E+02  0.7561462E-02  0.1353339E+00
         -2   -1    0    0    0  501 -0.00000000000E+00  0.00000000000E+00  0.26958893917E+02  0.26958893917E+02  0.00000000000E+00 0. -1.
          2   -1    0    0  501    0  0.00000000000E+00 -0.00000000000E+00 -0.50682709952E+03  0.50682709952E+03  0.00000000000E+00 0.  1.
         25    2    1    2    0    0 -0.33352213694E+02 -0.30321387839E+02 -0.25021938001E+03  0.28335479951E+03  0.12509375506E+03 0.  0.
          5    1    3    3  502    0  0.16577843245E+01 -0.20391407566E+00  0.14201997026E+02  0.14898286792E+02  0.41800000000E+01 0.  1.
         -5    1    3    3    0  502 -0.35009998018E+02 -0.30117473763E+02 -0.26442137704E+03  0.26845651272E+03  0.41800000000E+01 0.  1.
        -11    1    1    2    0    0  0.28740261049E+02 -0.24741406891E+02 -0.51810406508E+02  0.64206370733E+02  0.00000000000E+00 0. -1.
         11    1    1    2    0    0  0.46119526449E+01  0.55062794730E+02 -0.17783841908E+03  0.18622482319E+03  0.00000000000E+00 0.  1.
</event>
<event>
 7    1  0.2886345E-009  0.1068611E+03  0.7561462E-02  0.1266496E+00
          4   -1    0    0  501    0  0.00000000000E+00  0.00000000000E+00  0.25451543544E+03  0.25451543544E+03  0.00000000000E+00 0. -1.
         -4   -1    0    0    0  501 -0.00000000000E+00 -0.00000000000E+00 -0.88344694101E+02  0.88344694101E+02  0.00000000000E+00 0.  1.
         25    2    1    2    0    0 -0.55937928265E+02 -0.84959056269E+02  0.10456075591E+03  0.19216182708E+03  0.12508446367E+03 0.  0.
          5    1    3    3  502    0 -0.39663458978E+02 -0.48669527986E+02  0.13023469865E+03  0.14463907517E+03  0.41800000000E+01 0. -1.
         -5    1    3    3    0  502 -0.16274469287E+02 -0.36289528283E+02 -0.25673942744E+02  0.47522751915E+02  0.41800000000E+01 0. -1.
        -11    1    1    2    0    0  0.59837618947E+02  0.57210083025E+02  0.81627780606E+02  0.11626103736E+03  0.00000000000E+00 0. -1.
         11    1    1    2    0    0 -0.38996906824E+01  0.27748973244E+02 -0.20017795178E+02  0.34437265096E+02  0.00000000000E+00 0.  1.
</event>
<event>
 7    1  0.2564986E-009  0.1679071E+03  0.7561462E-02  0.1180048E+00
         -2   -1    0    0    0  501 -0.00000000000E+00  0.00000000000E+00  0.29566482562E+02  0.29566482562E+02  0.00000000000E+00 0. -1.
          2   -1    0    0  501    0  0.00000000000E+00 -0.00000000000E+00 -0.10687447252E+04  0.10687447252E+04  0.00000000000E+00 0.  1.
         25    2    1    2    0    0 -0.10701436534E+03  0.91857818588E+02 -0.61462574276E+03  0.64288619697E+03  0.12509166785E+03 0.  0.
          5    1    3    3  502    0 -0.52715493135E+02  0.10270153834E+03 -0.52415839616E+03  0.53673645848E+03  0.41800000000E+01 0. -1.
         -5    1    3    3    0  502 -0.54298872210E+02 -0.10843719750E+02 -0.90467346596E+02  0.10614973849E+03  0.41800000000E+01 0. -1.
        -11    1    1    2    0    0  0.28755843407E+02 -0.80761448017E+02 -0.21500314057E+03  0.23146416671E+03  0.00000000000E+00 0. -1.
         11    1    1    2    0    0  0.78258521938E+02 -0.11096370570E+02 -0.20954935934E+03  0.22396084411E+03  0.00000000000E+00 0.  1.
</event>
<event>
 7    1  0.2564986E-009  0.1068555E+03  0.7561462E-02  0.1266506E+00
         -2   -1    0    0    0  501 -0.00000000000E+00  0.00000000000E+00  0.99377408780E+02  0.99377408780E+02  0.00000000000E+00 0.  1.
          2   -1    0    0  501    0  0.00000000000E+00 -0.00000000000E+00 -0.15075165611E+03  0.15075165611E+03  0.00000000000E+00 0. -1.
         25    2    1    2    0    0  0.31756181826E+02 -0.25548159543E+02  0.12974921419E+02  0.13220265012E+03  0.12509208038E+03 0.  0.
          5    1    3    3  502    0  0.80164888657E+02 -0.19402042715E+02  0.77022569657E+01  0.82943630240E+02  0.41800000000E+01 0.  1.
         -5    1    3    3    0  502 -0.48408706831E+02 -0.61461168284E+01  0.52726644535E+01  0.49259019880E+02  0.41800000000E+01 0.  1.
        -11    1    1    2    0    0  0.61407552322E+01 -0.21141787181E+02  0.83800981820E+01  0.23556529574E+02  0.00000000000E+00 0.  1.
         11    1    1    2    0    0 -0.37896937058E+02  0.46689946724E+02 -0.72729266932E+02  0.94369885197E+02  0.00000000000E+00 0. -1.
</event>
<event>
 7    1  0.2564986E-009  0.1345301E+03  0.7561462E-02  0.1220885E+00
          2   -1    0    0  501    0  0.00000000000E+00  0.00000000000E+00  0.11560020701E+03  0.11560020701E+03  0.00000000000E+00 0.  1.
         -2   -1    0    0    0  501 -0.00000000000E+00 -0.00000000000E+00 -0.20868707141E+03  0.20868707141E+03  0.00000000000E+00 0. -1.
         25    2    1    2    0    0 -0.55269714287E+02 -0.92425198342E+02 -0.25556154332E+02  0.16702796150E+03  0.12509222315E+03 0.  0.
          5    1    3    3  502    0 -0.40926958798E+02 -0.29514449334E+01 -0.57580445142E+02  0.70828716255E+02  0.41800000000E+01 0.  1.
         -5    1    3    3    0  502 -0.14342755489E+02 -0.89473753409E+02  0.32024290810E+02  0.96199245246E+02  0.41800000000E+01 0.  1.
        -11    1    1    2    0    0  0.25529533079E+02  0.10255454245E+03 -0.68297343564E+02  0.12583210391E+03  0.00000000000E+00 0. -1.
         11    1    1    2    0    0  0.29740181208E+02 -0.10129344113E+02  0.76663349550E+00  0.31427213007E+02  0.00000000000E+00 0.  1.
</event>
<event>
 7    1  0.2564986E-009  0.1441609E+03  0.7561462E-02  0.1207837E+00
          1   -1    0    0  501    0  0.00000000000E+00  0.00000000000E+00  0.18960142033E+04  0.18960142033E+04  0.00000000000E+00 0. -1.
         -1   -1    0    0    0  501 -0.00000000000E+00 -0.00000000000E+00 -0.12954449808E+02  0.12954449808E+02  0.00000000000E+00 0.  1.
         25    2    1    2    0    0  0.92042691424E+02  0.28291894605E+02  0.13310555791E+04  0.13403838562E+04  0.12509052330E+03 0.  0.
          5    1    3    3  502    0 -0.21121874599E+02 -0.24755570175E+02  0.27782069195E+03  0.27975128438E+03  0.41800000000E+01 0.  1.
         -5    1    3    3    0  502  0.11316456602E+03  0.53047464780E+02  0.10532348872E+04  0.10606325718E+04  0.41800000000E+01 0.  1.
        -11    1    1    2    0    0 -0.22964424494E+02 -0.52469131693E+02  0.16335514507E+03  0.17310481794E+03  0.00000000000E+00 0.  1.
         11    1    1    2    0    0 -0.69078266930E+02  0.24177237088E+02  0.38864902937E+03  0.39547997899E+03  0.00000000000E+00 0. -1.
</event>
<event>
 7    1  0.2564986E-009  0.9835865E+02  0.7561462E-02  0.1283786E+00
         -2   -1    0    0    0  501 -0.00000000000E+00  0.00000000000E+00  0.28245532981E+02  0.28245532981E+02  0.00000000000E+00 0.  1.
          2   -1    0    0  501    0  0.00000000000E+00 -0.00000000000E+00 -0.66067195620E+03  0.66067195620E+03  0.00000000000E+00 0. -1.
         25    2    1    2    0    0  0.63349910655E+02  0.68797880639E+01 -0.47977648003E+03  0.49989155039E+03  0.12508216778E+03 0.  0.
          5    1    3    3  502    0 -0.10341844058E+02 -0.73977412272E+01  0.85877754119E+00  0.13412315708E+02  0.41800000000E+01 0. -1.
         -5    1    3    3    0  502  0.73691754713E+02  0.14277529291E+02 -0.48063525757E+03  0.48647923468E+03  0.41800000000E+01 0. -1.
        -11    1    1    2    0    0 -0.84820881431E+02  0.21825549091E+01 -0.13631915495E+03  0.16056854448E+03  0.00000000000E+00 0. -1.
         11    1    1    2    0    0  0.21470970775E+02 -0.90623429730E+01 -0.16330788243E+02  0.28457394308E+02  0.00000000000E+00 0.  1.
</event>
<event>
 7    1  0.2564986E-009  0.7451400E+02  0.7561462E-02  0.1345383E+00
          2   -1    0    0  501    0  0.00000000000E+00  0.00000000000E+00  0.66777159118E+02  0.66777159118E+02  0.00000000000E+00 0. -1.
         -2   -1    0    0    0  501 -0.00000000000E+00 -0.00000000000E+00 -0.18685425127E+03  0.18685425127E+03  0.00000000000E+00 0.  1.
         25    2    1    2    0    0  0.15047524329E+02 -0.19697324021E+02 -0.90318211147E+02  0.15626996533E+03  0.12509400560E+03 0.  0.
          5    1    3    3  502    0 -0.11878705705E+02 -0.50694912867E+02  0.49269165549E+01  0.52467368397E+02  0.41800000000E+01 0. -1.
         -5    1    3    3    0  502  0.26926230034E+02  0.30997588845E+02 -0.95245127702E+02  0.10380259693E+03  0.41800000000E+01 0. -1.
        -11    1    1    2    0    0 -0.33445238869E+02  0.11356412592E+02 -0.54794960745E+02  0.65192329557E+02  0.00000000000E+00 0.  1.
         11    1    1    2    0    0  0.18397714539E+02  0.83409114298E+01  0.25036079740E+02  0.32169115507E+02  0.00000000000E+00 0. -1.
</event>
<event>
 7    1  0.2564986E-009  0.7614206E+02  0.7561462E-02  0.1340370E+00
         -2   -1    0    0    0  501 -0.00000000000E+00  0.00000000000E+00  0.41529506173E+03  0.41529506173E+03  0.00000000000E+00 0.  1.
          2   -1    0    0  501    0  0.00000000000E+00 -0.00000000000E+00 -0.49337104297E+02  0.49337104297E+02  0.00000000000E+00 0. -1.
         25    2    1    2    0    0 -0.56187118014E+01 -0.37889620699E+02  0.33344821446E+03  0.35819381798E+03  0.12509159137E+03 0.  0.
          5    1    3    3  502    0  0.30036298721E+02 -0.19733996154E+02  0.18406745671E+02  0.40594217954E+02  0.41800000000E+01 0. -1.
         -5    1    3    3    0  502 -0.35655010523E+02 -0.18155624545E+02  0.31504146879E+03  0.31759960003E+03  0.41800000000E+01 0. -1.
        -11    1    1    2    0    0  0.21139158102E+02 -0.11526660722E+02  0.46866141913E+02  0.52689307933E+02  0.00000000000E+00 0.  1.
         11    1    1    2    0    0 -0.15520446301E+02  0.49416281422E+02 -0.14356398940E+02  0.53749040117E+02  0.00000000000E+00 0. -1.
</event>
<event>
 7    1  0.2564986E-009  0.1007246E+03  0.7561462E-02  0.1278780E+00
          1   -1    0    0  501    0  0.00000000000E+00  0.00000000000E+00  0.20904403030E+03  0.20904403030E+03  0.00000000000E+00 0. -1.
         -1   -1    0    0    0  501 -0.00000000000E+00 -0.00000000000E+00 -0.98477987164E+02  0.98477987164E+02  0.00000000000E+00 0.  1.
         25    2    1    2    0    0 -0.78829164312E+02  0.30726925106E+02  0.20823981888E+02  0.15244216278E+03  0.12508714441E+03 0.  0.
          5    1    3    3  502    0 -0.78481508378E+02  0.29245745638E+02 -0.38978771426E+02  0.92474200819E+02  0.41800000000E+01 0.  1.
         -5    1    3    3    0  502 -0.34765593447E+00  0.14811794688E+01  0.59802753314E+02  0.59967961957E+02  0.41800000000E+01 0.  1.
        -11    1    1    2    0    0  0.84055389918E+02 -0.21402534796E+01  0.31132290674E+02  0.89661077296E+02  0.00000000000E+00 0.  1.
         11    1    1    2    0    0 -0.52262256060E+01 -0.28586671627E+02  0.58609770579E+02  0.65418777397E+02  0.00000000000E+00 0. -1.
</event>
<event>
 7    1  0.2564986E-009  0.1070137E+03  0.7561462E-02  0.1266202E+00
         -1   -1    0    0    0  501 -0.00000000000E+00  0.00000000000E+00  0.35958168626E+02  0.35958168626E+02  0.00000000000E+00 0.  1.
          1   -1    0    0  501    0  0.00000000000E+00 -0.00000000000E+00 -0.40265473860E+03  0.40265473860E+03  0.00000000000E+00 0. -1.
         25    2    1    2    0    0  0.69829760418E+01  0.42239251318E+02 -0.26398672224E+03  0.29524416219E+03  0.12508880637E+03 0.  0.
          5    1    3    3  502    0 -0.41507577676E+02 -0.22561063913E+02 -0.13311330534E+03  0.14130996096E+03  0.41800000000E+01 0. -1.
         -5    1    3    3    0  502  0.48490553718E+02  0.64800315231E+02 -0.13087341691E+03  0.15393420122E+03  0.41800000000E+01 0. -1.
        -11    1    1    2    0    0  0.33616978826E+02 -0.16124587444E+02 -0.83440252926E+02  0.91391352950E+02  0.00000000000E+00 0. -1.
         11    1    1    2    0    0 -0.40599954868E+02 -0.26114663875E+02 -0.19269594807E+02  0.51977392091E+02  0.00000000000E+00 0.  1.
</event>
<event>
 7    1  0.2564986E-009  0.1320618E+03  0.7561462E-02  0.1224428E+00
         -4   -1    0    0    0  501 -0.00000000000E+00  0.00000000000E+00  0.16346565736E+03  0.16346565736E+03  0.00000000000E+00 0.  1.
          4   -1    0    0  501    0  0.00000000000E+00 -0.00000000000E+00 -0.13513763596E+03  0.13513763596E+03  0.00000000000E+00 0. -1.
         25    2    1    2    0    0  0.41778951385E+01  0.98475326198E+02 -0.11163338442E+02  0.15964569819E+03  0.12508910483E+03 0.  0.
          5    1    3    3  502    0  0.14637548729E+02 -0.14450488740E+02  0.31965484964E+02  0.38240542446E+02  0.41800000000E+01 0. -1.
         -5    1    3    3    0  502 -0.10459653590E+02  0.11292581494E+03 -0.43128823405E+02  0.12140515574E+03  0.41800000000E+01 0. -1.
        -11    1    1    2    0    0  0.25213330797E+02  0.16801324570E+01  0.21207731505E+02  0.32989434226E+02  0.00000000000E+00 0. -1.
         11    1    1    2    0    0 -0.29391225935E+02 -0.10015545866E+03  0.18283628330E+02  0.10596816090E+03  0.00000000000E+00 0.  1.
</event>
<event>
 7    1  0.2564986E-009  0.1081237E+03  0.7561462E-02  0.1264085E+00
          2   -1    0    0  501    0  0.00000000000E+00  0.00000000000E+00  0.35897421416E+03  0.35897421416E+03  0.00000000000E+00 0. -1.
         -2   -1    0    0    0  501 -0.00000000000E+00 -0.00000000000E+00 -0.40043835058E+02  0.40043835058E+02  0.00000000000E+00 0.  1.
         25    2    1    2    0    0  0.33240397469E+02  0.37357236291E+02  0.20692561459E+03  0.24691489838E+03  0.12509304513E+03 0.  0.
          5    1    3    3  502    0 -0.16694359056E+02 -0.37269472149E+02  0.94060352517E+02  0.10262815157E+03  0.41800000000E+01 0.  1.
         -5    1    3    3    0  502  0.49934756526E+02  0.74626708440E+02  0.11286526208E+03  0.14428674681E+03  0.41800000000E+01 0.  1.
        -11    1    1    2    0    0 -0.36449235458E+02 -0.55765637345E+02  0.39985779627E+02  0.77699521532E+02  0.00000000000E+00 0.  1.
         11    1    1    2    0    0  0.32088379891E+01  0.18408401053E+02  0.72018984881E+02  0.74403629306E+02  0.00000000000E+00 0. -1.
</event>
<event>
 7    1  0.2564986E-009  0.8895191E+02  0.7561462E-02  0.1305410E+00
          2   -1    0    0  501    0  0.00000000000E+00  0.00000000000E+00  0.50848816215E+02  0.50848816215E+02  0.00000000000E+00 0. -1.
         -2   -1    0    0    0  501 -0.00000000000E+00 -0.00000000000E+00 -0.20151661452E+03  0.20151661452E+03  0.00000000000E+00 0.  1.
         25    2    1    2    0    0 -0.14845694385E+02  0.19009061121E+02 -0.79666393955E+02  0.15025317539E+03  0.12509014086E+03 0.  0.
          5    1    3    3  502    0 -0.62599262751E+02  0.37687196131E+02 -0.61808450495E+02  0.95795351671E+02  0.41800000000E+01 0.  1.
         -5    1    3    3    0  502  0.47753568366E+02 -0.18678135010E+02 -0.17857943460E+02  0.54457823715E+02  0.41800000000E+01 0.  1.
        -11    1    1    2    0    0 -0.10323635672E+02  0.10336275678E+02 -0.60233951631E+02  0.61980198269E+02  0.00000000000E+00 0.  1.
         11    1    1    2    0    0  0.25169330057E+02 -0.29345336799E+02 -0.10767452717E+02  0.40132057079E+02  0.00000000000E+00 0. -1.
</event>
<event>
 7    1  0.2564986E-009  0.9297794E+02  0.7561462E-02  0.1295796E+00
         -1   -1    0    0    0  501 -0.00000000000E+00  0.00000000000E+00  0.74876622243E+01  0.74876622243E+01  0.00000000000E+00 0.  1.
          1   -1    0    0  501    0  0.00000000000E+00 -0.00000000000E+00 -0.21558538978E+04  0.21558538978E+04  0.00000000000E+00 0. -1.
         25    2    1    2    0    0  0.30192588388E+02 -0.40659680969E+02 -0.15942023980E+04  0.15999045387E+04  0.12509374471E+03 0.  0.
          5    1    3    3  502    0  0.42901874167E+02 -0.73950264602E+00 -0.18056350453E+03  0.18563881394E+03  0.41800000000E+01 0.  1.
         -5    1    3    3    0  502 -0.12709285779E+02 -0.39920178323E+02 -0.14136388935E+04  0.14142657247E+04  0.41800000000E+01 0.  1.
        -11    1    1    2    0    0  0.17203043967E+02 -0.18285279795E+02 -0.10577617490E+03  0.10871474304E+03  0.00000000000E+00 0. -1.
         11    1    1    2    0    0 -0.47395632355E+02  0.58944960764E+02 -0.44838766270E+03  0.45472227835E+03  0.00000000000E+00 0.  1.
</event>
<event>
 7    1  0.2564986E-009  0.1096841E+03  0.7561462E-02  0.1261156E+00
         -2   -1    0    0    0  501 -0.00000000000E+00  0.00000000000E+00  0.34320123686E+02  0.34320123686E+02  0.00000000000E+00 0.  1.
          2   -1    0    0  501    0  0.00000000000E+00 -0.00000000000E+00 -0.37463796728E+03  0.37463796728E+03  0.00000000000E+00 0. -1.
         25    2    1    2    0    0 -0.90828686198E+01 -0.29135716529E+02 -0.17309237853E+03  0.21573039136E+03  0.12508893544E+03 0.  0.
          5    1    3    3  502    0 -0.60471334915E+02 -0.44081334558E+02 -0.96087818282E+02  0.12186175620E+03  0.41800000000E+01 0. -1.
         -5    1    3    3    0  502  0.51388466295E+02  0.14945618029E+02 -0.77004560251E+02  0.93868635155E+02  0.41800000000E+01 0. -1.
        -11    1    1    2    0    0 -0.31439327089E+02 -0.11380137263E+02 -0.31650082934E+02  0.46039836682E+02  0.00000000000E+00 0.  1.
         11    1    1    2    0    0  0.40522195709E+02  0.40515853792E+02 -0.13557538213E+03  0.14718786292E+03  0.00000000000E+00 0. -1.
</event>
<event>
 7    1  0.2564986E-009  0.2110867E+03  0.7561462E-02  0.1140708E+00
          2   -1    0    0  501    0  0.00000000000E+00  0.00000000000E+00  0.11567228792E+04  0.11567228792E+04  0.00000000000E+00 0. -1.
         -2   -1    0    0    0  501 -0.00000000000E+00 -0.00000000000E+00 -0.39728391090E+02  0.39728391090E+02  0.00000000000E+00 0.  1.
         25    2    1    2    0    0  0.18361948380E+03  0.97806289512E+01  0.51342907561E+03  0.55952591274E+03  0.12509218928E+03 0.  0.
          5    1    3    3  502    0  0.19947225963E+03 -0.58971844442E+01  0.45554812364E+03  0.49735854723E+03  0.41800000000E+01 0. -1.
         -5    1    3    3    0  502 -0.15852775836E+02  0.15677813395E+02  0.57880951964E+02  0.62167365513E+02  0.41800000000E+01 0. -1.
        -11    1    1    2    0    0 -0.11071950304E+03  0.32781664845E+02  0.28857954918E+03  0.31082406938E+03  0.00000000000E+00 0. -1.
         11    1    1    2    0    0 -0.72899980764E+02 -0.42562293796E+02  0.31498586327E+03  0.32610128812E+03  0.00000000000E+00 0.  1.
</event>
<event>
 7    1  0.2564986E-009  0.9861293E+02  0.7561462E-02  0.1283240E+00
         -1   -1    0    0    0  501 -0.00000000000E+00  0.00000000000E+00  0.19875273617E+03  0.19875273617E+03  0.00000000000E+00 0.  1.
          1   -1    0    0  501    0  0.00000000000E+00 -0.00000000000E+00 -0.64886206495E+02  0.64886206495E+02  0.00000000000E+00 0. -1.
         25    2    1    2    0    0 -0.31590712740E+01  0.29139298915E+02  0.95687850854E+02  0.16020681235E+03  0.12510387463E+03 0.  0.
          5    1    3    3  502    0  0.41466554920E+02 -0.30850187192E+02  0.52364340981E+02  0.73693322853E+02  0.41800000000E+01 0. -1.
         -5    1    3    3    0  502 -0.44625626194E+02  0.59989486107E+02  0.43323509873E+02  0.86513489493E+02  0.41800000000E+01 0. -1.
        -11    1    1    2    0    0  0.10062854995E+02  0.19190430857E+02 -0.18595566778E+02  0.28553962789E+02  0.00000000000E+00 0. -1.
         11    1    1    2    0    0 -0.69037837214E+01 -0.48329729772E+02  0.56774245604E+02  0.74878167535E+02  0.00000000000E+00 0.  1.
</event>
<event>
 7    1  0.2564986E-009  0.8753801E+02  0.7561462E-02  0.1308926E+00
         -1   -1    0    0    0  501 -0.00000000000E+00  0.00000000000E+00  0.71503849417E+02  0.71503849417E+02  0.00000000000E+00 0.  1.
          1   -1    0    0  501    0  0.00000000000E+00 -0.00000000000E+00 -0.46679352955E+03  0.46679352955E+03  0.00000000000E+00 0. -1.
         25    2    1    2    0    0 -0.80594935369E+00 -0.40425198115E+02 -0.42056928820E+03  0.44063615418E+03  0.12508736146E+03 0.  0.
          5    1    3    3  502    0  0.27793520304E+02 -0.43814242542E+02 -0.62289748965E+02  0.81176676740E+02  0.41800000000E+01 0. -1.
         -5    1    3    3    0  502 -0.28599469657E+02  0.33890444268E+01 -0.35827953924E+03  0.35945947744E+03  0.41800000000E+01 0. -1.
        -11    1    1    2    0    0  0.54863448218E+01  0.66854864552E+02  0.22132129398E+02  0.70636421522E+02  0.00000000000E+00 0.  1.
         11    1    1    2    0    0 -0.46803954681E+01 -0.26429666437E+02  0.31474786652E+01  0.27024803267E+02  0.00000000000E+00 0. -1.
</event>
<event>
 7    1  0.2564986E-009  0.2713954E+03  0.7561462E-02  0.1100484E+00
         -1   -1    0    0    0  501 -0.00000000000E+00  0.00000000000E+00  0.71467286001E+02  0.71467286001E+02  0.00000000000E+00 0.  1.
          1   -1    0    0  501    0  0.00000000000E+00 -0.00000000000E+00 -0.10891134679E+04  0.10891134679E+04  0.00000000000E+00 0. -1.
         25    2    1    2    0    0  0.10833072100E+02 -0.25337867574E+03 -0.42702505303E+03  0.51216894574E+03  0.12509406181E+03 0.  0.
          5    1    3    3  502    0 -0.47533073480E+02 -0.42544269052E+02 -0.92530579689E+02  0.11246683281E+03  0.41800000000E+01 0. -1.
         -5    1    3    3    0  502  0.58366145580E+02 -0.21083440669E+03 -0.33449447334E+03  0.39970211294E+03  0.41800000000E+01 0. -1.
        -11    1    1    2    0    0  0.23857860145E+02  0.10059445610E+03 -0.16330657368E+03  0.19328082961E+03  0.00000000000E+00 0. -1.
         11    1    1    2    0    0 -0.34690932245E+02  0.15278421964E+03 -0.42731455516E+03  0.45513097851E+03  0.00000000000E+00 0.  1.
</event>
<event>
 7    1  0.2564986E-009  0.1915208E+03  0.7561462E-02  0.1157097E+00
         -3   -1    0    0    0  501 -0.00000000000E+00  0.00000000000E+00  0.32110014116E+03  0.32110014116E+03  0.00000000000E+00 0.  1.
          3   -1    0    0  501    0  0.00000000000E+00 -0.00000000000E+00 -0.15466124805E+03  0.15466124805E+03  0.00000000000E+00 0. -1.
         25    2    1    2    0    0 -0.15546808848E+03  0.92411946540E+02  0.11183466769E+02  0.22018441536E+03  0.12508322206E+03 0.  0.
          5    1    3    3  502    0 -0.12838584275E+02  0.29920053443E+02 -0.44024882330E+02  0.54915403198E+02  0.41800000000E+01 0.  1.
         -5    1    3    3    0  502 -0.14262950420E+03  0.62491893097E+02  0.55208349099E+02  0.16526901217E+03  0.41800000000E+01 0.  1.
        -11    1    1    2    0    0  0.12621283165E+03 -0.10343050951E+03  0.15387055391E+03  0.22428485578E+03  0.00000000000E+00 0.  1.
         11    1    1    2    0    0  0.29255256826E+02  0.11018562973E+02  0.13848724287E+01  0.31292118074E+02  0.00000000000E+00 0. -1.
</event>
<event>
 7    1  0.2564986E-009  0.1376557E+03  0.7561462E-02  0.1216519E+00
         -1   -1    0    0    0  501 -0.00000000000E+00  0.00000000000E+00  0.59149230015E+02  0.59149230015E+02  0.00000000000E+00 0.  1.
          1   -1    0    0  501    0  0.00000000000E+00 -0.00000000000E+00 -0.44144366375E+03  0.44144366375E+03  0.00000000000E+00 0. -1.
         25    2    1    2    0    0 -0.75244637785E+02  0.65706312984E+02 -0.10592445350E+03  0.19195436672E+03  0.12508962376E+03 0.  0.
          5    1    3    3  502    0 -0.10236628425E+03  0.42407937714E+02 -0.41959026816E+02  0.11855514187E+03  0.41800000000E+01 0. -1.
         -5    1    3    3    0  502  0.27121646468E+02  0.23298375271E+02 -0.63965426686E+02  0.73399224849E+02  0.41800000000E+01 0. -1.
        -11    1    1    2    0    0  0.57959091035E+02 -0.84775092761E+02 -0.25595378846E+03  0.27578690037E+03  0.00000000000E+00 0. -1.
         11    1    1    2    0    0  0.17285546751E+02  0.19068779777E+02 -0.20416191764E+02  0.32851626669E+02  0.00000000000E+00 0.  1.
</event>
<event>
 7    1  0.2564986E-009  0.1024834E+03  0.7561462E-02  0.1275159E+00
          2   -1    0    0  501    0  0.00000000000E+00  0.00000000000E+00  0.32206390586E+03  0.32206390586E+03  0.00000000000E+00 0. -1.
         -2   -1    0    0    0  501 -0.00000000000E+00 -0.00000000000E+00 -0.47883168810E+02  0.47883168810E+02  0.00000000000E+00 0.  1.
         25    2    1    2    0    0 -0.37998919172E+02 -0.44465430902E+02  0.18018660694E+03  0.22702010845E+03  0.12509925627E+03 0.  0.
          5    1    3    3  502    0 -0.24836134458E+02 -0.77144921752E+02  0.57896747236E+02  0.99687904319E+02  0.41800000000E+01 0.  1.
         -5    1    3    3    0  502 -0.13162784714E+02  0.32679490851E+02  0.12228985970E+03  0.12733220413E+03  0.41800000000E+01 0.  1.
        -11    1    1    2    0    0  0.16570847225E+02  0.59757022397E+02  0.21227028419E+02  0.65544499685E+02  0.00000000000E+00 0.  1.
         11    1    1    2    0    0  0.21428071948E+02 -0.15291591495E+02  0.72767101695E+02  0.77382466535E+02  0.00000000000E+00 0. -1.
</event>
<event>
 7    1  0.2564986E-009  0.9425540E+02  0.7561462E-02  0.1292862E+00
         -1   -1    0    0    0  501 -0.00000000000E+00  0.00000000000E+00  0.19366896341E+03  0.19366896341E+03  0.00000000000E+00 0.  1.
          1   -1    0    0  501    0  0.00000000000E+00 -0.00000000000E+00 -0.90672546999E+02  0.90672546999E+02  0.00000000000E+00 0. -1.
         25    2    1    2    0    0  0.74532016088E+02 -0.14912750541E+02  0.58477686122E+02  0.15760829933E+03  0.12507327729E+03 0.  0.
          5    1    3    3  502    0  0.53332304971E+02 -0.20608697855E+01  0.97475240926E+02  0.11120915849E+03  0.41800000000E+01 0. -1.
         -5    1    3    3    0  502  0.21199711117E+02 -0.12851880756E+02 -0.38997554804E+02  0.46399140844E+02  0.41800000000E+01 0. -1.
        -11    1    1    2    0    0  0.74848242154E+01  0.26014129801E+02 -0.85835426251E+01  0.28397794753E+02  0.00000000000E+00 0. -1.
         11    1    1    2    0    0 -0.82016840304E+02 -0.11101379260E+02  0.53102272912E+02  0.98335416322E+02  0.00000000000E+00 0.  1.
</event>
<event>
 7    1  0.2564986E-009  0.8101463E+02  0.7561462E-02  0.1326196E+00
          3   -1    0    0  501    0  0.00000000000E+00  0.00000000000E+00  0.29987787219E+03  0.29987787219E+03  0.00000000000E+00 0. -1.
         -3   -1    0    0    0  501 -0.00000000000E+00 -0.00000000000E+00 -0.40922682492E+02  0.40922682492E+02  0.00000000000E+00 0.  1.
         25    2    1    2    0    0 -0.19615430123E+02 -0.15085315609E+02  0.12788776618E+03  0.18059775476E+03  0.12509171211E+03 0.  0.
          5    1    3    3  502    0 -0.43869820233E+02  0.18720384989E+02  0.19724221720E+01  0.47920525776E+02  0.41800000000E+01 0. -1.
         -5    1    3    3    0  502  0.24254390110E+02 -0.33805700598E+02  0.12591534401E+03  0.13267722898E+03  0.41800000000E+01 0. -1.
        -11    1    1    2    0    0  0.41696500718E+02 -0.56073799013E+01  0.12132353408E+03  0.12841121759E+03  0.00000000000E+00 0. -1.
         11    1    1    2    0    0 -0.22081070595E+02  0.20692695511E+02  0.97438894355E+01  0.31791582336E+02  0.00000000000E+00 0.  1.
</event>
<event>
 7    1  0.2564986E-009  0.1108031E+03  0.7561462E-02  0.1259090E+00
         -2   -1    0    0    0  501 -0.00000000000E+00  0.00000000000E+00  0.50307348667E+02  0.50307348667E+02  0.00000000000E+00 0.  1.
          2   -1    0    0  501    0  0.00000000000E+00 -0.00000000000E+00 -0.25426741915E+03  0.25426741915E+03  0.00000000000E+00 0. -1.
         25    2    1    2    0    0  0.25764502918E+02  0.11019162497E+02 -0.13534378139E+03  0.18641436036E+03  0.12508854078E+03 0.  0.
          5    1    3    3  502    0 -0.55035300210E+01  0.64347145964E+02 -0.54841664724E+02  0.84828795973E+02  0.41800000000E+01 0. -1.
         -5    1    3    3    0  502  0.31268032939E+02 -0.53327983468E+02 -0.80502116663E+02  0.10158556439E+03  0.41800000000E+01 0. -1.
        -11    1    1    2    0    0 -0.58385854809E+02 -0.18901019679E+02 -0.34946277726E+02  0.70621518771E+02  0.00000000000E+00 0. -1.
         11    1    1    2    0    0  0.32621351891E+02  0.78818571822E+01 -0.33670011372E+02  0.47538888688E+02  0.00000000000E+00 0.  1.
</event>
<event>
 7    1  0.2564986E-009  0.2109755E+03  0.7561462E-02  0.1140796E+00
          1   -1    0    0  501    0  0.00000000000E+00  0.00000000000E+00  0.79973164736E+03  0.79973164736E+03  0.00000000000E+00 0. -1.
         -1   -1    0    0    0  501 -0.00000000000E+00 -0.00000000000E+00 -0.57539578046E+02  0.57539578046E+02  0.00000000000E+00 0.  1.
         25    2    1    2    0    0  0.13815429943E+03 -0.11695991975E+03  0.31551842906E+03  0.38466328738E+03  0.12509089616E+03 0.  0.
          5    1    3    3  502    0  0.12977521899E+03 -0.14197171373E+03  0.28768409147E+03  0.34608840468E+03  0.41800000000E+01 0.  1.
         -5    1    3    3    0  502  0.83790804383E+01  0.25011793974E+02  0.27834337586E+02  0.38574882704E+02  0.41800000000E+01 0.  1.
        -11    1    1    2    0    0 -0.36378673024E+02  0.90727417834E+02  0.19096671164E+03  0.21453008449E+03  0.00000000000E+00 0. -1.
         11    1    1    2    0    0 -0.10177562641E+03  0.26232501921E+02  0.23570692861E+03  0.25807785353E+03  0.00000000000E+00 0.  1.
</event>
<event>
 7    1  0.2564986E-009  0.1091055E+03  0.7561462E-02  0.1262235E+00
         -2   -1    0    0    0  501 -0.00000000000E+00  0.00000000000E+00  0.36345828824E+02  0.36345828824E+02  0.00000000000E+00 0.  1.
          2   -1    0    0  501    0  0.00000000000E+00 -0.00000000000E+00 -0.41175064370E+03  0.41175064370E+03  0.00000000000E+00 0. -1.
         25    2    1    2    0    0 -0.28982853212E+02 -0.94923805492E+01 -0.12686136076E+03  0.18075158677E+03  0.12508884921E+03 0.  0.
          5    1    3    3  502    0 -0.28407577159E+02 -0.65796385253E+02 -0.78870915243E+02  0.10665012154E+03  0.41800000000E+01 0.  1.
         -5    1    3    3    0  502 -0.57527605297E+00  0.56304004704E+02 -0.47990445518E+02  0.74101465230E+02  0.41800000000E+01 0.  1.
        -11    1    1    2    0    0 -0.27658177567E+02  0.17539385852E+02 -0.14877800978E+03  0.15234008348E+03  0.00000000000E+00 0. -1.
         11    1    1    2    0    0  0.56641030779E+02 -0.80470053031E+01 -0.99765444331E+02  0.11500480227E+03  0.00000000000E+00 0.  1.
</event>
<event>
 7    1  0.2564986E-009  0.8337072E+02  0.7561462E-02  0.1319749E+00
          1   -1    0    0  501    0  0.00000000000E+00  0.00000000000E+00  0.48300215085E+02  0.48300215085E+02  0.00000000000E+00 0. -1.
         -1   -1    0    0    0  501 -0.00000000000E+00 -0.00000000000E+00 -0.25826109603E+03  0.25826109603E+03  0.00000000000E+00 0.  1.
         25    2    1    2    0    0 -0.23039251979E+01  0.44463369608E+01 -0.14537855687E+03  0.19185007491E+03  0.12508576443E+03 0.  0.
          5    1    3    3  502    0 -0.60343818661E+02 -0.22803130578E+01 -0.10328888348E+03  0.11971901323E+03  0.41800000000E+01 0.  1.
         -5    1    3    3    0  502  0.58039893463E+02  0.67266500186E+01 -0.42089673385E+02  0.72131061681E+02  0.41800000000E+01 0.  1.
        -11    1    1    2    0    0  0.24069500568E+02  0.37791020309E+01  0.17108592156E+02  0.29771234360E+02  0.00000000000E+00 0. -1.
         11    1    1    2    0    0 -0.21765575371E+02 -0.82254389917E+01 -0.81690916235E+02  0.84940001843E+02  0.00000000000E+00 0.  1.
</event>
<event>
 7    1  0.2564986E-009  0.9150228E+02  0.7561462E-02  0.1299254E+00
         -2   -1    0    0    0  501 -0.00000000000E+00  0.00000000000E+00  0.38702401960E+02  0.38702401960E+02  0.00000000000E+00 0. -1.
          2   -1    0    0  501    0  0.00000000000E+00 -0.00000000000E+00 -0.35370160197E+03  0.35370160197E+03  0.00000000000E+00 0.  1.
         25    2    1    2    0    0  0.15503289975E+02  0.50474536338E+02 -0.20248177497E+03  0.24379564108E+03  0.12509762025E+03 0.  0.
          5    1    3    3  502    0 -0.95869584908E+01 -0.33350046659E+02 -0.17427920112E+02  0.39055603755E+02  0.41800000000E+01 0.  1.
         -5    1    3    3    0  502  0.25090248466E+02  0.83824582996E+02 -0.18505385486E+03  0.20474003732E+03  0.41800000000E+01 0.  1.
        -11    1    1    2    0    0 -0.13042824043E+02 -0.36210095979E+01  0.10381095908E+02  0.17058549815E+02  0.00000000000E+00 0. -1.
         11    1    1    2    0    0 -0.24604659318E+01 -0.46853526740E+02 -0.12289852094E+03  0.13154981304E+03  0.00000000000E+00 0.  1.
</event>
<event>
 7    1  0.2564986E-009  0.1624781E+03  0.7561462E-02  0.1185927E+00
          2   -1    0    0  501    0  0.00000000000E+00  0.00000000000E+00  0.27139758466E+03  0.27139758466E+03  0.00000000000E+00 0. -1.
         -2   -1    0    0    0  501 -0.00000000000E+00 -0.00000000000E+00 -0.14142234986E+03  0.14142234986E+03  0.00000000000E+00 0.  1.
         25    2    1    2    0    0 -0.68121141968E+02  0.14158622385E+03  0.19443688208E+02  0.20177401387E+03  0.12509015508E+03 0.  0.
          5    1    3    3  502    0 -0.28852527343E+02  0.88447409532E+02  0.71616806738E+02  0.11748128359E+03  0.41800000000E+01 0.  1.
         -5    1    3    3    0  502 -0.39268614625E+02  0.53138814315E+02 -0.52173118530E+02  0.84292730283E+02  0.41800000000E+01 0.  1.
        -11    1    1    2    0    0  0.65024397138E+02 -0.76244218846E+02  0.24839731800E+02  0.10323935977E+03  0.00000000000E+00 0.  1.
         11    1    1    2    0    0  0.30967448296E+01 -0.65342005001E+02  0.85691814786E+02  0.10780656087E+03  0.00000000000E+00 0. -1.
</event>
<event>
 7    1  0.2564986E-009  0.1381702E+03  0.7561462E-02  0.1215813E+00
         -1   -1    0    0    0  501 -0.00000000000E+00  0.00000000000E+00  0.54784624744E+03  0.54784624744E+03  0.00000000000E+00 0.  1.
          1   -1    0    0  501    0  0.00000000000E+00 -0.00000000000E+00 -0.38017187323E+02  0.38017187323E+02  0.00000000000E+00 0. -1.
         25    2    1    2    0    0  0.91599859337E+02 -0.56663286726E+01  0.22536280629E+03  0.27360097325E+03  0.12508579692E+03 0.  0.
          5    1    3    3  502    0  0.10298107221E+03  0.36971324967E+02  0.14346507478E+03  0.18047625933E+03  0.41800000000E+01 0. -1.
         -5    1    3    3    0  502 -0.11381212869E+02 -0.42637653640E+02  0.81897731516E+02  0.93124713915E+02  0.41800000000E+01 0. -1.
        -11    1    1    2    0    0 -0.63677929057E+02 -0.35400062544E+02  0.11925403614E+03  0.13974823152E+03  0.00000000000E+00 0.  1.
         11    1    1    2    0    0 -0.27921930280E+02  0.41066391216E+02  0.16521221769E+03  0.17251423000E+03  0.00000000000E+00 0. -1.
</event>
<event>
 7    1  0.2564986E-009  0.1305158E+03  0.7561462E-02  0.1226692E+00
          2   -1    0    0  501    0  0.00000000000E+00  0.00000000000E+00  0.20690007926E+02  0.20690007926E+02  0.00000000000E+00 0. -1.
         -2   -1    0    0    0  501 -0.00000000000E+00 -0.00000000000E+00 -0.11456452771E+04  0.11456452771E+04  0.00000000000E+00 0.  1.
         25    2    1    2    0    0  0.19499394602E+02  0.74232637681E+02 -0.90008120512E+03  0.91196768168E+03  0.12509262861E+03 0.  0.
          5    1    3    3  502    0  0.64930117414E+02  0.71392076728E+02 -0.49672360358E+03  0.50602822008E+03  0.41800000000E+01 0. -1.
         -5    1    3    3    0  502 -0.45430722813E+02  0.28405609532E+01 -0.40335760154E+03  0.40593946160E+03  0.41800000000E+01 0. -1.
        -11    1    1    2    0    0 -0.55826711942E+02 -0.38832314831E+02 -0.13530868690E+03  0.15143649227E+03  0.00000000000E+00 0.  1.
         11    1    1    2    0    0  0.36327317340E+02 -0.35400322850E+02 -0.89565377190E+02  0.10293111111E+03  0.00000000000E+00 0. -1.
</event>
<event>
 7    1  0.2564986E-009  0.1323638E+03  0.7561462E-02  0.1223990E+00
         -4   -1    0    0    0  501 -0.00000000000E+00  0.00000000000E+00  0.37989001043E+02  0.37989001043E+02  0.00000000000E+00 0.  1.
          4   -1    0    0  501    0  0.00000000000E+00 -0.00000000000E+00 -0.71560347970E+03  0.71560347970E+03  0.00000000000E+00 0. -1.
         25    2    1    2    0    0  0.73861813442E+01  0.91510509966E+02 -0.55079843403E+03  0.57223665346E+03  0.12508854273E+03 0.  0.
          5    1    3    3  502    0 -0.86282609821E+01 -0.22568909171E+02 -0.23098154460E+03  0.23227946292E+03  0.41800000000E+01 0.  1.
         -5    1    3    3    0  502  0.16014442326E+02  0.11407941914E+03 -0.31981688943E+03  0.33995719054E+03  0.41800000000E+01 0.  1.
        -11    1    1    2    0    0  0.36090214874E+02 -0.64026955247E+02 -0.49936862725E+02  0.88857441256E+02  0.00000000000E+00 0.  1.
         11    1    1    2    0    0 -0.43476396218E+02 -0.27483554719E+02 -0.76879181900E+02  0.92498386028E+02  0.00000000000E+00 0. -1.
</event>
<event>
 7    1  0.2564986E-009  0.1142932E+03  0.7561462E-02  0.1252820E+00
         -1   -1    0    0    0  501 -0.00000000000E+00  0.00000000000E+00  0.12487512367E+02  0.12487512367E+02  0.00000000000E+00 0.  1.
          1   -1    0    0  501    0  0.00000000000E+00 -0.00000000000E+00 -0.10779152985E+04  0.10779152985E+04  0.00000000000E+00 0. -1.
         25    2    1    2    0    0 -0.21514709219E+00 -0.40271976186E+02 -0.68631856710E+03  0.69878870153E+03  0.12510234005E+03 0.  0.
          5    1    3    3  502    0 -0.10136066443E+02  0.44516258547E+02 -0.25336885351E+03  0.25748336926E+03  0.41800000000E+01 0. -1.
         -5    1    3    3    0  502  0.99209193504E+01 -0.84788234733E+02 -0.43294971359E+03  0.44130533227E+03  0.41800000000E+01 0. -1.
        -11    1    1    2    0    0 -0.33748031904E+02  0.51436688030E+02 -0.21330518320E+03  0.22199946782E+03  0.00000000000E+00 0. -1.
         11    1    1    2    0    0  0.33963178997E+02 -0.11164711844E+02 -0.16580403581E+03  0.16961464150E+03  0.00000000000E+00 0.  1.
</event>
<event>
 7    1  0.2564986E-009  0.1446529E+03  0.7561462E-02  0.1207202E+00
         -2   -1    0    0    0  501 -0.00000000000E+00  0.00000000000E+00  0.54207845286E+03  0.54207845286E+03  0.00000000000E+00 0.  1.
          2   -1    0    0  501    0  0.00000000000E+00 -0.00000000000E+00 -0.57441154921E+02  0.57441154921E+02  0.00000000000E+00 0. -1.
         25    2    1    2    0    0  0.38642699505E+02  0.13176597739E+03  0.17928393063E+03  0.25815845332E+03  0.12509008040E+03 0.  0.
          5    1    3    3  502    0  0.32568083040E+02  0.24134612761E+02  0.13590024144E+03  0.14187849587E+03  0.41800000000E+01 0. -1.
         -5    1    3    3    0  502  0.60746164658E+01  0.10763136462E+03  0.43383689184E+02  0.11627995745E+03  0.41800000000E+01 0. -1.
        -11    1    1    2    0    0  0.35224402620E+01 -0.34238463490E+02  0.14479250519E+03  0.14882724726E+03  0.00000000000E+00 0.  1.
         11    1    1    2    0    0 -0.42165139767E+02 -0.97527513896E+02  0.16056086212E+03  0.19253390720E+03  0.00000000000E+00 0. -1.
</event>
<event>
 7    1  0.2564986E-009  0.8489499E+02  0.7561462E-02  0.1315707E+00
         -2   -1    0    0    0  501 -0.00000000000E+00  0.00000000000E+00  0.21174003361E+02  0.21174003361E+02  0.00000000000E+00 0.  1.
          2   -1    0    0  501    0  0.00000000000E+00 -0.00000000000E+00 -0.77171820240E+03  0.77171820240E+03  0.00000000000E+00 0. -1.
         25    2    1    2    0    0  0.33245446640E+02  0.40946004741E+02 -0.53445253008E+03  0.55142239802E+03  0.12508125002E+03 0.  0.
          5    1    3    3  502    0  0.27668692585E+02  0.46154036349E+02 -0.53893789743E+03  0.54163389971E+03  0.41800000000E+01 0. -1.
         -5    1    3    3    0  502  0.55767540555E+01 -0.52080316072E+01  0.44853673538E+01  0.97884983177E+01  0.41800000000E+01 0. -1.
        -11    1    1    2    0    0  0.25678788315E+02  0.11588615986E+02 -0.45820032919E+02  0.53788210664E+02  0.00000000000E+00 0.  1.
         11    1    1    2    0    0 -0.58924234955E+02 -0.52534620727E+02 -0.17027163604E+03  0.18768159707E+03  0.00000000000E+00 0. -1.
</event>
<event>
 7    1  0.2564986E-009  0.8466745E+02  0.7561462E-02  0.1316304E+00
         -1   -1    0    0    0  501 -0.00000000000E+00  0.00000000000E+00  0.63567322788E+02  0.63567322788E+02  0.00000000000E+00 0.  1.
          1   -1    0    0  501    0  0.00000000000E+00 -0.00000000000E+00 -0.32269633888E+03  0.32269633888E+03  0.00000000000E+00 0. -1.
         25    2    1    2    0    0 -0.30507809735E+02 -0.18089776534E+02 -0.25808917586E+03  0.28898671436E+03  0.12508130121E+03 0.  0.
          5    1    3    3  502    0  0.30493615895E+02 -0.33273943576E+02 -0.35270694152E+02  0.57432657934E+02  0.41800000000E+01 0.  1.
         -5    1    3    3    0  502 -0.61001425629E+02  0.15184167042E+02 -0.22281848171E+03  0.23155405643E+03  0.41800000000E+01 0.  1.
        -11    1    1    2    0    0  0.71387480986E+01 -0.17233170792E+02  0.36301043929E+02  0.40813106844E+02  0.00000000000E+00 0.  1.
         11    1    1    2    0    0  0.23369061636E+02  0.35322947325E+02 -0.37340884158E+02  0.56463840457E+02  0.00000000000E+00 0. -1.
</event>
<event>
 7    1  0.2564986E-009  0.1883150E+03  0.7561462E-02  0.1159990E+00
          1   -1    0    0  501    0  0.00000000000E+00  0.00000000000E+00  0.65333633200E+02  0.65333633200E+02  0.00000000000E+00 0. -1.
         -1   -1    0    0    0  501 -0.00000000000E+00 -0.00000000000E+00 -0.72897994121E+03  0.72897994121E+03  0.00000000000E+00 0.  1.
         25    2    1    2    0    0  0.88352943950E+02  0.13838871915E+03 -0.17251365368E+03  0.26900981449E+03  0.12509052440E+03 0.  0.
          5    1    3    3  502    0  0.77078464411E+02  0.16135512395E+03 -0.16095731305E+03  0.24062687864E+03  0.41800000000E+01 0.  1.
         -5    1    3    3    0  502  0.11274479539E+02 -0.22966404805E+02 -0.11556340628E+02  0.28382935846E+02  0.41800000000E+01 0.  1.
        -11    1    1    2    0    0 -0.61164197300E+02 -0.12952523994E+03 -0.46500908313E+03  0.48657095496E+03  0.00000000000E+00 0.  1.
         11    1    1    2    0    0 -0.27188746650E+02 -0.88634792117E+01 -0.26123571204E+02  0.38732804966E+02  0.00000000000E+00 0. -1.
</event>
<event>
 7    1  0.2564986E-009  0.1050692E+03  0.7561462E-02  0.1269983E+00
         -1   -1    0    0    0  501 -0.00000000000E+00  0.00000000000E+00  0.18336167801E+02  0.18336167801E+02  0.00000000000E+00 0.  1.
          1   -1    0    0  501    0  0.00000000000E+00 -0.00000000000E+00 -0.65424525972E+03  0.65424525972E+03  0.00000000000E+00 0. -1.
         25    2    1    2    0    0 -0.11256395360E+02 -0.10969769294E+02 -0.43212797310E+03  0.45013858056E+03  0.12507243621E+03 0.  0.
          5    1    3    3  502    0 -0.99793671085E+00  0.56965382577E+02 -0.20478592001E+03  0.21260478857E+03  0.41800000000E+01 0.  1.
         -5    1    3    3    0  502 -0.10258458649E+02 -0.67935151871E+02 -0.22734205309E+03  0.23753379199E+03  0.41800000000E+01 0.  1.
        -11    1    1    2    0    0 -0.26509798435E+02  0.31517962960E+02 -0.63204719191E+02  0.75438636853E+02  0.00000000000E+00 0.  1.
         11    1    1    2    0    0  0.37766193795E+02 -0.20548193666E+02 -0.14057639963E+03  0.14700421011E+03  0.00000000000E+00 0. -1.
</event>
<event>
 7    1  0.2564986E-009  0.1055610E+03  0.7561462E-02  0.1269018E+00
          1   -1    0    0  501    0  0.00000000000E+00  0.00000000000E+00  0.14086273311E+03  0.14086273311E+03  0.00000000000E+00 0. -1.
         -1   -1    0    0    0  501 -0.00000000000E+00 -0.00000000000E+00 -0.19105675796E+03  0.19105675796E+03  0.00000000000E+00 0.  1.
         25    2    1    2    0    0  0.41983304701E+02  0.42298305207E+02 -0.13473688192E+03  0.19327000224E+03  0.12509005524E+03 0.  0.
          5    1    3    3  502    0 -0.18469818386E+02  0.50668581843E+02 -0.11806455733E+03  0.12986589805E+03  0.41800000000E+01 0. -1.
         -5    1    3    3    0  502  0.60453123087E+02 -0.83702766359E+01 -0.16672324586E+02  0.63404104197E+02  0.41800000000E+01 0. -1.
        -11    1    1    2    0    0 -0.32095131077E+02 -0.64228535532E+02  0.27759386690E+02  0.76980424556E+02  0.00000000000E+00 0.  1.
         11    1    1    2    0    0 -0.98881736238E+01  0.21930230325E+02  0.56783470379E+02  0.61669064270E+02  0.00000000000E+00 0. -1.
</event>
<event>
 7    1  0.2564986E-009  0.2844712E+03  0.7561462E-02  0.1093272E+00
         -1   -1    0    0    0  501 -0.00000000000E+00  0.00000000000E+00  0.12133852184E+03  0.12133852184E+03  0.00000000000E+00 0.  1.
          1   -1    0    0  501    0  0.00000000000E+00 -0.00000000000E+00 -0.84433130840E+03  0.84433130840E+03  0.00000000000E+00 0. -1.
         25    2    1    2    0    0  0.17604188268E+03  0.21047666923E+03 -0.18183916049E+03  0.35214145662E+03  0.12508777894E+03 0.  0.
          5    1    3    3  502    0  0.14788357287E+03  0.13778156912E+03 -0.18495986930E+03  0.27400901001E+03  0.41800000000E+01 0.  1.
         -5    1    3    3    0  502  0.28158309811E+02  0.72695100106E+02  0.31207088128E+01  0.78132446617E+02  0.41800000000E+01 0.  1.
        -11    1    1    2    0    0 -0.93433167690E+01 -0.70260684704E+02 -0.14671159740E+03  0.16293604326E+03  0.00000000000E+00 0.  1.
         11    1    1    2    0    0 -0.16669856591E+03 -0.14021598452E+03 -0.39444202868E+03  0.45059233036E+03  0.00000000000E+00 0. -1.
</event>
<event>
 7    1  0.2564986E-009  0.1273981E+03  0.7561462E-02  0.1231368E+00
         -1   -1    0    0    0  501 -0.00000000000E+00  0.00000000000E+00  0.25546607814E+03  0.25546607814E+03  0.00000000000E+00 0.  1.
          1   -1    0    0  501    0  0.00000000000E+00 -0.00000000000E+00 -0.85660060936E+02  0.85660060936E+02  0.00000000000E+00 0. -1.
         25    2    1    2    0    0  0.93540383654E+02 -0.35457790026E+02  0.76419104681E+02  0.17746642544E+03  0.12508954533E+03 0.  0.
          5    1    3    3  502    0  0.96110860129E+02 -0.12528848533E+02  0.10335564940E+03  0.14175377294E+03  0.41800000000E+01 0. -1.
         -5    1    3    3    0  502 -0.25704764743E+01 -0.22928941493E+02 -0.26936544719E+02  0.35712652502E+02  0.41800000000E+01 0. -1.
        -11    1    1    2    0    0  0.10470421421E+02  0.28187595110E+02  0.23068666599E+02  0.37898992354E+02  0.00000000000E+00 0.  1.
         11    1    1    2    0    0 -0.10401080508E+03  0.72701949156E+01  0.70318245923E+02  0.12576072128E+03  0.00000000000E+00 0. -1.
</event>
<event>
 7    1  0.2564986E-009  0.8393078E+02  0.7561462E-02  0.1318253E+00
         -1   -1    0    0    0  501 -0.00000000000E+00  0.00000000000E+00  0.21311402269E+03  0.21311402269E+03  0.00000000000E+00 0.  1.
          1   -1    0    0  501    0  0.00000000000E+00 -0.00000000000E+00 -0.68597124774E+02  0.68597124774E+02  0.00000000000E+00 0. -1.
         25    2    1    2    0    0  0.18316640447E+02  0.36304846840E+02  0.64660495146E+02  0.14656714128E+03  0.12508959209E+03 0.  0.
          5    1    3    3  502    0  0.10294112487E+02 -0.44383667054E+02  0.42395458400E+02  0.62375683932E+02  0.41800000000E+01 0.  1.
         -5    1    3    3    0  502  0.80225279599E+01  0.80688513895E+02  0.22265036746E+02  0.84191457350E+02  0.41800000000E+01 0.  1.
        -11    1    1    2    0    0 -0.75602842771E+01 -0.19999007561E+02  0.10280652791E+03  0.10500619211E+03  0.00000000000E+00 0.  1.
         11    1    1    2    0    0 -0.10756356170E+02 -0.16305839279E+02 -0.22950125141E+02  0.30137814065E+02  0.00000000000E+00 0. -1.
</event>
<event>
 7    1  0.2564986E-009  0.7377009E+02  0.7561462E-02  0.1347722E+00
         -2   -1    0    0    0  501 -0.00000000000E+00  0.00000000000E+00  0.43946481997E+02  0.43946481997E+02  0.00000000000E+00 0.  1.
          2   -1    0    0  501    0  0.00000000000E+00 -0.00000000000E+00 -0.70768514857E+03  0.70768514857E+03  0.00000000000E+00 0. -1.
         25    2    1    2    0    0 -0.99633569039E+01 -0.50061675163E+00 -0.64835774893E+03  0.66039010941E+03  0.12509119439E+03 0.  0.
          5    1    3    3  502    0 -0.83542447328E+01 -0.35487033541E+02 -0.55809128273E+02  0.66792620499E+02  0.41800000000E+01 0. -1.
         -5    1    3    3    0  502 -0.16091121712E+01  0.34986416790E+02 -0.59254862065E+03  0.59359748891E+03  0.41800000000E+01 0. -1.
        -11    1    1    2    0    0 -0.18131275046E+02  0.29861641536E+02  0.17402113468E+02  0.39029403315E+02  0.00000000000E+00 0.  1.
         11    1    1    2    0    0  0.28094631950E+02 -0.29361024785E+02 -0.32783031119E+02  0.52212117848E+02  0.00000000000E+00 0. -1.
</event>
<event>
 7    1  0.2564986E-009  0.1461709E+03  0.7561462E-02  0.1205259E+00
          1   -1    0    0  501    0  0.00000000000E+00  0.00000000000E+00  0.18908284463E+03  0.18908284463E+03  0.00000000000E+00 0. -1.
         -1   -1    0    0    0  501 -0.00000000000E+00 -0.00000000000E+00 -0.13996740920E+03  0.13996740920E+03  0.00000000000E+00 0.  1.
         25    2    1    2    0    0  0.11658805981E+03 -0.12910820081E+02 -0.30861806925E+01  0.17151458775E+03  0.12509302272E+03 0.  0.
          5    1    3    3  502    0  0.47789071621E+02 -0.64709130012E+02 -0.21455182033E+02  0.83359847105E+02  0.41800000000E+01 0. -1.
         -5    1    3    3    0  502  0.68798988190E+02  0.51798309931E+02  0.18369001340E+02  0.88154740644E+02  0.41800000000E+01 0. -1.
        -11    1    1    2    0    0 -0.50695472370E+02 -0.16637900613E+02  0.65106862295E+02  0.84176921858E+02  0.00000000000E+00 0. -1.
         11    1    1    2    0    0 -0.65892587441E+02  0.29548720693E+02 -0.12905246172E+02  0.73358744216E+02  0.00000000000E+00 0.  1.
</event>
<event>
 7    1  0.2564986E-009  0.9029060E+02  0.7561462E-02  0.1302149E+00
         -2   -1    0    0    0  501 -0.00000000000E+00  0.00000000000E+00  0.12281930595E+03  0.12281930595E+03  0.00000000000E+00 0.  1.
          2   -1    0    0  501    0  0.00000000000E+00 -0.00000000000E+00 -0.11038426049E+03  0.11038426049E+03  0.00000000000E+00 0. -1.
         25    2    1    2    0    0  0.38151718611E+01 -0.22600114661E+02 -0.29764535613E+02  0.13060552732E+03  0.12508619215E+03 0.  0.
          5    1    3    3  502    0  0.39917474265E+02  0.63196801235E+01  0.33126534544E+02  0.52423113218E+02  0.41800000000E+01 0. -1.
         -5    1    3    3    0  502 -0.36102302404E+02 -0.28919794785E+02 -0.62891070157E+02  0.78182414101E+02  0.41800000000E+01 0. -1.
        -11    1    1    2    0    0  0.40330808289E+02 -0.61870677677E+01  0.17587018568E+02  0.44431488012E+02  0.00000000000E+00 0.  1.
         11    1    1    2    0    0 -0.44145980150E+02  0.28787182429E+02  0.24612562500E+02  0.58166551113E+02  0.00000000000E+00 0. -1.
</event>
<event>
 7    1  0.2564986E-009  0.7176203E+02  0.7561462E-02  0.1354202E+00
          4   -1    0    0  501    0  0.00000000000E+00  0.00000000000E+00  0.44831287584E+03  0.44831287584E+03  0.00000000000E+00 0.  1.
         -4   -1    0    0    0  501 -0.00000000000E+00 -0.00000000000E+00 -0.30933383429E+02  0.30933383429E+02  0.00000000000E+00 0. -1.
         25    2    1    2    0    0  0.12776680810E+02  0.11640488022E+02  0.33272823740E+03  0.35588467191E+03  0.12508826966E+03 0.  0.
          5    1    3    3  502    0 -0.33706011698E+02  0.27821725795E+02  0.28081419595E+03  0.28422566510E+03  0.41800000000E+01 0.  1.
         -5    1    3    3    0  502  0.46482692508E+02 -0.16181237773E+02  0.51914041450E+02  0.71659006819E+02  0.41800000000E+01 0.  1.
        -11    1    1    2    0    0  0.14854231333E+02 -0.16464319504E+02  0.91780178853E+02  0.94420989380E+02  0.00000000000E+00 0.  1.
         11    1    1    2    0    0 -0.27630912143E+02  0.48238314822E+01 -0.71289238431E+01  0.28940597975E+02  0.00000000000E+00 0. -1.
</event>
<event>
 7    1  0.2564986E-009  0.1011264E+03  0.7561462E-02  0.1277945E+00
         -1   -1    0    0    0  501 -0.00000000000E+00  0.00000000000E+00  0.49187739871E+02  0.49187739871E+02  0.00000000000E+00 0.  1.
          1   -1    0    0  501    0  0.00000000000E+00 -0.00000000000E+00 -0.44113523387E+03  0.44113523387E+03  0.00000000000E+00 0. -1.
         25    2    1    2    0    0 -0.53293697296E+02 -0.60422715816E+02 -0.31531554229E+03  0.34865555774E+03  0.12508270854E+03 0.  0.
          5    1    3    3  502    0  0.23973803565E+02 -0.25858314747E+02 -0.21234646740E+03  0.21529489152E+03  0.41800000000E+01 0. -1.
         -5    1    3    3    0  502 -0.77267500861E+02 -0.34564401069E+02 -0.10296907489E+03  0.13336066622E+03  0.41800000000E+01 0. -1.
        -11    1    1    2    0    0  0.25313580345E+02  0.40067603577E+02  0.99504156052E+01  0.48427275135E+02  0.00000000000E+00 0.  1.
         11    1    1    2    0    0  0.27980116951E+02  0.20355112240E+02 -0.86582367315E+02  0.93240140866E+02  0.00000000000E+00 0. -1.
</event>
<event>
 7    1  0.2564986E-009  0.1063061E+03  0.7561462E-02  0.1267567E+00
         -1   -1    0    0    0  501 -0.00000000000E+00  0.00000000000E+00  0.30613884778E+02  0.30613884778E+02  0.00000000000E+00 0.  1.
          1   -1    0    0  501    0  0.00000000000E+00 -0.00000000000E+00 -0.62090288800E+03  0.62090288800E+03  0.00000000000E+00 0. -1.
         25    2    1    2    0    0  0.46603941013E+02  0.17086164971E+01 -0.48601460574E+03  0.50401603579E+03  0.12508845128E+03 0.  0.
          5    1    3    3  502    0  0.71403660378E+02 -0.29289390008E+02 -0.18691815837E+03  0.20226769740E+03  0.41800000000E+01 0. -1.
         -5    1    3    3    0  502 -0.24799719365E+02  0.30998006505E+02 -0.29909644737E+03  0.30174833839E+03  0.41800000000E+01 0. -1.
        -11    1    1    2    0    0 -0.51155343241E+02 -0.34884654646E+02 -0.93838658731E+02  0.11242554045E+03  0.00000000000E+00 0. -1.
         11    1    1    2    0    0  0.45514022285E+01  0.33176038149E+02 -0.10435738746E+02  0.35075196546E+02  0.00000000000E+00 0.  1.
</event>
<event>
 7    1  0.2564986E-009  0.1538962E+03  0.7561462E-02  0.1195765E+00
          1   -1    0    0  501    0  0.00000000000E+00  0.00000000000E+00  0.39494934595E+03  0.39494934595E+03  0.00000000000E+00 0. -1.
         -1   -1    0    0    0  501 -0.00000000000E+00 -0.00000000000E+00 -0.70309571696E+02  0.70309571696E+02  0.00000000000E+00 0.  1.
         25    2    1    2    0    0  0.11514770797E+03 -0.96232015071E+00  0.99663766214E+02  0.19707984553E+03  0.12509068113E+03 0.  0.
          5    1    3    3  502    0  0.11429535136E+03  0.39847382172E+02  0.46066422214E+02  0.12957943072E+03  0.41800000000E+01 0. -1.
         -5    1    3    3    0  502  0.85235660575E+00 -0.40809702322E+02  0.53597343999E+02  0.67500414808E+02  0.41800000000E+01 0. -1.
        -11    1    1    2    0    0 -0.11095984020E+03 -0.29566238216E+02  0.18434210986E+03  0.21718255465E+03  0.00000000000E+00 0.  1.
         11    1    1    2    0    0 -0.41878677744E+01  0.30528558366E+02  0.40633898184E+02  0.50996517470E+02  0.00000000000E+00 0. -1.
</event>
<event>
 7    1  0.2564986E-009  0.1385564E+03  0.7561462E-02  0.1215285E+00
          1   -1    0    0  501    0  0.00000000000E+00  0.00000000000E+00  0.95527132442E+02  0.95527132442E+02  0.00000000000E+00 0. -1.
         -1   -1    0    0    0  501 -0.00000000000E+00 -0.00000000000E+00 -0.20516898529E+03  0.20516898529E+03  0.00000000000E+00 0.  1.
         25    2    1    2    0    0  0.53002213361E+02 -0.71052098169E+02 -0.50637421806E+02  0.16146051018E+03  0.12509081735E+03 0.  0.
          5    1    3    3  502    0 -0.29755334888E+02 -0.60430081877E+02 -0.88964823307E+01  0.68071980636E+02  0.41800000000E+01 0. -1.
         -5    1    3    3    0  502  0.82757548248E+02 -0.10622016292E+02 -0.41740939476E+02  0.93388529544E+02  0.41800000000E+01 0. -1.
        -11    1    1    2    0    0 -0.66860437828E+02  0.15238031430E+02 -0.30541004012E+02  0.75068426615E+02  0.00000000000E+00 0.  1.
         11    1    1    2    0    0  0.13858224467E+02  0.55814066738E+02 -0.28463427033E+02  0.64167180939E+02  0.00000000000E+00 0. -1.
</event>
<event>
 7    1  0.2564986E-009  0.1252706E+03  0.7561462E-02  0.1234647E+00
         -2   -1    0    0    0  501 -0.00000000000E+00  0.00000000000E+00  0.66819776406E+02  0.66819776406E+02  0.00000000000E+00 0.  1.
          2   -1    0    0  501    0  0.00000000000E+00 -0.00000000000E+00 -0.31746724827E+03  0.31746724827E+03  0.00000000000E+00 0. -1.
         25    2    1    2    0    0  0.15558476063E+02  0.92873382656E+02 -0.10299542803E+03  0.18741191928E+03  0.12509051886E+03 0.  0.
          5    1    3    3  502    0 -0.30309900090E+02  0.67257706358E+02 -0.24963325043E+01  0.73932355461E+02  0.41800000000E+01 0.  1.
         -5    1    3    3    0  502  0.45868376153E+02  0.25615676298E+02 -0.10049909553E+03  0.11347956382E+03  0.41800000000E+01 0.  1.
        -11    1    1    2    0    0 -0.33619146788E+02 -0.47017976920E+01 -0.16326824020E+02  0.37668542776E+02  0.00000000000E+00 0.  1.
         11    1    1    2    0    0  0.18060670725E+02 -0.88171584964E+02 -0.13132521981E+03  0.15920656261E+03  0.00000000000E+00 0. -1.
</event>
<event>
 7    1  0.2564986E-009  0.1228563E+03  0.7561462E-02  0.1238458E+00
          2   -1    0    0  501    0  0.00000000000E+00  0.00000000000E+00  0.77941192499E+03  0.77941192499E+03  0.00000000000E+00 0.  1.
         -2   -1    0    0    0  501 -0.00000000000E+00 -0.00000000000E+00 -0.20556285718E+02  0.20556285718E+02  0.00000000000E+00 0. -1.
         25    2    1    2    0    0 -0.55457166684E+02 -0.18334193004E+02  0.48088933411E+03  0.50031519829E+03  0.12509638685E+03 0.  0.
          5    1    3    3  502    0  0.22249194658E+02  0.33826773847E+02  0.20357159565E+03  0.20760092545E+03  0.41800000000E+01 0.  1.
         -5    1    3    3    0  502 -0.77706361342E+02 -0.52160966851E+02  0.27731773846E+03  0.29271427284E+03  0.41800000000E+01 0.  1.
        -11    1    1    2    0    0 -0.14696865535E+02  0.36083519166E+02  0.82984107517E+02  0.91675407348E+02  0.00000000000E+00 0. -1.
         11    1    1    2    0    0  0.70154032219E+02 -0.17749326162E+02  0.19498219764E+03  0.20797760507E+03  0.00000000000E+00 0.  1.
</event>
<event>
 7    1  0.2564986E-009  0.1674340E+03  0.7561462E-02  0.1180550E+00
         -2   -1    0    0    0  501 -0.00000000000E+00  0.00000000000E+00  0.36366650626E+02  0.36366650626E+02  0.00000000000E+00 0.  1.
          2   -1    0    0  501    0  0.00000000000E+00 -0.00000000000E+00 -0.85856269850E+03  0.85856269850E+03  0.00000000000E+00 0. -1.
         25    2    1    2    0    0 -0.13410587593E+03 -0.68698335526E+01 -0.52228451987E+03  0.55358794239E+03  0.12508760805E+03 0.  0.
          5    1    3    3  502    0 -0.13458271045E+03  0.36831708898E+02 -0.39388035077E+03  0.41788549132E+03  0.41800000000E+01 0.  1.
         -5    1    3    3    0  502  0.47683451607E+00 -0.43701542450E+02 -0.12840416910E+03  0.13570245107E+03  0.41800000000E+01 0.  1.
        -11    1    1    2    0    0 -0.13410295991E+01  0.15585583235E+02 -0.90155738583E+02  0.91502819436E+02  0.00000000000E+00 0. -1.
         11    1    1    2    0    0  0.13544690553E+03 -0.87157496828E+01 -0.20975578942E+03  0.24983858730E+03  0.00000000000E+00 0.  1.
</event>
<event>
 7    1  0.2564986E-009  0.8904786E+02  0.7561462E-02  0.1305174E+00
         -1   -1    0    0    0  501 -0.00000000000E+00  0.00000000000E+00  0.87762021881E+02  0.87762021881E+02  0.00000000000E+00 0.  1.
          1   -1    0    0  501    0  0.00000000000E+00 -0.00000000000E+00 -0.18747155250E+03  0.18747155250E+03  0.00000000000E+00 0. -1.
         25    2    1    2    0    0  0.42415662222E+02 -0.42874221526E+02 -0.24399075519E+02  0.14099293172E+03  0.12508558924E+03 0.  0.
          5    1    3    3  502    0  0.53574726280E+02 -0.20031582351E+02  0.41134726691E+02  0.70576580587E+02  0.41800000000E+01 0. -1.
         -5    1    3    3    0  502 -0.11159064058E+02 -0.22842639175E+02 -0.65533802210E+02  0.70416351135E+02  0.41800000000E+01 0. -1.
        -11    1    1    2    0    0  0.20770541182E+02  0.51806494142E+01 -0.53308693386E+02  0.57446247048E+02  0.00000000000E+00 0. -1.
         11    1    1    2    0    0 -0.63186203404E+02  0.37693572112E+02 -0.22001761719E+02  0.76794395615E+02  0.00000000000E+00 0.  1.
</event>
<event>
 7    1  0.2652375E-009  0.8387147E+02  0.7561462E-02  0.1318410E+00
         -1   -1    0    0    0  501 -0.00000000000E+00  0.00000000000E+00  0.14886782690E+02  0.14886782690E+02  0.00000000000E+00 0.  1.
          1   -1    0    0  501    0  0.00000000000E+00 -0.00000000000E+00 -0.91561373575E+03  0.91561373575E+03  0.00000000000E+00 0. -1.
         25    2    1    2    0    0 -0.52326267164E+01 -0.11917540938E+02 -0.66950883653E+03  0.68121862686E+03  0.12508927697E+03 0.  0.
          5    1    3    3  502    0  0.37848751786E+02 -0.17742278336E+02 -0.82429892281E+02  0.92517436161E+02  0.41800000000E+01 0.  1.
         -5    1    3    3    0  502 -0.43081378503E+02  0.58247373981E+01 -0.58707894425E+03  0.58870119069E+03  0.41800000000E+01 0.  1.
        -11    1    1    2    0    0 -0.37969844886E+02  0.47274653117E+01 -0.50649686772E+02  0.63477939625E+02  0.00000000000E+00 0.  1.
         11    1    1    2    0    0  0.43202471603E+02  0.71900756261E+01 -0.18056842975E+03  0.18580395196E+03  0.00000000000E+00 0. -1.
</event>
<event>
 7    1  0.2564986E-009  0.1660625E+03  0.7561462E-02  0.1182017E+00
          2   -1    0    0  501    0  0.00000000000E+00  0.00000000000E+00  0.65763010381E+03  0.65763010381E+03  0.00000000000E+00 0. -1.
         -2   -1    0    0    0  501 -0.00000000000E+00 -0.00000000000E+00 -0.59003323771E+02  0.59003323771E+02  0.00000000000E+00 0.  1.
         25    2    1    2    0    0 -0.12405821900E+03 -0.87551233203E+02  0.42882657832E+03  0.47180055277E+03  0.12509143531E+03 0.  0.
          5    1    3    3  502    0 -0.97996478867E+02 -0.88685418912E+02  0.42501133170E+03  0.44510731051E+03  0.41800000000E+01 0. -1.
         -5    1    3    3    0  502 -0.26061740129E+02  0.11341857092E+01  0.38152466222E+01  0.26693242264E+02  0.41800000000E+01 0. -1.
        -11    1    1    2    0    0  0.38965187804E+02 -0.13616520639E+02  0.22878126584E+02  0.47192204556E+02  0.00000000000E+00 0.  1.
         11    1    1    2    0    0  0.85093031192E+02  0.10116775384E+03  0.14692207514E+03  0.19764067025E+03  0.00000000000E+00 0. -1.
</event>
<event>
 7    1  0.2564986E-009  0.1051246E+03  0.7561462E-02  0.1269874E+00
          1   -1    0    0  501    0  0.00000000000E+00  0.00000000000E+00  0.42700038438E+03  0.42700038438E+03  0.00000000000E+00 0. -1.
         -1   -1    0    0    0  501 -0.00000000000E+00 -0.00000000000E+00 -0.50535463787E+02  0.50535463787E+02  0.00000000000E+00 0.  1.
         25    2    1    2    0    0  0.32353098341E+02 -0.74062413964E+02  0.10882950174E+03  0.18445349982E+03  0.12508904433E+03 0.  0.
          5    1    3    3  502    0  0.11520867006E+02  0.52070909160E+01 -0.24503447434E+02  0.27887909720E+02  0.41800000000E+01 0.  1.
         -5    1    3    3    0  502  0.20832231336E+02 -0.79269504880E+02  0.13333294918E+03  0.15656559010E+03  0.41800000000E+01 0.  1.
        -11    1    1    2    0    0 -0.35861955467E+02 -0.45724787046E+01  0.12554237042E+03  0.13064407442E+03  0.00000000000E+00 0. -1.
         11    1    1    2    0    0  0.35088571257E+01  0.78634892669E+02  0.14209304843E+03  0.16243827393E+03  0.00000000000E+00 0.  1.
</event>
<event>
 7    1  0.2564986E-009  0.1005581E+03  0.7561462E-02  0.1279127E+00
          2   -1    0    0  501    0  0.00000000000E+00  0.00000000000E+00  0.75972567909E+02  0.75972567909E+02  0.00000000000E+00 0. -1.
         -2   -1    0    0    0  501 -0.00000000000E+00 -0.00000000000E+00 -0.22071447863E+03  0.22071447863E+03  0.00000000000E+00 0.  1.
         25    2    1    2    0    0 -0.47097953259E+02  0.39476963073E+02 -0.40471582241E+02  0.14513029455E+03  0.12509278802E+03 0.  0.
          5    1    3    3  502    0 -0.71014213398E+01 -0.18790865195E+02  0.35675898753E+02  0.41155424329E+02  0.41800000000E+01 0.  1.
         -5    1    3    3    0  502 -0.39996531919E+02  0.58267828268E+02 -0.76147480994E+02  0.10397487023E+03  0.41800000000E+01 0.  1.
        -11    1    1    2    0    0  0.89204130709E+01  0.29578256543E+02 -0.25442125312E+02  0.40021853654E+02  0.00000000000E+00 0. -1.
         11    1    1    2    0    0  0.38177540188E+02 -0.69055219617E+02 -0.78828203170E+02  0.11153489833E+03  0.00000000000E+00 0.  1.
</event>
<event>
 7    1  0.2564986E-009  0.1258412E+03  0.7561462E-02  0.1233760E+00
          1   -1    0    0  501    0  0.00000000000E+00  0.00000000000E+00  0.21658973575E+03  0.21658973575E+03  0.00000000000E+00 0. -1.
         -1   -1    0    0    0  501 -0.00000000000E+00 -0.00000000000E+00 -0.99468440650E+02  0.99468440650E+02  0.00000000000E+00 0.  1.
         25    2    1    2    0    0  0.90127232939E+02 -0.38171698186E+02  0.74223735564E+02  0.17532253796E+03  0.12509529461E+03 0.  0.
          5    1    3    3  502    0  0.68027799393E+02  0.82190294160E+01  0.97102332702E+02  0.11891875105E+03  0.41800000000E+01 0. -1.
         -5    1    3    3    0  502  0.22099433547E+02 -0.46390727602E+02 -0.22878597138E+02  0.56403786908E+02  0.41800000000E+01 0. -1.
        -11    1    1    2    0    0 -0.95903930663E+02  0.57148841062E+02  0.25882983554E+02  0.11460140832E+03  0.00000000000E+00 0.  1.
         11    1    1    2    0    0  0.57766977242E+01 -0.18977142876E+02  0.17014575985E+02  0.26134230126E+02  0.00000000000E+00 0. -1.
</event>
<event>
 7    1  0.2564986E-009  0.8057264E+02  0.7561462E-02  0.1327434E+00
          1   -1    0    0  501    0  0.00000000000E+00  0.00000000000E+00  0.41513251325E+02  0.41513251325E+02  0.00000000000E+00 0. -1.
         -1   -1    0    0    0  501 -0.00000000000E+00 -0.00000000000E+00 -0.42422823983E+03  0.42422823983E+03  0.00000000000E+00 0.  1.
         25    2    1    2    0    0  0.42330188508E+02 -0.51875114388E+02 -0.27486767325E+03  0.30932643268E+03  0.12509089417E+03 0.  0.
          5    1    3    3  502    0  0.33999191323E+02 -0.66379759130E+02 -0.65789802259E+02  0.99538876395E+02  0.41800000000E+01 0. -1.
         -5    1    3    3    0  502  0.83309971850E+01  0.14504644742E+02 -0.20907787100E+03  0.20978755629E+03  0.41800000000E+01 0. -1.
        -11    1    1    2    0    0 -0.19341003327E+02  0.10842441244E+02  0.13714496599E+02  0.26071447194E+02  0.00000000000E+00 0. -1.
         11    1    1    2    0    0 -0.22989185181E+02  0.41032673145E+02 -0.12156181185E+03  0.13034361128E+03  0.00000000000E+00 0.  1.
</event>
<event>
 7    1  0.2564986E-009  0.1694375E+03  0.7561462E-02  0.1178436E+00
         -2   -1    0    0    0  501 -0.00000000000E+00  0.00000000000E+00  0.11613969545E+03  0.11613969545E+03  0.00000000000E+00 0.  1.
          2   -1    0    0  501    0  0.00000000000E+00 -0.00000000000E+00 -0.26518114460E+03  0.26518114460E+03  0.00000000000E+00 0. -1.
         25    2    1    2    0    0 -0.94255800371E+02  0.99955064660E+02 -0.86593219478E+02  0.20499172943E+03  0.12509217649E+03 0.  0.
          5    1    3    3  502    0 -0.66684191825E+02 -0.14184561509E+02 -0.32416199471E+02  0.75605989265E+02  0.41800000000E+01 0.  1.
         -5    1    3    3    0  502 -0.27571608545E+02  0.11413962617E+03 -0.54177020008E+02  0.12938574016E+03  0.41800000000E+01 0.  1.
        -11    1    1    2    0    0  0.63879379142E+02 -0.10438140613E+03 -0.20086281434E+02  0.12401415938E+03  0.00000000000E+00 0.  1.
         11    1    1    2    0    0  0.30376421229E+02  0.44263414697E+01 -0.42361948233E+02  0.52314951243E+02  0.00000000000E+00 0. -1.
</event>
<event>
 7    1  0.2564986E-009  0.1828929E+03  0.7561462E-02  0.1165032E+00
          1   -1    0    0  501    0  0.00000000000E+00  0.00000000000E+00  0.29642225532E+03  0.29642225532E+03  0.00000000000E+00 0. -1.
         -1   -1    0    0    0  501 -0.00000000000E+00 -0.00000000000E+00 -0.13210576918E+03  0.13210576918E+03  0.00000000000E+00 0.  1.
         25    2    1    2    0    0  0.10180340230E+03 -0.10929118037E+03  0.16353637898E+03  0.25436170498E+03  0.12508890793E+03 0.  0.
          5    1    3    3  502    0 -0.13221396116E+02 -0.68157996755E+02  0.38464529689E+02  0.79481509052E+02  0.41800000000E+01 0.  1.
         -5    1    3    3    0  502  0.11502479841E+03 -0.41133183611E+02  0.12507184929E+03  0.17488019593E+03  0.41800000000E+01 0.  1.
        -11    1    1    2    0    0 -0.70031207883E+02  0.12127658719E+03  0.36120431955E+01  0.14009078318E+03  0.00000000000E+00 0.  1.
         11    1    1    2    0    0 -0.31772194413E+02 -0.11985406820E+02 -0.28319360311E+01  0.34075536329E+02  0.00000000000E+00 0. -1.
</event>
<event>
 7    1  0.2564986E-009  0.1078321E+03  0.7561462E-02  0.1264638E+00
          1   -1    0    0  501    0  0.00000000000E+00  0.00000000000E+00  0.32246174398E+03  0.32246174398E+03  0.00000000000E+00 0. -1.
         -1   -1    0    0    0  501 -0.00000000000E+00 -0.00000000000E+00 -0.51651367221E+02  0.51651367221E+02  0.00000000000E+00 0.  1.
         25    2    1    2    0    0  0.12652946609E+02 -0.70884183021E+02  0.14430343301E+03  0.20409803184E+03  0.12509141202E+03 0.  0.
          5    1    3    3  502    0  0.48188296873E+02  0.82508613134E+01  0.21221905941E+02  0.53460549564E+02  0.41800000000E+01 0. -1.
         -5    1    3    3    0  502 -0.35535350264E+02 -0.79135044334E+02  0.12308152707E+03  0.15063748227E+03  0.41800000000E+01 0. -1.
        -11    1    1    2    0    0 -0.18410733132E+02  0.15503280589E+02 -0.72458364267E+01  0.25135810093E+02  0.00000000000E+00 0.  1.
         11    1    1    2    0    0  0.57577865234E+01  0.55380902432E+02  0.13375278017E+03  0.14487926927E+03  0.00000000000E+00 0. -1.
</event>
<event>
 7    1  0.2906990E-009  0.8132465E+02  0.7561462E-02  0.1325334E+00
          1   -1    0    0  501    0  0.00000000000E+00  0.00000000000E+00  0.33641739911E+03  0.33641739911E+03  0.00000000000E+00 0. -1.
         -1   -1    0    0    0  501 -0.00000000000E+00 -0.00000000000E+00 -0.48364856105E+02  0.48364856105E+02  0.00000000000E+00 0.  1.
         25    2    1    2    0    0  0.42424591101E+02 -0.29179153668E+02  0.95256502622E+02  0.16544240614E+03  0.12508444955E+03 0.  0.
          5    1    3    3  502    0  0.42822246380E+02 -0.17264845637E+02  0.12489620671E+03  0.13322295046E+03  0.41800000000E+01 0. -1.
         -5    1    3    3    0  502 -0.39765527913E+00 -0.11914308031E+02 -0.29639704087E+02  0.32219455674E+02  0.41800000000E+01 0. -1.
        -11    1    1    2    0    0 -0.63787211123E+02 -0.43111396262E+01  0.10426509680E+03  0.12230537452E+03  0.00000000000E+00 0. -1.
         11    1    1    2    0    0  0.21362620022E+02  0.33490293294E+02  0.88530943588E+02  0.97034474553E+02  0.00000000000E+00 0.  1.
</event>
<event>
 7    1  0.2564986E-009  0.9063625E+02  0.7561462E-02  0.1301318E+00
          2   -1    0    0  501    0  0.00000000000E+00  0.00000000000E+00  0.12790851663E+03  0.12790851663E+03  0.00000000000E+00 0. -1.
         -2   -1    0    0    0  501 -0.00000000000E+00 -0.00000000000E+00 -0.11555766604E+03  0.11555766604E+03  0.00000000000E+00 0.  1.
         25    2    1    2    0    0 -0.14307942630E+01 -0.37165314501E+02  0.47925740027E+02  0.13901415924E+03  0.12507898360E+03 0.  0.
          5    1    3    3  502    0  0.33881875664E+02  0.26644942976E+02 -0.11544138693E+02  0.44818233152E+02  0.41800000000E+01 0. -1.
         -5    1    3    3    0  502 -0.35312669927E+02 -0.63810257477E+02  0.59469878720E+02  0.94195926088E+02  0.41800000000E+01 0. -1.
        -11    1    1    2    0    0 -0.25891514189E+02  0.17395838706E+02 -0.56659913324E+02  0.64678678783E+02  0.00000000000E+00 0.  1.
         11    1    1    2    0    0  0.27322308452E+02  0.19769475795E+02  0.21085023883E+02  0.39773344648E+02  0.00000000000E+00 0. -1.
</event>
<event>
 7    1  0.2564986E-009  0.6534239E+02  0.7561462E-02  0.1376688E+00
         -2   -1    0    0    0  501 -0.00000000000E+00  0.00000000000E+00  0.76017665582E+02  0.76017665582E+02  0.00000000000E+00 0.  1.
          2   -1    0    0  501    0  0.00000000000E+00 -0.00000000000E+00 -0.19986301405E+03  0.19986301405E+03  0.00000000000E+00 0. -1.
         25    2    1    2    0    0 -0.24581349724E+02 -0.49816516829E+02 -0.46083447434E+02  0.14442718916E+03  0.12509836425E+03 0.  0.
          5    1    3    3  502    0  0.12269809366E+02 -0.26397725003E+02  0.38915682286E+02  0.48777974896E+02  0.41800000000E+01 0. -1.
         -5    1    3    3    0  502 -0.36851159090E+02 -0.23418791826E+02 -0.84999129719E+02  0.95649214267E+02  0.41800000000E+01 0. -1.
        -11    1    1    2    0    0  0.76329301281E+01  0.31697279106E+02  0.14668519481E+02  0.35751148077E+02  0.00000000000E+00 0.  1.
         11    1    1    2    0    0  0.16948419596E+02  0.18119237723E+02 -0.92430420516E+02  0.95702342391E+02  0.00000000000E+00 0. -1.
</event>
<event>
 7    1  0.2599771E-009  0.7192060E+02  0.7561462E-02  0.1353681E+00
         -1   -1    0    0    0  501 -0.00000000000E+00  0.00000000000E+00  0.13471227288E+03  0.13471227288E+03  0.00000000000E+00 0.  1.
          1   -1    0    0  501    0  0.00000000000E+00 -0.00000000000E+00 -0.11234674499E+03  0.11234674499E+03  0.00000000000E+00 0. -1.
         25    2    1    2    0    0 -0.24292596540E+02  0.34506245282E+01  0.65330275256E+02  0.14324941669E+03  0.12510121287E+03 0.  0.
          5    1    3    3  502    0 -0.32396996518E+02 -0.26026982177E+02 -0.24393511597E+02  0.48368222964E+02  0.41800000000E+01 0. -1.
         -5    1    3    3    0  502  0.81043999779E+01  0.29477606705E+02  0.89723786854E+02  0.94881193729E+02  0.41800000000E+01 0. -1.
        -11    1    1    2    0    0  0.37619965107E+02  0.21210177672E+02  0.95966013238E+01  0.44240571521E+02  0.00000000000E+00 0.  1.
         11    1    1    2    0    0 -0.13327368567E+02 -0.24660802200E+02 -0.52561348691E+02  0.59569029657E+02  0.00000000000E+00 0. -1.
</event>
<event>
 7    1  0.2564986E-009  0.7632193E+02  0.7561462E-02  0.1339826E+00
          2   -1    0    0  501    0  0.00000000000E+00  0.00000000000E+00  0.14484208191E+03  0.14484208191E+03  0.00000000000E+00 0. -1.
         -2   -1    0    0    0  501 -0.00000000000E+00 -0.00000000000E+00 -0.11282510285E+03  0.11282510285E+03  0.00000000000E+00 0.  1.
         25    2    1    2    0    0 -0.60254594245E+02 -0.27663213225E+02  0.32914595522E+02  0.14534948561E+03  0.12508889989E+03 0.  0.
          5    1    3    3  502    0 -0.30551125620E+02 -0.93037060582E+01  0.80196249293E+02  0.86422456710E+02  0.41800000000E+01 0.  1.
         -5    1    3    3    0  502 -0.29703468625E+02 -0.18359507166E+02 -0.47281653772E+02  0.58927028901E+02  0.41800000000E+01 0.  1.
        -11    1    1    2    0    0  0.24067443564E+02  0.40297142005E+02  0.35970415788E+02  0.59135203605E+02  0.00000000000E+00 0. -1.
         11    1    1    2    0    0  0.36187150681E+02 -0.12633928780E+02 -0.36868032244E+02  0.53182495545E+02  0.00000000000E+00 0.  1.
</event>
<event>
 7    1  0.2564986E-009  0.8956496E+02  0.7561462E-02  0.1303909E+00
          2   -1    0    0  501    0  0.00000000000E+00  0.00000000000E+00  0.60527492312E+03  0.60527492312E+03  0.00000000000E+00 0. -1.
         -2   -1    0    0    0  501 -0.00000000000E+00 -0.00000000000E+00 -0.20439092460E+02  0.20439092460E+02  0.00000000000E+00 0.  1.
         25    2    1    2    0    0 -0.19740748771E+02 -0.37757664793E+01  0.32482238746E+03  0.34865613400E+03  0.12509021867E+03 0.  0.
          5    1    3    3  502    0  0.16039392814E+02  0.41869857900E+02  0.24933805024E+03  0.25337182720E+03  0.41800000000E+01 0. -1.
         -5    1    3    3    0  502 -0.35780141585E+02 -0.45645624379E+02  0.75484337221E+02  0.95284306800E+02  0.41800000000E+01 0. -1.
        -11    1    1    2    0    0  0.47506053038E+02 -0.21700608171E+01  0.23321437665E+03  0.23801361246E+03  0.00000000000E+00 0. -1.
         11    1    1    2    0    0 -0.27765304267E+02  0.59458272964E+01  0.26799066555E+02  0.39044269125E+02  0.00000000000E+00 0.  1.
</event>
<event>
 7    1  0.2564986E-009  0.8147441E+02  0.7561462E-02  0.1324919E+00
          2   -1    0    0  501    0  0.00000000000E+00  0.00000000000E+00  0.82992884107E+03  0.82992884107E+03  0.00000000000E+00 0.  1.
         -2   -1    0    0    0  501 -0.00000000000E+00 -0.00000000000E+00 -0.15442302874E+02  0.15442302874E+02  0.00000000000E+00 0. -1.
         25    2    1    2    0    0  0.30260769999E+02  0.68742906001E+01  0.41862027320E+03  0.43800977028E+03  0.12508659262E+03 0.  0.
          5    1    3    3  502    0  0.14003763308E+02  0.32875009148E+02  0.26532653866E+02  0.44702636773E+02  0.41800000000E+01 0.  1.
         -5    1    3    3    0  502  0.16257006691E+02 -0.26000718548E+02  0.39208761934E+03  0.39330713351E+03  0.41800000000E+01 0.  1.
        -11    1    1    2    0    0  0.32663564281E+02 -0.52151913887E+01  0.14362276467E+03  0.14738251316E+03  0.00000000000E+00 0.  1.
         11    1    1    2    0    0 -0.62924334280E+02 -0.16590992114E+01  0.25224350032E+03  0.25997886051E+03  0.00000000000E+00 0. -1.
</event>
<event>
 7    1  0.2564986E-009  0.7910239E+02  0.7561462E-02  0.1331618E+00
          2   -1    0    0  501    0  0.00000000000E+00  0.00000000000E+00  0.16367629125E+03  0.16367629125E+03  0.00000000000E+00 0. -1.
         -2   -1    0    0    0  501 -0.00000000000E+00 -0.00000000000E+00 -0.80611688607E+02  0.80611688607E+02  0.00000000000E+00 0.  1.
         25    2    1    2    0    0  0.26839835972E+02 -0.23449239985E+02  0.37214163491E+02  0.13528765398E+03  0.12509041412E+03 0.  0.
          5    1    3    3  502    0  0.59743947508E+02 -0.27723109425E+02  0.64384007616E+02  0.92199148026E+02  0.41800000000E+01 0. -1.
         -5    1    3    3    0  502 -0.32904111535E+02  0.42738694400E+01 -0.27169844125E+02  0.43088505958E+02  0.41800000000E+01 0. -1.
        -11    1    1    2    0    0 -0.49844854472E+01 -0.14301862319E+02  0.60977860837E+02  0.62830628464E+02  0.00000000000E+00 0. -1.
         11    1    1    2    0    0 -0.21855350525E+02  0.37751102304E+02 -0.15127421687E+02  0.46169697406E+02  0.00000000000E+00 0.  1.
</event>
<event>
 7    1  0.2564986E-009  0.1402586E+03  0.7561462E-02  0.1212981E+00
          2   -1    0    0  501    0  0.00000000000E+00  0.00000000000E+00  0.68180518839E+03  0.68180518839E+03  0.00000000000E+00 0. -1.
         -2   -1    0    0    0  501 -0.00000000000E+00 -0.00000000000E+00 -0.49107447043E+02  0.49107447043E+02  0.00000000000E+00 0.  1.
         25    2    1    2    0    0  0.11113314468E+03  0.19749437797E+02  0.52208211275E+03  0.54859239147E+03  0.12507303222E+03 0.  0.
          5    1    3    3  502    0  0.13717304002E+03  0.23542156973E+02  0.39718621737E+03  0.42088601751E+03  0.41800000000E+01 0. -1.
         -5    1    3    3    0  502 -0.26039895347E+02 -0.37927191762E+01  0.12489589537E+03  0.12770637396E+03  0.41800000000E+01 0. -1.
        -11    1    1    2    0    0 -0.98733108086E+02 -0.23846316727E+02  0.12619332281E+03  0.16199267939E+03  0.00000000000E+00 0. -1.
         11    1    1    2    0    0 -0.12400036590E+02  0.40968789300E+01 -0.15577694214E+02  0.20327564572E+02  0.00000000000E+00 0.  1.
</event>
<event>
 7    1  0.2564986E-009  0.2439903E+03  0.7561462E-02  0.1117163E+00
         -1   -1    0    0    0  501 -0.00000000000E+00  0.00000000000E+00  0.52426450577E+03  0.52426450577E+03  0.00000000000E+00 0.  1.
          1   -1    0    0  501    0  0.00000000000E+00 -0.00000000000E+00 -0.17202219764E+03  0.17202219764E+03  0.00000000000E+00 0. -1.
         25    2    1    2    0    0  0.58676933066E+02 -0.22173836924E+03 -0.71584545007E+01  0.26135991093E+03  0.12508746021E+03 0.  0.
          5    1    3    3  502    0 -0.30694450009E+02 -0.18917414063E+02 -0.15631899881E+02  0.39520203822E+02  0.41800000000E+01 0. -1.
         -5    1    3    3    0  502  0.89371383075E+02 -0.20282095518E+03  0.84734453807E+01  0.22183970710E+03  0.41800000000E+01 0. -1.
        -11    1    1    2    0    0 -0.13598476325E+02  0.83581609185E+02  0.65489090383E+02  0.10704963761E+03  0.00000000000E+00 0. -1.
         11    1    1    2    0    0 -0.45078456741E+02  0.13815676005E+03  0.29391167224E+03  0.32787715488E+03  0.00000000000E+00 0.  1.
</event>
<event>
 7    1  0.2564986E-009  0.1372530E+03  0.7561462E-02  0.1217074E+00
         -3   -1    0    0    0  501 -0.00000000000E+00  0.00000000000E+00  0.93066322140E+02  0.93066322140E+02  0.00000000000E+00 0.  1.
          3   -1    0    0  501    0  0.00000000000E+00 -0.00000000000E+00 -0.23904586654E+03  0.23904586654E+03  0.00000000000E+00 0. -1.
         25    2    1    2    0    0 -0.90393388032E+02  0.43919282612E+02 -0.97325390654E+02  0.18767066362E+03  0.12509267897E+03 0.  0.
          5    1    3    3  502    0 -0.10256053474E+02  0.62986692338E+02 -0.54214659442E+01  0.64182355344E+02  0.41800000000E+01 0. -1.
         -5    1    3    3    0  502 -0.80137334558E+02 -0.19067409726E+02 -0.91903924709E+02  0.12348830828E+03  0.41800000000E+01 0. -1.
        -11    1    1    2    0    0  0.91622273016E+02 -0.61564227384E+02 -0.57721087650E+02  0.12456532008E+03  0.00000000000E+00 0. -1.
         11    1    1    2    0    0 -0.12288849839E+01  0.17644944772E+02  0.90669339007E+01  0.19876204987E+02  0.00000000000E+00 0.  1.
</event>
<event>
 7    1  0.2564986E-009  0.8638909E+02  0.7561462E-02  0.1311839E+00
         -1   -1    0    0    0  501 -0.00000000000E+00  0.00000000000E+00  0.53377117738E+02  0.53377117738E+02  0.00000000000E+00 0.  1.
          1   -1    0    0  501    0  0.00000000000E+00 -0.00000000000E+00 -0.36085803281E+03  0.36085803281E+03  0.00000000000E+00 0. -1.
         25    2    1    2    0    0 -0.37962334947E+02 -0.27932065198E+02 -0.28286027152E+03  0.31285621708E+03  0.12509092783E+03 0.  0.
          5    1    3    3  502    0 -0.22951244783E+02  0.15716638813E+02 -0.25938048415E+03  0.26090128465E+03  0.41800000000E+01 0.  1.
         -5    1    3    3    0  502 -0.15011090164E+02 -0.43648704011E+02 -0.23479787365E+02  0.51954932436E+02  0.41800000000E+01 0.  1.
        -11    1    1    2    0    0  0.36717416629E+02  0.57763224108E+02 -0.15785491939E+02  0.70242013774E+02  0.00000000000E+00 0.  1.
         11    1    1    2    0    0  0.12449183175E+01 -0.29831158910E+02 -0.88351516144E+01  0.31136919687E+02  0.00000000000E+00 0. -1.
</event>
<event>
 7    1  0.2564986E-009  0.1209402E+03  0.7561462E-02  0.1241554E+00
         -3   -1    0    0    0  501 -0.00000000000E+00  0.00000000000E+00  0.56096585544E+03  0.56096585544E+03  0.00000000000E+00 0.  1.
          3   -1    0    0  501    0  0.00000000000E+00 -0.00000000000E+00 -0.36310092420E+02  0.36310092420E+02  0.00000000000E+00 0. -1.
         25    2    1    2    0    0  0.59086511480E+02  0.53414710704E+02  0.39996369771E+03  0.42657093926E+03  0.12508980603E+03 0.  0.
          5    1    3    3  502    0  0.20532145470E+02 -0.34780922281E+02  0.20638774722E+03  0.21034413744E+03  0.41800000000E+01 0.  1.
         -5    1    3    3    0  502  0.38554366011E+02  0.88195632985E+02  0.19357595049E+03  0.21622680182E+03  0.41800000000E+01 0.  1.
        -11    1    1    2    0    0 -0.55294957314E+01 -0.51021160915E+02  0.98434949156E+02  0.11100978966E+03  0.00000000000E+00 0. -1.
         11    1    1    2    0    0 -0.53557015749E+02 -0.23935497889E+01  0.26257116153E+02  0.59695218948E+02  0.00000000000E+00 0.  1.
</event>
<event>
 7    1  0.2564986E-009  0.1092317E+03  0.7561462E-02  0.1261999E+00
          2   -1    0    0  501    0  0.00000000000E+00  0.00000000000E+00  0.20500330456E+03  0.20500330456E+03  0.00000000000E+00 0. -1.
         -2   -1    0    0    0  501 -0.00000000000E+00 -0.00000000000E+00 -0.11130258009E+03  0.11130258009E+03  0.00000000000E+00 0.  1.
         25    2    1    2    0    0 -0.23355772878E+02 -0.10209653542E+03  0.73647584886E+02  0.17900097010E+03  0.12509270908E+03 0.  0.
          5    1    3    3  502    0 -0.45335157954E+01 -0.39621193206E+02  0.10058764474E+03  0.10828544866E+03  0.41800000000E+01 0. -1.
         -5    1    3    3    0  502 -0.18822257083E+02 -0.62475342218E+02 -0.26940059859E+02  0.70715521437E+02  0.41800000000E+01 0. -1.
        -11    1    1    2    0    0 -0.32218879486E+01  0.74852548448E+02  0.48969392460E+02  0.89505787349E+02  0.00000000000E+00 0. -1.
         11    1    1    2    0    0  0.26577660827E+02  0.27243986976E+02 -0.28916252878E+02  0.47799127208E+02  0.00000000000E+00 0.  1.
</event>
<event>
 7    1  0.2564986E-009  0.1157335E+03  0.7561462E-02  0.1250306E+00
         -3   -1    0    0    0  501 -0.00000000000E+00  0.00000000000E+00  0.21538451676E+03  0.21538451676E+03  0.00000000000E+00 0.  1.
          3   -1    0    0  501    0  0.00000000000E+00 -0.00000000000E+00 -0.90242520371E+02  0.90242520371E+02  0.00000000000E+00 0. -1.
         25    2    1    2    0    0 -0.28556693506E+02 -0.79715311780E+02  0.86825987954E+02  0.17423964781E+03  0.12510270584E+03 0.  0.
          5    1    3    3  502    0 -0.49192215153E+02 -0.49837112770E+02 -0.98928730269E+01  0.70844570559E+02  0.41800000000E+01 0. -1.
         -5    1    3    3    0  502  0.20635521647E+02 -0.29878199010E+02  0.96718860981E+02  0.10339507725E+03  0.41800000000E+01 0. -1.
        -11    1    1    2    0    0  0.58347325172E+02  0.74323969101E+02  0.35663840660E+02  0.10099689237E+03  0.00000000000E+00 0.  1.
         11    1    1    2    0    0 -0.29790631666E+02  0.53913426789E+01  0.26521677710E+01  0.30390496949E+02  0.00000000000E+00 0. -1.
</event>
<event>
 7    1  0.2564986E-009  0.1279385E+03  0.7561462E-02  0.1230547E+00
         -2   -1    0    0    0  501 -0.00000000000E+00  0.00000000000E+00  0.17624971835E+03  0.17624971835E+03  0.00000000000E+00 0.  1.
          2   -1    0    0  501    0  0.00000000000E+00 -0.00000000000E+00 -0.11499213999E+03  0.11499213999E+03  0.00000000000E+00 0. -1.
         25    2    1    2    0    0 -0.25928986339E+02 -0.82209950126E+02 -0.12929850794E+02  0.15246332804E+03  0.12508835726E+03 0.  0.
          5    1    3    3  502    0 -0.66674926259E+02 -0.86217506609E+02 -0.19459241896E+02  0.11079322512E+03  0.41800000000E+01 0. -1.
         -5    1    3    3    0  502  0.40745939920E+02  0.40075564831E+01  0.65293911020E+01  0.41670102917E+02  0.41800000000E+01 0. -1.
        -11    1    1    2    0    0  0.40491732607E+02  0.81577652592E+02  0.36048350012E+02  0.97948850685E+02  0.00000000000E+00 0. -1.
         11    1    1    2    0    0 -0.14562746268E+02  0.63229753411E+00  0.38139079142E+02  0.40829679607E+02  0.00000000000E+00 0.  1.
</event>
<event>
 7    1  0.2564986E-009  0.1077136E+03  0.7561462E-02  0.1264863E+00
         -2   -1    0    0    0  501 -0.00000000000E+00  0.00000000000E+00  0.53744672638E+02  0.53744672638E+02  0.00000000000E+00 0. -1.
          2   -1    0    0  501    0  0.00000000000E+00 -0.00000000000E+00 -0.23494475113E+03  0.23494475113E+03  0.00000000000E+00 0.  1.
         25    2    1    2    0    0  0.15592179477E+02 -0.24892747421E+02 -0.11927365347E+03  0.17531336199E+03  0.12508319450E+03 0.  0.
          5    1    3    3  502    0 -0.42976410171E+02 -0.41980262075E+02 -0.87982148021E+02  0.10661915872E+03  0.41800000000E+01 0. -1.
         -5    1    3    3    0  502  0.58568589649E+02  0.17087514654E+02 -0.31291505453E+02  0.68694203278E+02  0.41800000000E+01 0. -1.
        -11    1    1    2    0    0  0.22281907050E+02 -0.23642088643E+02 -0.29063380524E+02  0.43590272134E+02  0.00000000000E+00 0. -1.
         11    1    1    2    0    0 -0.37874086528E+02  0.48534836064E+02 -0.32863044492E+02  0.69785789638E+02  0.00000000000E+00 0.  1.
</event>
<event>
 7    1  0.2564986E-009  0.2449194E+03  0.7561462E-02  0.1116558E+00
         -2   -1    0    0    0  501 -0.00000000000E+00  0.00000000000E+00  0.79794125258E+02  0.79794125258E+02  0.00000000000E+00 0.  1.
          2   -1    0    0  501    0  0.00000000000E+00 -0.00000000000E+00 -0.81176218711E+03  0.81176218711E+03  0.00000000000E+00 0. -1.
         25    2    1    2    0    0  0.22247334774E+03  0.33712253817E+02 -0.29270518973E+03  0.38981019640E+03  0.12507899348E+03 0.  0.
          5    1    3    3  502    0  0.23158318324E+03  0.14265096907E+02 -0.28271568970E+03  0.36575934349E+03  0.41800000000E+01 0. -1.
         -5    1    3    3    0  502 -0.91098354972E+01  0.19447156910E+02 -0.99895000257E+01  0.24050852904E+02  0.41800000000E+01 0. -1.
        -11    1    1    2    0    0 -0.11724640870E+03  0.18056938178E+02 -0.16277833992E+03  0.20141887031E+03  0.00000000000E+00 0.  1.
         11    1    1    2    0    0 -0.10522693904E+03 -0.51769191995E+02 -0.27648453220E+03  0.30032724566E+03  0.00000000000E+00 0. -1.
</event>
<event>
 7    1  0.2564986E-009  0.1372174E+03  0.7561462E-02  0.1217123E+00
          4   -1    0    0  501    0  0.00000000000E+00  0.00000000000E+00  0.19852902607E+03  0.19852902607E+03  0.00000000000E+00 0.  1.
         -4   -1    0    0    0  501 -0.00000000000E+00 -0.00000000000E+00 -0.14306748539E+03  0.14306748539E+03  0.00000000000E+00 0. -1.
         25    2    1    2    0    0  0.10313629459E+03  0.76363036635E+02  0.41545185395E+02  0.18395989252E+03  0.12508729352E+03 0.  0.
          5    1    3    3  502    0  0.65868891192E+02  0.61282750343E+02 -0.35617081297E+02  0.96852130573E+02  0.41800000000E+01 0.  1.
         -5    1    3    3    0  502  0.37267403403E+02  0.15080286292E+02  0.77162266692E+02  0.87107761951E+02  0.41800000000E+01 0.  1.
        -11    1    1    2    0    0 -0.49543136526E+02  0.13351583731E+01  0.35310794722E+02  0.60853572193E+02  0.00000000000E+00 0.  1.
         11    1    1    2    0    0 -0.53593158068E+02 -0.77698195008E+02 -0.21394439433E+02  0.96783046749E+02  0.00000000000E+00 0. -1.
</event>
<event>
 7    1  0.2564986E-009  0.1376912E+03  0.7561462E-02  0.1216470E+00
         -3   -1    0    0    0  501 -0.00000000000E+00  0.00000000000E+00  0.54117008605E+03  0.54117008605E+03  0.00000000000E+00 0.  1.
          3   -1    0    0  501    0  0.00000000000E+00 -0.00000000000E+00 -0.43025452299E+02  0.43025452299E+02  0.00000000000E+00 0. -1.
         25    2    1    2    0    0  0.85444531481E+02  0.50587942166E+02  0.19217749375E+03  0.24987759837E+03  0.12508683868E+03 0.  0.
          5    1    3    3  502    0  0.11247222299E+03  0.62097188453E+02  0.16839982330E+03  0.21185380489E+03  0.41800000000E+01 0.  1.
         -5    1    3    3    0  502 -0.27027691513E+02 -0.11509246288E+02  0.23777670449E+02  0.38023793480E+02  0.41800000000E+01 0.  1.
        -11    1    1    2    0    0 -0.35670950981E+01 -0.33291476955E+02  0.17999629717E+03  0.18308389771E+03  0.00000000000E+00 0.  1.
         11    1    1    2    0    0 -0.81877436383E+02 -0.17296465211E+02  0.12597084283E+03  0.15123404227E+03  0.00000000000E+00 0. -1.
</event>
<event>
 7    1  0.2564986E-009  0.9852651E+02  0.7561462E-02  0.1283425E+00
         -2   -1    0    0    0  501 -0.00000000000E+00  0.00000000000E+00  0.12677426517E+03  0.12677426517E+03  0.00000000000E+00 0.  1.
          2   -1    0    0  501    0  0.00000000000E+00 -0.00000000000E+00 -0.10514664852E+03  0.10514664852E+03  0.00000000000E+00 0. -1.
         25    2    1    2    0    0 -0.29711380154E+02  0.55644645514E+01 -0.36440472379E+01  0.12874168084E+03  0.12508961559E+03 0.  0.
          5    1    3    3  502    0  0.31542468285E+02  0.31028939141E+02  0.30612228661E+02  0.53965760565E+02  0.41800000000E+01 0.  1.
         -5    1    3    3    0  502 -0.61253848439E+02 -0.25464474590E+02 -0.34256275899E+02  0.74775920277E+02  0.41800000000E+01 0.  1.
        -11    1    1    2    0    0  0.35696076395E+02 -0.38596271371E+02  0.40454466704E+02  0.66335856895E+02  0.00000000000E+00 0.  1.
         11    1    1    2    0    0 -0.59846962414E+01  0.33031806820E+02 -0.15182802816E+02  0.36843375961E+02  0.00000000000E+00 0. -1.
</event>
<event>
 7    1  0.2830837E-009  0.1835996E+03  0.7561462E-02  0.1164364E+00
          2   -1    0    0  501    0  0.00000000000E+00  0.00000000000E+00  0.19257522771E+04  0.19257522771E+04  0.00000000000E+00 0. -1.
         -2   -1    0    0    0  501 -0.00000000000E+00 -0.00000000000E+00 -0.23478339493E+02  0.23478339493E+02  0.00000000000E+00 0.  1.
         25    2    1    2    0    0  0.10661976961E+03 -0.12233958798E+03  0.13718560479E+04  0.13870725269E+04  0.12508568511E+03 0.  0.
          5    1    3    3  502    0  0.10731323418E+03 -0.14477098116E+03  0.11494471939E+04  0.11634952046E+04  0.41800000000E+01 0.  1.
         -5    1    3    3    0  502 -0.69346457025E+00  0.22431393170E+02  0.22240885401E+03  0.22357732227E+03  0.41800000000E+01 0.  1.
        -11    1    1    2    0    0 -0.21981576696E+02  0.11972918881E+02  0.17057285966E+02  0.30290122236E+02  0.00000000000E+00 0.  1.
         11    1    1    2    0    0 -0.84638192915E+02  0.11036666910E+03  0.51336060374E+03  0.53186796747E+03  0.00000000000E+00 0. -1.
</event>
<event>
 7    1  0.2564986E-009  0.1186872E+03  0.7561462E-02  0.1245279E+00
         -1   -1    0    0    0  501 -0.00000000000E+00  0.00000000000E+00  0.14429579240E+03  0.14429579240E+03  0.00000000000E+00 0.  1.
          1   -1    0    0  501    0  0.00000000000E+00 -0.00000000000E+00 -0.20236835278E+03  0.20236835278E+03  0.00000000000E+00 0. -1.
         25    2    1    2    0    0  0.11262986895E+03 -0.28853259467E+02 -0.93596612932E+02  0.19473758243E+03  0.12507758432E+03 0.  0.
          5    1    3    3  502    0  0.19580042085E+02 -0.10636145165E+02 -0.97152435287E+02  0.99762586746E+02  0.41800000000E+01 0. -1.
         -5    1    3    3    0  502  0.93049826867E+02 -0.18217114302E+02  0.35558223554E+01  0.94974995689E+02  0.41800000000E+01 0. -1.
        -11    1    1    2    0    0 -0.96067786040E+02  0.34830996780E+02  0.62446669266E+02  0.11975727265E+03  0.00000000000E+00 0.  1.
         11    1    1    2    0    0 -0.16562082912E+02 -0.59777373133E+01 -0.26922616713E+02  0.32169290083E+02  0.00000000000E+00 0. -1.
</event>
<event>
 7    1  0.2564986E-009  0.1553190E+03  0.7561462E-02  0.1194085E+00
         -2   -1    0    0    0  501 -0.00000000000E+00  0.00000000000E+00  0.69336175191E+02  0.69336175191E+02  0.00000000000E+00 0.  1.
          2   -1    0    0  501    0  0.00000000000E+00 -0.00000000000E+00 -0.38193777093E+03  0.38193777093E+03  0.00000000000E+00 0. -1.
         25    2    1    2    0    0  0.27148461939E+01  0.12181450665E+03 -0.19738006902E+03  0.26353804184E+03  0.12508902202E+03 0.  0.
          5    1    3    3  502    0  0.43610496922E+02 -0.19281548957E+01 -0.57418487162E+02  0.72249209622E+02  0.41800000000E+01 0.  1.
         -5    1    3    3    0  502 -0.40895650728E+02  0.12374266154E+03 -0.13996158186E+03  0.19128883222E+03  0.41800000000E+01 0.  1.
        -11    1    1    2    0    0 -0.31524504668E+02 -0.75924629371E+02 -0.31556157637E+02  0.88057565402E+02  0.00000000000E+00 0. -1.
         11    1    1    2    0    0  0.28809658475E+02 -0.45889877278E+02 -0.83665369074E+02  0.99678338872E+02  0.00000000000E+00 0.  1.
</event>
<event>
 7    1  0.2564986E-009  0.9671472E+02  0.7561462E-02  0.1287360E+00
         -1   -1    0    0    0  501 -0.00000000000E+00  0.00000000000E+00  0.52982163089E+02  0.52982163089E+02  0.00000000000E+00 0.  1.
          1   -1    0    0  501    0  0.00000000000E+00 -0.00000000000E+00 -0.24577790426E+03  0.24577790426E+03  0.00000000000E+00 0. -1.
         25    2    1    2    0    0 -0.15699631300E+02 -0.20602157040E+02 -0.74921135544E+02  0.14809004383E+03  0.12508619921E+03 0.  0.
          5    1    3    3  502    0  0.36079170049E+02  0.35324875186E+02 -0.37792954525E+02  0.63208647589E+02  0.41800000000E+01 0.  1.
         -5    1    3    3    0  502 -0.51778801349E+02 -0.55927032226E+02 -0.37128181020E+02  0.84881396245E+02  0.41800000000E+01 0.  1.
        -11    1    1    2    0    0  0.16024924332E+02  0.42041088066E+02 -0.12091484932E+03  0.12901415454E+03  0.00000000000E+00 0. -1.
         11    1    1    2    0    0 -0.32529303197E+00 -0.21438931026E+02  0.30402436981E+01  0.21655868970E+02  0.00000000000E+00 0.  1.
</event>
<event>
 7    1  0.2564986E-009  0.9106562E+02  0.7561462E-02  0.1300291E+00
          1   -1    0    0  501    0  0.00000000000E+00  0.00000000000E+00  0.50683042619E+02  0.50683042619E+02  0.00000000000E+00 0. -1.
         -1   -1    0    0    0  501 -0.00000000000E+00 -0.00000000000E+00 -0.31825791808E+03  0.31825791808E+03  0.00000000000E+00 0.  1.
         25    2    1    2    0    0  0.66007355825E+02 -0.53351811762E+01 -0.13436175106E+03  0.19515817650E+03  0.12509275969E+03 0.  0.
          5    1    3    3  502    0 -0.50187588974E+01  0.33907719458E+02  0.39386711568E+01  0.34754955189E+02  0.41800000000E+01 0. -1.
         -5    1    3    3    0  502  0.71026114723E+02 -0.39242900634E+02 -0.13830042222E+03  0.16040322131E+03  0.41800000000E+01 0. -1.
        -11    1    1    2    0    0 -0.49680763602E+02  0.22561876051E+01 -0.14507901515E+03  0.15336619344E+03  0.00000000000E+00 0.  1.
         11    1    1    2    0    0 -0.16326592224E+02  0.30789935711E+01  0.11865890743E+02  0.20416590758E+02  0.00000000000E+00 0. -1.
</event>
<event>
 7    1  0.2564986E-009  0.6311278E+02  0.7561462E-02  0.1385214E+00
          1   -1    0    0  501    0  0.00000000000E+00  0.00000000000E+00  0.60525677093E+02  0.60525677093E+02  0.00000000000E+00 0. -1.
         -1   -1    0    0    0  501 -0.00000000000E+00 -0.00000000000E+00 -0.20795608923E+03  0.20795608923E+03  0.00000000000E+00 0.  1.
         25    2    1    2    0    0 -0.14527991654E+02  0.26697226182E+02 -0.72056906241E+02  0.14752542166E+03  0.12509095839E+03 0.  0.
          5    1    3    3  502    0  0.16012535112E+02 -0.14862641970E+02 -0.90039186779E+02  0.92746034755E+02  0.41800000000E+01 0. -1.
         -5    1    3    3    0  502 -0.30540526766E+02  0.41559868152E+02  0.17982280537E+02  0.54779386901E+02  0.41800000000E+01 0. -1.
        -11    1    1    2    0    0  0.22763848775E+02  0.15484243899E+01  0.14064680295E+02  0.26803090511E+02  0.00000000000E+00 0. -1.
         11    1    1    2    0    0 -0.82358571215E+01 -0.28245650572E+02 -0.89438186195E+02  0.94153254158E+02  0.00000000000E+00 0.  1.
</event>
<event>
 7    1  0.2564986E-009  0.9707055E+02  0.7561462E-02  0.1286580E+00
          2   -1    0    0  501    0  0.00000000000E+00  0.00000000000E+00  0.13093467128E+03  0.13093467128E+03  0.00000000000E+00 0. -1.
         -2   -1    0    0    0  501 -0.00000000000E+00 -0.00000000000E+00 -0.10322779562E+03  0.10322779562E+03  0.00000000000E+00 0.  1.
         25    2    1    2    0    0 -0.25274884084E+02 -0.34724715506E+02  0.60598583953E+01  0.13239885972E+03  0.12509240800E+03 0.  0.
          5    1    3    3  502    0  0.27499456095E+02 -0.37895834890E+02 -0.40330419102E+02  0.61938110179E+02  0.41800000000E+01 0. -1.
         -5    1    3    3    0  502 -0.52774340180E+02  0.31711193839E+01  0.46390277498E+02  0.70460749541E+02  0.41800000000E+01 0. -1.
        -11    1    1    2    0    0  0.39631868513E+02 -0.14974765626E+02  0.26230399112E+02  0.49829333178E+02  0.00000000000E+00 0.  1.
         11    1    1    2    0    0 -0.14356984429E+02  0.49699481133E+02 -0.45833818477E+01  0.51934274000E+02  0.00000000000E+00 0. -1.
</event>
<event>
 7    1  0.2564986E-009  0.2307795E+03  0.7561462E-02  0.1126092E+00
          2   -1    0    0  501    0  0.00000000000E+00  0.00000000000E+00  0.68233283864E+03  0.68233283864E+03  0.00000000000E+00 0.  1.
         -2   -1    0    0    0  501 -0.00000000000E+00 -0.00000000000E+00 -0.85732052513E+02  0.85732052513E+02  0.00000000000E+00 0. -1.
         25    2    1    2    0    0 -0.43837077039E+02 -0.20711918171E+03  0.24176161076E+03  0.34484184009E+03  0.12508866250E+03 0.  0.
          5    1    3    3  502    0  0.38134727011E+02 -0.45275577176E+02  0.31795402310E+02  0.67324254922E+02  0.41800000000E+01 0. -1.
         -5    1    3    3    0  502 -0.81971804050E+02 -0.16184360453E+03  0.20996620845E+03  0.27751758517E+03  0.41800000000E+01 0. -1.
        -11    1    1    2    0    0  0.59837020569E+02  0.15197135917E+03  0.30990497462E+03  0.35030965778E+03  0.00000000000E+00 0.  1.
         11    1    1    2    0    0 -0.15999943530E+02  0.55147822537E+02  0.44934200756E+02  0.72913393291E+02  0.00000000000E+00 0. -1.
</event>
<event>
 7    1  0.2564986E-009  0.6490696E+02  0.7561462E-02  0.1378322E+00
          2   -1    0    0  501    0  0.00000000000E+00  0.00000000000E+00  0.12805069679E+03  0.12805069679E+03  0.00000000000E+00 0. -1.
         -2   -1    0    0    0  501 -0.00000000000E+00 -0.00000000000E+00 -0.96406139692E+02  0.96406139692E+02  0.00000000000E+00 0.  1.
         25    2    1    2    0    0  0.28986257867E+01 -0.21549614927E+02  0.66157267454E+01  0.12713644596E+03  0.12508844917E+03 0.  0.
          5    1    3    3  502    0  0.15939141258E+02 -0.44245010982E+01 -0.57183355145E+02  0.59674458017E+02  0.41800000000E+01 0. -1.
         -5    1    3    3    0  502 -0.13040515471E+02 -0.17125113829E+02  0.63799081890E+02  0.67461987945E+02  0.41800000000E+01 0. -1.
        -11    1    1    2    0    0 -0.12103869133E+02  0.54904708868E+02  0.27582120125E+02  0.62624308814E+02  0.00000000000E+00 0.  1.
         11    1    1    2    0    0  0.92052433463E+01 -0.33355093942E+02 -0.25532897750E+01  0.34696081704E+02  0.00000000000E+00 0. -1.
</event>
<event>
 7    1  0.2564986E-009  0.2563785E+03  0.7561462E-02  0.1109339E+00
          2   -1    0    0  501    0  0.00000000000E+00  0.00000000000E+00  0.19972284449E+04  0.19972284449E+04  0.00000000000E+00 0.  1.
         -2   -1    0    0    0  501 -0.00000000000E+00 -0.00000000000E+00 -0.37621266369E+02  0.37621266369E+02  0.00000000000E+00 0. -1.
         25    2    1    2    0    0 -0.25016384575E+03 -0.10265771943E+02  0.91956101018E+03  0.96121122455E+03  0.12508889227E+03 0.  0.
          5    1    3    3  502    0 -0.16836840602E+03  0.10246533895E+02  0.78045986173E+03  0.79849106431E+03  0.41800000000E+01 0.  1.
         -5    1    3    3    0  502 -0.81795439726E+02 -0.20512305838E+02  0.13910114845E+03  0.16272016024E+03  0.41800000000E+01 0.  1.
        -11    1    1    2    0    0  0.12234932723E+03  0.39331372734E+02  0.63627041755E+03  0.64911968003E+03  0.00000000000E+00 0.  1.
         11    1    1    2    0    0  0.12781451852E+03 -0.29065600791E+02  0.40377575080E+03  0.42451880668E+03  0.00000000000E+00 0. -1.
</event>
<event>
 7    1  0.2564986E-009  0.3356315E+03  0.7561462E-02  0.1068672E+00
         -1   -1    0    0    0  501 -0.00000000000E+00  0.00000000000E+00  0.25049562202E+03  0.25049562202E+03  0.00000000000E+00 0.  1.
          1   -1    0    0  501    0  0.00000000000E+00 -0.00000000000E+00 -0.52497859225E+03  0.52497859225E+03  0.00000000000E+00 0. -1.
         25    2    1    2    0    0 -0.25694925625E+03  0.18791050092E+03 -0.28454288501E+03  0.44491045205E+03  0.12508948914E+03 0.  0.
          5    1    3    3  502    0 -0.27343753953E+02  0.84898948818E+02 -0.59644164390E+02  0.10737975199E+03  0.41800000000E+01 0.  1.
         -5    1    3    3    0  502 -0.22960550230E+03  0.10301155210E+03 -0.22489872062E+03  0.33753070007E+03  0.41800000000E+01 0.  1.
        -11    1    1    2    0    0  0.14137628971E+03 -0.49106813291E+02  0.91497614080E+01  0.14994149705E+03  0.00000000000E+00 0.  1.
         11    1    1    2    0    0  0.11557296654E+03 -0.13880368763E+03  0.91015337927E+00  0.18062226516E+03  0.00000000000E+00 0. -1.
</event>
<event>
 7    1  0.2564986E-009  0.1126487E+03  0.7561462E-02  0.1255742E+00
          1   -1    0    0  501    0  0.00000000000E+00  0.00000000000E+00  0.62861811891E+03  0.62861811891E+03  0.00000000000E+00 0.  1.
         -1   -1    0    0    0  501 -0.00000000000E+00 -0.00000000000E+00 -0.23658882686E+02  0.23658882686E+02  0.00000000000E+00 0. -1.
         25    2    1    2    0    0  0.39636444190E+02  0.86751134740E+01  0.27647858999E+03  0.30615940373E+03  0.12508742729E+03 0.  0.
          5    1    3    3  502    0 -0.42635887339E+02  0.86424932770E+01  0.14083736653E+03  0.14746236059E+03  0.41800000000E+01 0. -1.
         -5    1    3    3    0  502  0.82272331530E+02  0.32620196985E-01  0.13564122346E+03  0.15869704314E+03  0.41800000000E+01 0. -1.
        -11    1    1    2    0    0 -0.69218444869E+02 -0.48660870942E+01  0.28543637938E+03  0.29374955079E+03  0.00000000000E+00 0.  1.
         11    1    1    2    0    0  0.29582000679E+02 -0.38090263799E+01  0.43044266846E+02  0.52368047075E+02  0.00000000000E+00 0. -1.
</event>
<event>
 7    1  0.2564986E-009  0.9129741E+02  0.7561462E-02  0.1299740E+00
         -1   -1    0    0    0  501 -0.00000000000E+00  0.00000000000E+00  0.23621932671E+02  0.23621932671E+02  0.00000000000E+00 0.  1.
          1   -1    0    0  501    0  0.00000000000E+00 -0.00000000000E+00 -0.90586086698E+03  0.90586086698E+03  0.00000000000E+00 0. -1.
         25    2    1    2    0    0  0.53138524490E+02  0.18241075519E+02 -0.62149463293E+03  0.63644150383E+03  0.12508305005E+03 0.  0.
          5    1    3    3  502    0  0.39175374860E+02  0.55335590083E+02 -0.55330261243E+03  0.55745671656E+03  0.41800000000E+01 0.  1.
         -5    1    3    3    0  502  0.13963149631E+02 -0.37094514564E+02 -0.68192020506E+02  0.78984787263E+02  0.41800000000E+01 0.  1.
        -11    1    1    2    0    0 -0.22658642192E+01 -0.23553522759E+02  0.34754954956E+01  0.23916137731E+02  0.00000000000E+00 0.  1.
         11    1    1    2    0    0 -0.50872660271E+02  0.53124472405E+01 -0.26421979688E+03  0.26912515810E+03  0.00000000000E+00 0. -1.
</event>
<event>
 7    1  0.2564986E-009  0.2707592E+03  0.7561462E-02  0.1100846E+00
          1   -1    0    0  501    0  0.00000000000E+00  0.00000000000E+00  0.13391392670E+04  0.13391392670E+04  0.00000000000E+00 0. -1.
         -1   -1    0    0    0  501 -0.00000000000E+00 -0.00000000000E+00 -0.57652855191E+02  0.57652855191E+02  0.00000000000E+00 0.  1.
         25    2    1    2    0    0  0.25157741275E+03  0.41372287710E+02  0.68001796770E+03  0.73693657373E+03  0.12509283158E+03 0.  0.
          5    1    3    3  502    0  0.19333763145E+03 -0.18739512367E+02  0.53837562526E+03  0.57236037191E+03  0.41800000000E+01 0. -1.
         -5    1    3    3    0  502  0.58239781304E+02  0.60111800078E+02  0.14164234243E+03  0.16457620182E+03  0.41800000000E+01 0. -1.
        -11    1    1    2    0    0 -0.14586623153E+03  0.93739342479E+01  0.41064508384E+03  0.43588325619E+03  0.00000000000E+00 0.  1.
         11    1    1    2    0    0 -0.10571118122E+03 -0.50746221958E+02  0.19082336024E+03  0.22397229224E+03  0.00000000000E+00 0. -1.
</event>
<event>
 7    1  0.2564986E-009  0.8613771E+02  0.7561462E-02  0.1312484E+00
          4   -1    0    0  501    0  0.00000000000E+00  0.00000000000E+00  0.41250489784E+02  0.41250489784E+02  0.00000000000E+00 0. -1.
         -4   -1    0    0    0  501 -0.00000000000E+00 -0.00000000000E+00 -0.39328750742E+03  0.39328750742E+03  0.00000000000E+00 0.  1.
         25    2    1    2    0    0  0.55947724880E+02  0.42766240793E+02 -0.22778688655E+03  0.26924441674E+03  0.12508633415E+03 0.  0.
          5    1    3    3  502    0  0.37217391575E+02  0.48132883286E+02 -0.23880802045E+03  0.24647241573E+03  0.41800000000E+01 0.  1.
         -5    1    3    3    0  502  0.18730333305E+02 -0.53666424928E+01  0.11021133899E+02  0.22772001005E+02  0.41800000000E+01 0.  1.
        -11    1    1    2    0    0 -0.52448360789E+02 -0.41777030988E+01 -0.24026444689E+02  0.57840762417E+02  0.00000000000E+00 0.  1.
         11    1    1    2    0    0 -0.34993640908E+01 -0.38588537694E+02 -0.10022368640E+03  0.10745281804E+03  0.00000000000E+00 0. -1.
</event>
<event>
 7    1  0.2564986E-009  0.1002111E+03  0.7561462E-02  0.1279853E+00
          1   -1    0    0  501    0  0.00000000000E+00  0.00000000000E+00  0.35133745279E+03  0.35133745279E+03  0.00000000000E+00 0. -1.
         -1   -1    0    0    0  501 -0.00000000000E+00 -0.00000000000E+00 -0.36635645085E+02  0.36635645085E+02  0.00000000000E+00 0.  1.
         25    2    1    2    0    0  0.30650982878E+02 -0.12593063317E+02  0.15092707476E+03  0.19880754703E+03  0.12508953141E+03 0.  0.
          5    1    3    3  502    0  0.39217541921E+02 -0.63426330208E+02  0.67618487006E+02  0.10075042006E+03  0.41800000000E+01 0. -1.
         -5    1    3    3    0  502 -0.85665590425E+01  0.50833266892E+02  0.83308587751E+02  0.98057126971E+02  0.41800000000E+01 0. -1.
        -11    1    1    2    0    0 -0.37727498536E+02 -0.18575564946E+02  0.30079511878E+02  0.51702928289E+02  0.00000000000E+00 0.  1.
         11    1    1    2    0    0  0.70765156573E+01  0.31168628263E+02  0.13369522107E+03  0.13746262255E+03  0.00000000000E+00 0. -1.
</event>
<event>
 7    1  0.2564986E-009  0.9947992E+02  0.7561462E-02  0.1281393E+00
         -2   -1    0    0    0  501 -0.00000000000E+00  0.00000000000E+00  0.28157380473E+02  0.28157380473E+02  0.00000000000E+00 0.  1.
          2   -1    0    0  501    0  0.00000000000E+00 -0.00000000000E+00 -0.50070597333E+03  0.50070597333E+03  0.00000000000E+00 0. -1.
         25    2    1    2    0    0 -0.43958596656E+02  0.20908552709E+02 -0.29629258008E+03  0.32527931705E+03  0.12509122788E+03 0.  0.
          5    1    3    3  502    0 -0.26014521557E+02  0.53542929276E+02 -0.27656129284E+03  0.28292617712E+03  0.41800000000E+01 0. -1.
         -5    1    3    3    0  502 -0.17944075099E+02 -0.32634376567E+02 -0.19731287242E+02  0.42353139923E+02  0.41800000000E+01 0. -1.
        -11    1    1    2    0    0  0.47613267150E+02 -0.51998812102E+02 -0.12560846206E+03  0.14404299847E+03  0.00000000000E+00 0.  1.
         11    1    1    2    0    0 -0.36546704948E+01  0.31090259393E+02 -0.50647550720E+02  0.59541038280E+02  0.00000000000E+00 0. -1.
</event>
<event>
 7    1  0.2564986E-009  0.2006969E+03  0.7561462E-02  0.1149152E+00
          2   -1    0    0  501    0  0.00000000000E+00  0.00000000000E+00  0.18510962378E+03  0.18510962378E+03  0.00000000000E+00 0. -1.
         -2   -1    0    0    0  501 -0.00000000000E+00 -0.00000000000E+00 -0.26213167834E+03  0.26213167834E+03  0.00000000000E+00 0.  1.
         25    2    1    2    0    0  0.19061774399E+03  0.41941981560E+01 -0.53590959810E+02  0.23424650339E+03  0.12508684086E+03 0.  0.
          5    1    3    3  502    0  0.72730952488E+02  0.43925667797E+02 -0.68048653461E+02  0.10893735530E+03  0.41800000000E+01 0.  1.
         -5    1    3    3    0  502  0.11788679150E+03 -0.39731469641E+02  0.14457693651E+02  0.12530914809E+03  0.41800000000E+01 0.  1.
        -11    1    1    2    0    0 -0.89641843190E+02  0.86713517212E+01 -0.56081647555E+02  0.10609431457E+03  0.00000000000E+00 0.  1.
         11    1    1    2    0    0 -0.10097590080E+03 -0.12865549877E+02  0.32650552803E+02  0.10690048416E+03  0.00000000000E+00 0. -1.
</event>
<event>
 7    1  0.2564986E-009  0.1009048E+03  0.7561462E-02  0.1278405E+00
          2   -1    0    0  501    0  0.00000000000E+00  0.00000000000E+00  0.17674229808E+03  0.17674229808E+03  0.00000000000E+00 0. -1.
         -2   -1    0    0    0  501 -0.00000000000E+00 -0.00000000000E+00 -0.99975327613E+02  0.99975327613E+02  0.00000000000E+00 0.  1.
         25    2    1    2    0    0 -0.54362799914E+02 -0.41469541642E+02  0.21879795436E+01  0.14257484901E+03  0.12509102053E+03 0.  0.
          5    1    3    3  502    0 -0.76585020191E+02 -0.57298489655E+02 -0.29852579035E+02  0.10028475013E+03  0.41800000000E+01 0. -1.
         -5    1    3    3    0  502  0.22222220277E+02  0.15828948013E+02  0.32040558578E+02  0.42290098879E+02  0.41800000000E+01 0. -1.
        -11    1    1    2    0    0 -0.99643281950E+00  0.18511756279E+02  0.71792254021E+02  0.74147189672E+02  0.00000000000E+00 0. -1.
         11    1    1    2    0    0  0.55359232734E+02  0.22957785364E+02  0.27867369010E+01  0.59995587006E+02  0.00000000000E+00 0.  1.
</event>
<event>
 7    1  0.2564986E-009  0.1457620E+03  0.7561462E-02  0.1205779E+00
         -2   -1    0    0    0  501 -0.00000000000E+00  0.00000000000E+00  0.20121132162E+02  0.20121132162E+02  0.00000000000E+00 0.  1.
          2   -1    0    0  501    0  0.00000000000E+00 -0.00000000000E+00 -0.12962915372E+04  0.12962915372E+04  0.00000000000E+00 0. -1.
         25    2    1    2    0    0  0.40974596429E+01  0.11365966993E+03 -0.83622132170E+03  0.85314059043E+03  0.12508980147E+03 0.  0.
          5    1    3    3  502    0 -0.57755339627E+02  0.31039110243E+02 -0.33722811148E+03  0.34356859169E+03  0.41800000000E+01 0.  1.
         -5    1    3    3    0  502  0.61852799270E+02  0.82620559688E+02 -0.49899321021E+03  0.50957199874E+03  0.41800000000E+01 0.  1.
        -11    1    1    2    0    0  0.18261956374E+02 -0.80440266289E+02 -0.39301029390E+03  0.40157343862E+03  0.00000000000E+00 0.  1.
         11    1    1    2    0    0 -0.22359416017E+02 -0.33219403643E+02 -0.46938789454E+02  0.61698640329E+02  0.00000000000E+00 0. -1.
</event>
<event>
 7    1  0.2564986E-009  0.7554725E+02  0.7561462E-02  0.1342185E+00
          1   -1    0    0  501    0  0.00000000000E+00  0.00000000000E+00  0.15625822790E+03  0.15625822790E+03  0.00000000000E+00 0. -1.
         -1   -1    0    0    0  501 -0.00000000000E+00 -0.00000000000E+00 -0.16594239266E+03  0.16594239266E+03  0.00000000000E+00 0.  1.
         25    2    1    2    0    0  0.32128004779E+01  0.20981760535E+02  0.11086487015E+03  0.16849067485E+03  0.12509009440E+03 0.  0.
          5    1    3    3  502    0  0.41350284887E+01  0.55754768640E+02  0.42020763651E+01  0.56221192912E+02  0.41800000000E+01 0.  1.
         -5    1    3    3    0  502 -0.92222801081E+00 -0.34773008104E+02  0.10666279378E+03  0.11226948194E+03  0.41800000000E+01 0.  1.
        -11    1    1    2    0    0 -0.28846057464E+02 -0.18439410256E+02 -0.41405445947E+01  0.34485518574E+02  0.00000000000E+00 0. -1.
         11    1    1    2    0    0  0.25633256986E+02 -0.25423502796E+01 -0.11640849031E+03  0.11922442713E+03  0.00000000000E+00 0.  1.
</event>
<event>
 7    1  0.2564986E-009  0.8659186E+02  0.7561462E-02  0.1311321E+00
          2   -1    0    0  501    0  0.00000000000E+00  0.00000000000E+00  0.33991098136E+02  0.33991098136E+02  0.00000000000E+00 0. -1.
         -2   -1    0    0    0  501 -0.00000000000E+00 -0.00000000000E+00 -0.32595114289E+03  0.32595114289E+03  0.00000000000E+00 0.  1.
         25    2    1    2    0    0  0.10065513922E+02  0.44769887704E+02 -0.16792179235E+03  0.21436140277E+03  0.12508966877E+03 0.  0.
          5    1    3    3  502    0 -0.43591454924E+02  0.19755202321E+02 -0.15002644778E+02  0.50329262974E+02  0.41800000000E+01 0. -1.
         -5    1    3    3    0  502  0.53656968846E+02  0.25014685383E+02 -0.15291914757E+03  0.16403213979E+03  0.41800000000E+01 0. -1.
        -11    1    1    2    0    0  0.15754163947E+02 -0.34646995840E+02 -0.32876247051E+02  0.50293693666E+02  0.00000000000E+00 0. -1.
         11    1    1    2    0    0 -0.25819677869E+02 -0.10122891864E+02 -0.91162005357E+02  0.95287144598E+02  0.00000000000E+00 0.  1.
</event>
<event>
 7    1  0.2564986E-009  0.2528313E+03  0.7561462E-02  0.1111528E+00
          1   -1    0    0  501    0  0.00000000000E+00  0.00000000000E+00  0.42898048071E+03  0.42898048071E+03  0.00000000000E+00 0. -1.
         -1   -1    0    0    0  501 -0.00000000000E+00 -0.00000000000E+00 -0.16717618382E+03  0.16717618382E+03  0.00000000000E+00 0.  1.
         25    2    1    2    0    0 -0.12689099546E+03  0.20575109661E+03  0.17450625784E+03  0.32331891174E+03  0.12509135132E+03 0.  0.
          5    1    3    3  502    0 -0.10034277651E+03  0.19689531960E+03  0.18963592520E+03  0.29123134482E+03  0.41800000000E+01 0. -1.
         -5    1    3    3    0  502 -0.26548218950E+02  0.88557770105E+01 -0.15129667367E+02  0.32087566915E+02  0.41800000000E+01 0. -1.
        -11    1    1    2    0    0  0.46397670621E+02 -0.14138962891E+02  0.31180987625E+01  0.48604286340E+02  0.00000000000E+00 0. -1.
         11    1    1    2    0    0  0.80493324841E+02 -0.19161213372E+03  0.84179940283E+02  0.22423346645E+03  0.00000000000E+00 0.  1.
</event>
<event>
 7    1  0.2564986E-009  0.1321198E+03  0.7561462E-02  0.1224344E+00
         -2   -1    0    0    0  501 -0.00000000000E+00  0.00000000000E+00  0.69394934155E+02  0.69394934155E+02  0.00000000000E+00 0.  1.
          2   -1    0    0  501    0  0.00000000000E+00 -0.00000000000E+00 -0.34372874628E+03  0.34372874628E+03  0.00000000000E+00 0. -1.
         25    2    1    2    0    0 -0.10276387669E+03  0.34593280906E+02 -0.12665481319E+03  0.20843708501E+03  0.12508983679E+03 0.  0.
          5    1    3    3  502    0 -0.81012955336E+02 -0.38777995902E+01 -0.14020130338E+03  0.16202473309E+03  0.41800000000E+01 0. -1.
         -5    1    3    3    0  502 -0.21750921350E+02  0.38471080496E+02  0.13546490195E+02  0.46412351920E+02  0.41800000000E+01 0. -1.
        -11    1    1    2    0    0  0.47654666678E+01  0.23991434441E+02 -0.11651659911E+02  0.27093537565E+02  0.00000000000E+00 0.  1.
         11    1    1    2    0    0  0.97998410018E+02 -0.58584715347E+02 -0.13602733903E+03  0.17759305786E+03  0.00000000000E+00 0. -1.
</event>
<event>
 7    1  0.2564986E-009  0.1016023E+03  0.7561462E-02  0.1276962E+00
          1   -1    0    0  501    0  0.00000000000E+00  0.00000000000E+00  0.74201849904E+03  0.74201849904E+03  0.00000000000E+00 0. -1.
         -1   -1    0    0    0  501 -0.00000000000E+00 -0.00000000000E+00 -0.17955693330E+02  0.17955693330E+02  0.00000000000E+00 0.  1.
         25    2    1    2    0    0 -0.14786870338E+02 -0.38775200729E+02  0.41013713948E+03  0.43079190512E+03  0.12508806739E+03 0.  0.
          5    1    3    3  502    0  0.21904239713E+02  0.36506510818E+02  0.20038507010E+03  0.20490038987E+03  0.41800000000E+01 0.  1.
         -5    1    3    3    0  502 -0.36691110050E+02 -0.75281711547E+02  0.20975206939E+03  0.22589151525E+03  0.41800000000E+01 0.  1.
        -11    1    1    2    0    0  0.20357096304E+02 -0.13225902312E+02  0.22495144416E+02  0.33096334905E+02  0.00000000000E+00 0.  1.
         11    1    1    2    0    0 -0.55702259664E+01  0.52001103041E+02  0.29143052181E+03  0.29608595234E+03  0.00000000000E+00 0. -1.
</event>
<event>
 7    1  0.2564986E-009  0.9284026E+02  0.7561462E-02  0.1296116E+00
          2   -1    0    0  501    0  0.00000000000E+00  0.00000000000E+00  0.11774196261E+03  0.11774196261E+03  0.00000000000E+00 0.  1.
         -2   -1    0    0    0  501 -0.00000000000E+00 -0.00000000000E+00 -0.14644724327E+03  0.14644724327E+03  0.00000000000E+00 0. -1.
         25    2    1    2    0    0 -0.32540075126E+02  0.56876975518E+02 -0.50944543084E+02  0.15012129856E+03  0.12508881236E+03 0.  0.
          5    1    3    3  502    0 -0.11795357683E+02  0.78032554595E+02  0.12464490636E+02  0.80006537022E+02  0.41800000000E+01 0. -1.
         -5    1    3    3    0  502 -0.20744717443E+02 -0.21155579076E+02 -0.63409033720E+02  0.70114761535E+02  0.41800000000E+01 0. -1.
        -11    1    1    2    0    0  0.30777920268E+02 -0.13995743103E+02  0.51869175350E+02  0.61915850575E+02  0.00000000000E+00 0.  1.
         11    1    1    2    0    0  0.17621548581E+01 -0.42881232415E+02 -0.29629912923E+02  0.52152056748E+02  0.00000000000E+00 0. -1.
</event>
<event>
 7    1  0.2564986E-009  0.9117052E+02  0.7561462E-02  0.1300042E+00
          4   -1    0    0  501    0  0.00000000000E+00  0.00000000000E+00  0.14517222728E+03  0.14517222728E+03  0.00000000000E+00 0. -1.
         -4   -1    0    0    0  501 -0.00000000000E+00 -0.00000000000E+00 -0.10964060414E+03  0.10964060414E+03  0.00000000000E+00 0.  1.
         25    2    1    2    0    0 -0.22787665827E+02 -0.59941124458E+02  0.21821171034E+02  0.14225058299E+03  0.12508736443E+03 0.  0.
          5    1    3    3  502    0 -0.33298485802E+02  0.97480655545E+01 -0.36605542423E+02  0.50608814201E+02  0.41800000000E+01 0.  1.
         -5    1    3    3    0  502  0.10510819975E+02 -0.69689190012E+02  0.58426713456E+02  0.91641768787E+02  0.41800000000E+01 0.  1.
        -11    1    1    2    0    0 -0.11616839647E+02  0.25937863897E+02 -0.34207895753E+02  0.44473631275E+02  0.00000000000E+00 0.  1.
         11    1    1    2    0    0  0.34404505474E+02  0.34003260561E+02  0.47918347858E+02  0.68088617163E+02  0.00000000000E+00 0. -1.
</event>
<event>
 7    1  0.2564986E-009  0.1280203E+03  0.7561462E-02  0.1230423E+00
         -1   -1    0    0    0  501 -0.00000000000E+00  0.00000000000E+00  0.31031070809E+02  0.31031070809E+02  0.00000000000E+00 0.  1.
          1   -1    0    0  501    0  0.00000000000E+00 -0.00000000000E+00 -0.66240835272E+03  0.66240835272E+03  0.00000000000E+00 0. -1.
         25    2    1    2    0    0  0.80011361734E+02  0.23336045056E+02 -0.44525285391E+03  0.46994040149E+03  0.12508991978E+03 0.  0.
          5    1    3    3  502    0  0.86787704526E+02 -0.20034758029E+02 -0.38550224957E+03  0.39568036849E+03  0.41800000000E+01 0. -1.
         -5    1    3    3    0  502 -0.67763427918E+01  0.43370803084E+02 -0.59750604339E+02  0.74260032997E+02  0.41800000000E+01 0. -1.
        -11    1    1    2    0    0 -0.46943996543E+02  0.33049055591E+02 -0.73297048310E+02  0.93104436940E+02  0.00000000000E+00 0.  1.
         11    1    1    2    0    0 -0.33067365191E+02 -0.56385100646E+02 -0.11282737969E+03  0.13039458510E+03  0.00000000000E+00 0. -1.
</event>
<event>
 7    1  0.2564986E-009  0.1023896E+03  0.7561462E-02  0.1275350E+00
         -1   -1    0    0    0  501 -0.00000000000E+00  0.00000000000E+00  0.71117403116E+03  0.71117403116E+03  0.00000000000E+00 0.  1.
          1   -1    0    0  501    0  0.00000000000E+00 -0.00000000000E+00 -0.18174989543E+02  0.18174989543E+02  0.00000000000E+00 0. -1.
         25    2    1    2    0    0  0.22633515425E+02 -0.45109371060E+01  0.47786308427E+03  0.49450308382E+03  0.12509015955E+03 0.  0.
          5    1    3    3  502    0  0.54691358445E+02 -0.44690697491E+02  0.34061757722E+03  0.34788821400E+03  0.41800000000E+01 0. -1.
         -5    1    3    3    0  502 -0.32057843020E+02  0.40179760385E+02  0.13724550705E+03  0.14661486981E+03  0.41800000000E+01 0. -1.
        -11    1    1    2    0    0 -0.57217060763E+01  0.41442824323E+02  0.52058434199E+02  0.66785673460E+02  0.00000000000E+00 0. -1.
         11    1    1    2    0    0 -0.16911809349E+02 -0.36931887217E+02  0.16307752315E+03  0.16806026343E+03  0.00000000000E+00 0.  1.
</event>
<event>
 7    1  0.2564986E-009  0.8292934E+02  0.7561462E-02  0.1320938E+00
         -3   -1    0    0    0  501 -0.00000000000E+00  0.00000000000E+00  0.10269025057E+03  0.10269025057E+03  0.00000000000E+00 0.  1.
          3   -1    0    0  501    0  0.00000000000E+00 -0.00000000000E+00 -0.16178227782E+03  0.16178227782E+03  0.00000000000E+00 0. -1.
         25    2    1    2    0    0 -0.42105825519E+02 -0.33605081537E+02  0.10850851903E+02  0.13662612309E+03  0.12508698764E+03 0.  0.
          5    1    3    3  502    0 -0.32306339650E+02 -0.36914859506E+02 -0.52690895268E+02  0.72112476576E+02  0.41800000000E+01 0. -1.
         -5    1    3    3    0  502 -0.97994858697E+01  0.33097779685E+01  0.63541747171E+02  0.64513646518E+02  0.41800000000E+01 0. -1.
        -11    1    1    2    0    0  0.61359818163E+02 -0.57788018433E+01 -0.30021026351E+02  0.68554240269E+02  0.00000000000E+00 0.  1.
         11    1    1    2    0    0 -0.19253992644E+02  0.39383883381E+02 -0.39921852799E+02  0.59292165028E+02  0.00000000000E+00 0. -1.
</event>
<event>
 7    1  0.2564986E-009  0.1040734E+03  0.7561462E-02  0.1271956E+00
          1   -1    0    0  501    0  0.00000000000E+00  0.00000000000E+00  0.67071354413E+02  0.67071354413E+02  0.00000000000E+00 0. -1.
         -1   -1    0    0    0  501 -0.00000000000E+00 -0.00000000000E+00 -0.21398748493E+03  0.21398748493E+03  0.00000000000E+00 0.  1.
         25    2    1    2    0    0 -0.30757776904E+01 -0.44757776765E+02 -0.49193560974E+02  0.14170564791E+03  0.12509102773E+03 0.  0.
          5    1    3    3  502    0  0.51376991892E+02 -0.27324581692E+02  0.10123647047E+02  0.59213078707E+02  0.41800000000E+01 0.  1.
         -5    1    3    3    0  502 -0.54452769582E+02 -0.17433195073E+02 -0.59317208021E+02  0.82492569199E+02  0.41800000000E+01 0.  1.
        -11    1    1    2    0    0  0.28787822140E+02  0.57107725975E+02 -0.88865230605E+02  0.10948543410E+03  0.00000000000E+00 0.  1.
         11    1    1    2    0    0 -0.25712044449E+02 -0.12349949211E+02 -0.88573389385E+01  0.29867757337E+02  0.00000000000E+00 0. -1.
</event>
<event>
 7    1  0.2564986E-009  0.8201623E+02  0.7561462E-02  0.1323425E+00
          1   -1    0    0  501    0  0.00000000000E+00  0.00000000000E+00  0.98367284558E+02  0.98367284558E+02  0.00000000000E+00 0. -1.
         -1   -1    0    0    0  501 -0.00000000000E+00 -0.00000000000E+00 -0.13261956948E+03  0.13261956948E+03  0.00000000000E+00 0.  1.
         25    2    1    2    0    0 -0.29408113612E+02  0.77383698719E+01 -0.51557705269E+02  0.13867556160E+03  0.12509194577E+03 0.  0.
          5    1    3    3  502    0 -0.39189098983E+02 -0.27663431439E+02 -0.79082558075E+02  0.92588197465E+02  0.41800000000E+01 0.  1.
         -5    1    3    3    0  502  0.97809853707E+01  0.35401801311E+02  0.27524852806E+02  0.46087364134E+02  0.41800000000E+01 0.  1.
        -11    1    1    2    0    0  0.22087247613E+02  0.31793200092E+02 -0.14198926697E+02  0.41234252735E+02  0.00000000000E+00 0.  1.
         11    1    1    2    0    0  0.73208659993E+01 -0.39531569964E+02  0.31504347042E+02  0.51077039708E+02  0.00000000000E+00 0. -1.
</event>
<event>
 7    1  0.2564986E-009  0.1082068E+03  0.7561462E-02  0.1263927E+00
          2   -1    0    0  501    0  0.00000000000E+00  0.00000000000E+00  0.57685805218E+03  0.57685805218E+03  0.00000000000E+00 0. -1.
         -2   -1    0    0    0  501 -0.00000000000E+00 -0.00000000000E+00 -0.27785926428E+02  0.27785926428E+02  0.00000000000E+00 0.  1.
         25    2    1    2    0    0  0.64396150597E+02 -0.15570412363E+02  0.32422472286E+03  0.35377562137E+03  0.12508484084E+03 0.  0.
          5    1    3    3  502    0  0.68693954766E+02 -0.47206418691E+02  0.11501682634E+03  0.14210435647E+03  0.41800000000E+01 0. -1.
         -5    1    3    3    0  502 -0.42978041695E+01  0.31636006328E+02  0.20920789652E+03  0.21167126490E+03  0.41800000000E+01 0. -1.
        -11    1    1    2    0    0 -0.52120247856E+02 -0.25406622599E+02  0.73645079433E+02  0.93731608506E+02  0.00000000000E+00 0.  1.
         11    1    1    2    0    0 -0.12275902741E+02  0.40977034962E+02  0.15120232346E+03  0.15713674874E+03  0.00000000000E+00 0. -1.
</event>
<event>
 7    1  0.2564986E-009  0.1219145E+03  0.7561462E-02  0.1239972E+00
         -2   -1    0    0    0  501 -0.00000000000E+00  0.00000000000E+00  0.22001160148E+02  0.22001160148E+02  0.00000000000E+00 0.  1.
          2   -1    0    0  501    0  0.00000000000E+00 -0.00000000000E+00 -0.11101633985E+04  0.11101633985E+04  0.00000000000E+00 0. -1.
         25    2    1    2    0    0  0.63421412962E+02  0.82655997382E+02 -0.43092565336E+03  0.46065112428E+03  0.12509296564E+03 0.  0.
          5    1    3    3  502    0  0.60757515477E+02  0.79986016855E+02 -0.43924665059E+03  0.45060440637E+03  0.41800000000E+01 0.  1.
         -5    1    3    3    0  502  0.26638974844E+01  0.26699805265E+01  0.83209972350E+01  0.10046717912E+02  0.41800000000E+01 0.  1.
        -11    1    1    2    0    0 -0.74152703530E+02 -0.95513598943E+02 -0.57023522605E+03  0.58291481715E+03  0.00000000000E+00 0.  1.
         11    1    1    2    0    0  0.10731290568E+02  0.12857601561E+02 -0.87001358914E+02  0.88598617190E+02  0.00000000000E+00 0. -1.
</event>
<event>
 7    1  0.2564986E-009  0.1202426E+03  0.7561462E-02  0.1242697E+00
          1   -1    0    0  501    0  0.00000000000E+00  0.00000000000E+00  0.32084927286E+03  0.32084927286E+03  0.00000000000E+00 0. -1.
         -1   -1    0    0    0  501 -0.00000000000E+00 -0.00000000000E+00 -0.53819257517E+02  0.53819257517E+02  0.00000000000E+00 0.  1.
         25    2    1    2    0    0 -0.73620876220E+02 -0.31678344520E+01  0.14214090904E+03  0.20317886813E+03  0.12509015086E+03 0.  0.
          5    1    3    3  502    0 -0.10350509014E+03 -0.25167497907E+02  0.93065209114E+02  0.14151082003E+03  0.41800000000E+01 0.  1.
         -5    1    3    3    0  502  0.29884213925E+02  0.21999663455E+02  0.49075699927E+02  0.61668048108E+02  0.41800000000E+01 0.  1.
        -11    1    1    2    0    0  0.41372252647E+02 -0.29362547300E+02  0.11345001589E+03  0.12427682237E+03  0.00000000000E+00 0. -1.
         11    1    1    2    0    0  0.32248623573E+02  0.32530381752E+02  0.11439090409E+02  0.47212839871E+02  0.00000000000E+00 0.  1.
</event>
<event>
 7    1  0.2564986E-009  0.1034914E+03  0.7561462E-02  0.1273121E+00
         -2   -1    0    0    0  501 -0.00000000000E+00  0.00000000000E+00  0.11758420701E+02  0.11758420701E+02  0.00000000000E+00 0. -1.
          2   -1    0    0  501    0  0.00000000000E+00 -0.00000000000E+00 -0.15358044406E+04  0.15358044406E+04  0.00000000000E+00 0.  1.
         25    2    1    2    0    0  0.23156146043E+02 -0.71409269447E+02 -0.96874748931E+03  0.97966985137E+03  0.12508328739E+03 0.  0.
          5    1    3    3  502    0  0.26194986551E+02 -0.13234376236E+02 -0.43850858092E+02  0.52931051285E+02  0.41800000000E+01 0.  1.
         -5    1    3    3    0  502 -0.30388405078E+01 -0.58174893211E+02 -0.92489663122E+03  0.92673880009E+03  0.41800000000E+01 0.  1.
        -11    1    1    2    0    0 -0.49115915802E+02  0.71553436611E+01 -0.22984766017E+03  0.23514573995E+03  0.00000000000E+00 0. -1.
         11    1    1    2    0    0  0.25959769759E+02  0.64253925785E+02 -0.32545087039E+03  0.33274726995E+03  0.00000000000E+00 0.  1.
</event>
<event>
 7    1  0.2564986E-009  0.9530691E+02  0.7561462E-02  0.1290486E+00
          1   -1    0    0  501    0  0.00000000000E+00  0.00000000000E+00  0.32766852189E+03  0.32766852189E+03  0.00000000000E+00 0. -1.
         -1   -1    0    0    0  501 -0.00000000000E+00 -0.00000000000E+00 -0.40657534173E+02  0.40657534173E+02  0.00000000000E+00 0.  1.
         25    2    1    2    0    0  0.29569764016E+02 -0.34451632355E+02  0.18972013642E+03  0.23173515300E+03  0.12508463158E+03 0.  0.
          5    1    3    3  502    0  0.25024838811E+02  0.37928347700E+02  0.12973720644E+03  0.13752824165E+03  0.41800000000E+01 0. -1.
         -5    1    3    3    0  502  0.45449252049E+01 -0.72379980055E+02  0.59982929982E+02  0.94206911355E+02  0.41800000000E+01 0. -1.
        -11    1    1    2    0    0 -0.33703525528E+02 -0.37525706495E+01  0.91686777126E+02  0.97757222338E+02  0.00000000000E+00 0.  1.
         11    1    1    2    0    0  0.41337615118E+01  0.38204203004E+02  0.56040741764E+01  0.38833680727E+02  0.00000000000E+00 0. -1.
</event>
<event>
 7    1  0.2564986E-009  0.1667013E+03  0.7561462E-02  0.1181332E+00
          4   -1    0    0  501    0  0.00000000000E+00  0.00000000000E+00  0.91316968776E+03  0.91316968776E+03  0.00000000000E+00 0. -1.
         -4   -1    0    0    0  501 -0.00000000000E+00 -0.00000000000E+00 -0.35171598890E+02  0.35171598890E+02  0.00000000000E+00 0.  1.
         25    2    1    2    0    0 -0.12826488424E+03  0.25956651823E+02  0.31661588240E+03  0.36471496411E+03  0.12508301146E+03 0.  0.
          5    1    3    3  502    0 -0.10407674163E+03  0.71790433520E+02  0.19485974575E+03  0.23232224906E+03  0.41800000000E+01 0.  1.
         -5    1    3    3    0  502 -0.24188142610E+02 -0.45833781696E+02  0.12175613664E+03  0.13239271505E+03  0.41800000000E+01 0.  1.
        -11    1    1    2    0    0  0.65916603268E+02 -0.55258757407E+02  0.37972068234E+03  0.38934088592E+03  0.00000000000E+00 0. -1.
         11    1    1    2    0    0  0.62348280968E+02  0.29302105584E+02  0.18166152414E+03  0.19428543662E+03  0.00000000000E+00 0.  1.
</event>
<event>
 7    1  0.2564986E-009  0.1515832E+03  0.7561462E-02  0.1198541E+00
          1   -1    0    0  501    0  0.00000000000E+00  0.00000000000E+00  0.31484826346E+03  0.31484826346E+03  0.00000000000E+00 0. -1.
         -1   -1    0    0    0  501 -0.00000000000E+00 -0.00000000000E+00 -0.11311427639E+03  0.11311427639E+03  0.00000000000E+00 0.  1.
         25    2    1    2    0    0  0.13810860050E+03  0.43676786966E+02  0.18807472455E+03  0.26833054925E+03  0.12509010510E+03 0.  0.
          5    1    3    3  502    0  0.54801352404E+02  0.50388830202E+02  0.16570869711E+03  0.18171149422E+03  0.41800000000E+01 0.  1.
         -5    1    3    3    0  502  0.83307248097E+02 -0.67120432358E+01  0.22366027437E+02  0.86619055024E+02  0.41800000000E+01 0.  1.
        -11    1    1    2    0    0 -0.30418808931E+02 -0.11604867462E+02  0.32150836871E+02  0.45756455251E+02  0.00000000000E+00 0. -1.
         11    1    1    2    0    0 -0.10768979157E+03 -0.32071919504E+02 -0.18491574346E+02  0.11387553535E+03  0.00000000000E+00 0.  1.
</event>
<event>
 7    1  0.2564986E-009  0.2440935E+03  0.7561462E-02  0.1117096E+00
          2   -1    0    0  501    0  0.00000000000E+00  0.00000000000E+00  0.98998309195E+03  0.98998309195E+03  0.00000000000E+00 0. -1.
         -2   -1    0    0    0  501 -0.00000000000E+00 -0.00000000000E+00 -0.11595762883E+03  0.11595762883E+03  0.00000000000E+00 0.  1.
         25    2    1    2    0    0 -0.99908623231E+02  0.19914912753E+03  0.81941001266E+03  0.85832534164E+03  0.12509002860E+03 0.  0.
          5    1    3    3  502    0 -0.35841434442E+02  0.18438675753E+03  0.55986655819E+03  0.59055153895E+03  0.41800000000E+01 0. -1.
         -5    1    3    3    0  502 -0.64067188789E+02  0.14762369998E+02  0.25954345447E+03  0.26777380269E+03  0.41800000000E+01 0. -1.
        -11    1    1    2    0    0  0.63725907466E+02 -0.18483587846E+03  0.67169559189E+02  0.20672939542E+03  0.00000000000E+00 0.  1.
         11    1    1    2    0    0  0.36182715765E+02 -0.14313249073E+02 -0.12554108723E+02  0.40885983723E+02  0.00000000000E+00 0. -1.
</event>
<event>
 7    1  0.3825448E-009  0.1003817E+03  0.7561462E-02  0.1279495E+00
          1   -1    0    0  501    0  0.00000000000E+00  0.00000000000E+00  0.24578485508E+03  0.24578485508E+03  0.00000000000E+00 0. -1.
         -1   -1    0    0    0  501 -0.00000000000E+00 -0.00000000000E+00 -0.88714155782E+02  0.88714155782E+02  0.00000000000E+00 0.  1.
         25    2    1    2    0    0  0.71269860629E+01  0.11194464144E+02  0.19700020885E+03  0.23373488000E+03  0.12508717713E+03 0.  0.
          5    1    3    3  502    0 -0.45345546661E+02  0.43180184930E+02  0.11702478198E+03  0.13278937823E+03  0.41800000000E+01 0.  1.
         -5    1    3    3    0  502  0.52472532724E+02 -0.31985720786E+02  0.79975426873E+02  0.10094550177E+03  0.41800000000E+01 0.  1.
        -11    1    1    2    0    0 -0.41279874080E+02 -0.85669948366E+01 -0.49672189320E+02  0.65151729036E+02  0.00000000000E+00 0.  1.
         11    1    1    2    0    0  0.34152888017E+02 -0.26274693070E+01  0.97426797686E+01  0.35612401827E+02  0.00000000000E+00 0. -1.
</event>
<event>
 7    1  0.2564986E-009  0.1374226E+03  0.7561462E-02  0.1216840E+00
          2   -1    0    0  501    0  0.00000000000E+00  0.00000000000E+00  0.20784253597E+04  0.20784253597E+04  0.00000000000E+00 0.  1.
         -2   -1    0    0    0  501 -0.00000000000E+00 -0.00000000000E+00 -0.13023115059E+02  0.13023115059E+02  0.00000000000E+00 0. -1.
         25    2    1    2    0    0  0.47609149503E+02 -0.11091591798E+03  0.12678987619E+04  0.12797597560E+04  0.12509512678E+03 0.  0.
          5    1    3    3  502    0 -0.58124780097E+01 -0.24201409228E+02  0.37839174779E+02  0.45483718595E+02  0.41800000000E+01 0. -1.
         -5    1    3    3    0  502  0.53421627513E+02 -0.86714508754E+02  0.12300595871E+04  0.12342760374E+04  0.41800000000E+01 0. -1.
        -11    1    1    2    0    0 -0.33952055543E+02 -0.19259970282E+01  0.12037402572E+03  0.12508540126E+03  0.00000000000E+00 0.  1.
         11    1    1    2    0    0 -0.13657093960E+02  0.11284191501E+03  0.67712945708E+03  0.68660331753E+03  0.00000000000E+00 0. -1.
</event>
<event>
 7    1  0.2564986E-009  0.2334444E+03  0.7561462E-02  0.1124239E+00
          2   -1    0    0  501    0  0.00000000000E+00  0.00000000000E+00  0.10308359508E+04  0.10308359508E+04  0.00000000000E+00 0. -1.
         -2   -1    0    0    0  501 -0.00000000000E+00 -0.00000000000E+00 -0.59306385095E+02  0.59306385095E+02  0.00000000000E+00 0.  1.
         25    2    1    2    0    0  0.20466195524E+03 -0.42223204726E+02  0.33665571513E+03  0.41551657066E+03  0.12509050731E+03 0.  0.
          5    1    3    3  502    0  0.21214615170E+03 -0.62746468667E+02  0.30799763721E+03  0.37924019557E+03  0.41800000000E+01 0. -1.
         -5    1    3    3    0  502 -0.74841964502E+01  0.20523263941E+02  0.28658077917E+02  0.36276375083E+02  0.41800000000E+01 0. -1.
        -11    1    1    2    0    0 -0.80208015466E+02  0.56495093035E+02  0.34862698447E+03  0.36216818687E+03  0.00000000000E+00 0. -1.
         11    1    1    2    0    0 -0.12445393978E+03 -0.14271888309E+02  0.28624686607E+03  0.31245757833E+03  0.00000000000E+00 0.  1.
</event>
<event>
 7    1  0.2564986E-009  0.9420425E+02  0.7561462E-02  0.1292978E+00
         -2   -1    0    0    0  501 -0.00000000000E+00  0.00000000000E+00  0.24025342894E+02  0.24025342894E+02  0.00000000000E+00 0.  1.
          2   -1    0    0  501    0  0.00000000000E+00 -0.00000000000E+00 -0.95755728172E+03  0.95755728172E+03  0.00000000000E+00 0. -1.
         25    2    1    2    0    0 -0.34950792388E+02 -0.89308401877E+01 -0.82228486618E+03  0.83252682198E+03  0.12508873000E+03 0.  0.
          5    1    3    3  502    0 -0.54126364159E+02  0.20344791909E+02 -0.74865089124E+03  0.75089227137E+03  0.41800000000E+01 0.  1.
         -5    1    3    3    0  502  0.19175571771E+02 -0.29275632096E+02 -0.73633974943E+02  0.81634550610E+02  0.41800000000E+01 0.  1.
        -11    1    1    2    0    0  0.59675594081E+02  0.26052116135E+02 -0.54835147173E+02  0.85128036801E+02  0.00000000000E+00 0.  1.
         11    1    1    2    0    0 -0.24724801693E+02 -0.17121275947E+02 -0.56411925471E+02  0.63927765831E+02  0.00000000000E+00 0. -1.
</event>
<event>
 7    1  0.2564986E-009  0.1779357E+03  0.7561462E-02  0.1169816E+00
          1   -1    0    0  501    0  0.00000000000E+00  0.00000000000E+00  0.22212756318E+03  0.22212756318E+03  0.00000000000E+00 0. -1.
         -1   -1    0    0    0  501 -0.00000000000E+00 -0.00000000000E+00 -0.17542596230E+03  0.17542596230E+03  0.00000000000E+00 0.  1.
         25    2    1    2    0    0 -0.14141021746E+03 -0.53916032841E+01  0.10940016067E+03  0.21827259751E+03  0.12509441506E+03 0.  0.
          5    1    3    3  502    0 -0.13184672729E+03  0.43480505194E+02  0.79525393238E+02  0.16004959981E+03  0.41800000000E+01 0. -1.
         -5    1    3    3    0  502 -0.95634901688E+01 -0.48872108478E+02  0.29874767435E+02  0.58222997695E+02  0.41800000000E+01 0. -1.
        -11    1    1    2    0    0  0.12191483791E+03  0.39127060719E+02 -0.39780160980E+02  0.13407690253E+03  0.00000000000E+00 0.  1.
         11    1    1    2    0    0  0.19495379550E+02 -0.33735457435E+02 -0.22918398812E+02  0.45204025443E+02  0.00000000000E+00 0. -1.
</event>
<event>
 7    1  0.2564986E-009  0.1212278E+03  0.7561462E-02  0.1241085E+00
          2   -1    0    0  501    0  0.00000000000E+00  0.00000000000E+00  0.64307071443E+02  0.64307071443E+02  0.00000000000E+00 0. -1.
         -2   -1    0    0    0  501 -0.00000000000E+00 -0.00000000000E+00 -0.27753000727E+03  0.27753000727E+03  0.00000000000E+00 0.  1.
         25    2    1    2    0    0 -0.65533780007E+02 -0.13341617455E+02 -0.54718383460E+02  0.15203332246E+03  0.12508938632E+03 0.  0.
          5    1    3    3  502    0  0.79740140557E+01 -0.53564119304E+02 -0.50822454648E+01  0.54552739582E+02  0.41800000000E+01 0. -1.
         -5    1    3    3    0  502 -0.73507794062E+02  0.40222501849E+02 -0.49636137995E+02  0.97480582877E+02  0.41800000000E+01 0. -1.
        -11    1    1    2    0    0  0.37965865195E+02  0.47204257435E+02 -0.97387024477E+02  0.11469037177E+03  0.00000000000E+00 0.  1.
         11    1    1    2    0    0  0.27567914812E+02 -0.33862639980E+02 -0.61117527888E+02  0.75113384484E+02  0.00000000000E+00 0. -1.
</event>
<event>
 7    1  0.2564986E-009  0.1241791E+03  0.7561462E-02  0.1236358E+00
          1   -1    0    0  501    0  0.00000000000E+00  0.00000000000E+00  0.17488752845E+03  0.17488752845E+03  0.00000000000E+00 0. -1.
         -1   -1    0    0    0  501 -0.00000000000E+00 -0.00000000000E+00 -0.15404842101E+03  0.15404842101E+03  0.00000000000E+00 0.  1.
         25    2    1    2    0    0 -0.50337149859E+02  0.49299736812E+02  0.11174443668E+03  0.18192545053E+03  0.12508300330E+03 0.  0.
          5    1    3    3  502    0  0.13692655689E+02  0.65639052052E+02  0.22602452243E+02  0.70882418282E+02  0.41800000000E+01 0. -1.
         -5    1    3    3    0  502 -0.64029805548E+02 -0.16339315240E+02  0.89141984437E+02  0.11104303225E+03  0.41800000000E+01 0. -1.
        -11    1    1    2    0    0  0.50324602649E+01  0.26327082918E+02 -0.27627798744E+02  0.38493326886E+02  0.00000000000E+00 0. -1.
         11    1    1    2    0    0  0.45304689594E+02 -0.75626819730E+02 -0.63277530499E+02  0.10851717204E+03  0.00000000000E+00 0.  1.
</event>
<event>
 7    1  0.2564986E-009  0.1583796E+03  0.7561462E-02  0.1190538E+00
          4   -1    0    0  501    0  0.00000000000E+00  0.00000000000E+00  0.30020240112E+02  0.30020240112E+02  0.00000000000E+00 0.  1.
         -4   -1    0    0    0  501 -0.00000000000E+00 -0.00000000000E+00 -0.97477850583E+03  0.97477850583E+03  0.00000000000E+00 0. -1.
         25    2    1    2    0    0 -0.62596077511E+02 -0.11702824104E+03 -0.52245692523E+03  0.55337419906E+03  0.12509151588E+03 0.  0.
          5    1    3    3  502    0 -0.55024606781E+02  0.35274795129E+01 -0.23734739364E+03  0.24370352506E+03  0.41800000000E+01 0. -1.
         -5    1    3    3    0  502 -0.75714707305E+01 -0.12055572056E+03 -0.28510953159E+03  0.30967067400E+03  0.41800000000E+01 0. -1.
        -11    1    1    2    0    0  0.69510789930E+02  0.96443166475E+02 -0.40907273750E+03  0.42599711130E+03  0.00000000000E+00 0.  1.
         11    1    1    2    0    0 -0.69147124182E+01  0.20585074570E+02 -0.13228602993E+02  0.25427435577E+02  0.00000000000E+00 0. -1.
</event>
<event>
 7    1  0.2564986E-009  0.1327455E+03  0.7561462E-02  0.1223438E+00
         -2   -1    0    0    0  501 -0.00000000000E+00  0.00000000000E+00  0.51376860115E+02  0.51376860115E+02  0.00000000000E+00 0. -1.
          2   -1    0    0  501    0  0.00000000000E+00 -0.00000000000E+00 -0.42968138614E+03  0.42968138614E+03  0.00000000000E+00 0.  1.
         25    2    1    2    0    0  0.72108608874E+00  0.96091037524E+02 -0.16655182603E+03  0.22939282245E+03  0.12509016260E+03 0.  0.
          5    1    3    3  502    0  0.55456478523E+02  0.56607226147E+02 -0.47521150797E+02  0.92496114704E+02  0.41800000000E+01 0. -1.
         -5    1    3    3    0  502 -0.54735392434E+02  0.39483811376E+02 -0.11903067523E+03  0.13689670775E+03  0.41800000000E+01 0. -1.
        -11    1    1    2    0    0 -0.33703463963E+02 -0.32194647828E+02 -0.14935948124E+03  0.15646300990E+03  0.00000000000E+00 0.  1.
         11    1    1    2    0    0  0.32982377874E+02 -0.63896389696E+02 -0.62393218767E+02  0.95202413911E+02  0.00000000000E+00 0. -1.
</event>
<event>
 7    1  0.2564986E-009  0.1667093E+03  0.7561462E-02  0.1181324E+00
          2   -1    0    0  501    0  0.00000000000E+00  0.00000000000E+00  0.61026202038E+03  0.61026202038E+03  0.00000000000E+00 0. -1.
         -2   -1    0    0    0  501 -0.00000000000E+00 -0.00000000000E+00 -0.57010857331E+02  0.57010857331E+02  0.00000000000E+00 0.  1.
         25    2    1    2    0    0  0.14972069373E+03  0.53187714922E+01  0.25629056772E+03  0.32214274960E+03  0.12508605262E+03 0.  0.
          5    1    3    3  502    0  0.12099369014E+03  0.49277748312E+02  0.22680180317E+03  0.26177146493E+03  0.41800000000E+01 0. -1.
         -5    1    3    3    0  502  0.28727003582E+02 -0.43958976820E+02  0.29488764553E+02  0.60371284670E+02  0.41800000000E+01 0. -1.
        -11    1    1    2    0    0 -0.67186229631E+02 -0.63710470839E+01  0.47927883611E+02  0.82774764998E+02  0.00000000000E+00 0.  1.
         11    1    1    2    0    0 -0.82534464095E+02  0.10522755917E+01  0.24903271172E+03  0.26235536311E+03  0.00000000000E+00 0. -1.
</event>
<event>
 7    1  0.2564986E-009  0.7862212E+02  0.7561462E-02  0.1333008E+00
         -2   -1    0    0    0  501 -0.00000000000E+00  0.00000000000E+00  0.95866215673E+02  0.95866215673E+02  0.00000000000E+00 0.  1.
          2   -1    0    0  501    0  0.00000000000E+00 -0.00000000000E+00 -0.13949130232E+03  0.13949130232E+03  0.00000000000E+00 0. -1.
         25    2    1    2    0    0 -0.32929603314E+02 -0.22990131874E+02 -0.17589232811E+02  0.13255145825E+03  0.12509037946E+03 0.  0.
          5    1    3    3  502    0 -0.37327096613E+02  0.29803839648E+02  0.33770478134E+02  0.58647238577E+02  0.41800000000E+01 0.  1.
         -5    1    3    3    0  502  0.43974932991E+01 -0.52793971522E+02 -0.51359710945E+02  0.73904219668E+02  0.41800000000E+01 0.  1.
        -11    1    1    2    0    0  0.67389460179E+00  0.23876937099E+02  0.29876025753E+02  0.38251002261E+02  0.00000000000E+00 0.  1.
         11    1    1    2    0    0  0.32255708712E+02 -0.88680522528E+00 -0.55911879585E+02  0.64555057484E+02  0.00000000000E+00 0. -1.
</event>
<event>
 7    1  0.2564986E-009  0.9761498E+02  0.7561462E-02  0.1285393E+00
          1   -1    0    0  501    0  0.00000000000E+00  0.00000000000E+00  0.28282656836E+02  0.28282656836E+02  0.00000000000E+00 0. -1.
         -1   -1    0    0    0  501 -0.00000000000E+00 -0.00000000000E+00 -0.46774474073E+03  0.46774474073E+03  0.00000000000E+00 0.  1.
         25    2    1    2    0    0 -0.13419871884E+02 -0.32940620684E+02 -0.27022479261E+03  0.29988965233E+03  0.12508871884E+03 0.  0.
          5    1    3    3  502    0  0.89418545594E+01  0.33032232093E+02 -0.19195928918E+03  0.19503057766E+03  0.41800000000E+01 0.  1.
         -5    1    3    3    0  502 -0.22361726443E+02 -0.65972852776E+02 -0.78265503428E+02  0.10485907467E+03  0.41800000000E+01 0.  1.
        -11    1    1    2    0    0 -0.34282339548E+02  0.24810685443E+01 -0.29218279625E+02  0.45112552247E+02  0.00000000000E+00 0.  1.
         11    1    1    2    0    0  0.47702211431E+02  0.30459552139E+02 -0.14001901165E+03  0.15102519299E+03  0.00000000000E+00 0. -1.
</event>
<event>
 7    1  0.2564986E-009  0.1206458E+03  0.7561462E-02  0.1242035E+00
          2   -1    0    0  501    0  0.00000000000E+00  0.00000000000E+00  0.16004493917E+03  0.16004493917E+03  0.00000000000E+00 0.  1.
         -2   -1    0    0    0  501 -0.00000000000E+00 -0.00000000000E+00 -0.13255463729E+03  0.13255463729E+03  0.00000000000E+00 0. -1.
         25    2    1    2    0    0  0.78952832869E+02  0.12823514456E+02 -0.40287008252E+02  0.15384519383E+03  0.12508920133E+03 0.  0.
          5    1    3    3  502    0  0.91078329554E+02 -0.12372299397E+02 -0.67880038749E+02  0.11433944187E+03  0.41800000000E+01 0.  1.
         -5    1    3    3    0  502 -0.12125496685E+02  0.25195813853E+02  0.27593030497E+02  0.39505751955E+02  0.41800000000E+01 0.  1.
        -11    1    1    2    0    0 -0.64791959266E+00  0.31180570312E+02  0.19473771616E+02  0.36767860228E+02  0.00000000000E+00 0.  1.
         11    1    1    2    0    0 -0.78304913276E+02 -0.44004084769E+02  0.48303538515E+02  0.10198652241E+03  0.00000000000E+00 0. -1.
</event>
<event>
 7    1  0.2564986E-009  0.1091889E+03  0.7561462E-02  0.1262079E+00
          2   -1    0    0  501    0  0.00000000000E+00  0.00000000000E+00  0.34518256652E+03  0.34518256652E+03  0.00000000000E+00 0.  1.
         -2   -1    0    0    0  501 -0.00000000000E+00 -0.00000000000E+00 -0.11994024121E+03  0.11994024121E+03  0.00000000000E+00 0. -1.
         25    2    1    2    0    0 -0.75472675868E+02  0.35948075419E+02  0.28846416537E+03  0.32534161031E+03  0.12508876755E+03 0.  0.
          5    1    3    3  502    0 -0.54369172674E+02  0.48609067149E+02  0.29120620444E+03  0.30022886978E+03  0.41800000000E+01 0. -1.
         -5    1    3    3    0  502 -0.21103503195E+02 -0.12660991730E+02 -0.27420390674E+01  0.25112740530E+02  0.41800000000E+01 0. -1.
        -11    1    1    2    0    0 -0.19027613006E+02  0.61609959410E+00 -0.25137855431E+02  0.31533179527E+02  0.00000000000E+00 0. -1.
         11    1    1    2    0    0  0.94500288874E+02 -0.36564175013E+02 -0.38083984625E+02  0.10824801789E+03  0.00000000000E+00 0.  1.
</event>
<event>
 7    1  0.2564986E-009  0.1274914E+03  0.7561462E-02  0.1231226E+00
          2   -1    0    0  501    0  0.00000000000E+00  0.00000000000E+00  0.90551903251E+03  0.90551903251E+03  0.00000000000E+00 0. -1.
         -2   -1    0    0    0  501 -0.00000000000E+00 -0.00000000000E+00 -0.25842942931E+02  0.25842942931E+02  0.00000000000E+00 0.  1.
         25    2    1    2    0    0  0.36849778625E+02  0.93258132381E+02  0.57835814277E+03  0.60016794857E+03  0.12509372385E+03 0.  0.
          5    1    3    3  502    0 -0.12820899805E+02 -0.14395262304E+02  0.15901442418E+02  0.25336284645E+02  0.41800000000E+01 0. -1.
         -5    1    3    3    0  502  0.49670678431E+02  0.10765339469E+03  0.56245670035E+03  0.57483166393E+03  0.41800000000E+01 0. -1.
        -11    1    1    2    0    0  0.15637713584E+01 -0.73334994753E+02  0.93087290321E+02  0.11851460018E+03  0.00000000000E+00 0.  1.
         11    1    1    2    0    0 -0.38413549984E+02 -0.19923137628E+02  0.20823065649E+03  0.21267942669E+03  0.00000000000E+00 0. -1.
</event>
<event>
 7    1  0.2564986E-009  0.1031194E+03  0.7561462E-02  0.1273870E+00
         -3   -1    0    0    0  501 -0.00000000000E+00  0.00000000000E+00  0.31626397309E+02  0.31626397309E+02  0.00000000000E+00 0.  1.
          3   -1    0    0  501    0  0.00000000000E+00 -0.00000000000E+00 -0.53780454359E+03  0.53780454359E+03  0.00000000000E+00 0. -1.
         25    2    1    2    0    0 -0.42839084406E+02 -0.19535339182E+02 -0.39769060094E+03  0.41955066140E+03  0.12509247290E+03 0.  0.
          5    1    3    3  502    0  0.40791670124E+02 -0.19055376905E+02 -0.19639459334E+03  0.20153256916E+03  0.41800000000E+01 0. -1.
         -5    1    3    3    0  502 -0.83630754530E+02 -0.47996227710E+00 -0.20129600760E+03  0.21801809224E+03  0.41800000000E+01 0. -1.
        -11    1    1    2    0    0  0.31992661337E+02  0.41730012705E+02 -0.17222691054E+02  0.55331233737E+02  0.00000000000E+00 0.  1.
         11    1    1    2    0    0  0.10846423069E+02 -0.22194673524E+02 -0.91264854284E+02  0.94549045758E+02  0.00000000000E+00 0. -1.
</event>
<event>
 7    1  0.2564986E-009  0.8821371E+02  0.7561462E-02  0.1307236E+00
         -2   -1    0    0    0  501 -0.00000000000E+00  0.00000000000E+00  0.32400528295E+03  0.32400528295E+03  0.00000000000E+00 0.  1.
          2   -1    0    0  501    0  0.00000000000E+00 -0.00000000000E+00 -0.43528688744E+02  0.43528688744E+02  0.00000000000E+00 0. -1.
         25    2    1    2    0    0 -0.68203932532E+01  0.43694114400E+02  0.21029420076E+03  0.24865281093E+03  0.12509546801E+03 0.  0.
          5    1    3    3  502    0  0.43990876313E+02 -0.14086053090E+02  0.12689107553E+03  0.13510156009E+03  0.41800000000E+01 0. -1.
         -5    1    3    3    0  502 -0.50811269566E+02  0.57780167490E+02  0.83403125232E+02  0.11355125085E+03  0.41800000000E+01 0. -1.
        -11    1    1    2    0    0 -0.11575686924E+02 -0.17490134459E+02  0.82086103171E+02  0.84723253389E+02  0.00000000000E+00 0.  1.
         11    1    1    2    0    0  0.18396080177E+02 -0.26203979941E+02 -0.11903709724E+02  0.34157907369E+02  0.00000000000E+00 0. -1.
</event>
<event>
 7    1  0.2564986E-009  0.1031797E+03  0.7561462E-02  0.1273748E+00
          2   -1    0    0  501    0  0.00000000000E+00  0.00000000000E+00  0.63270606329E+02  0.63270606329E+02  0.00000000000E+00 0. -1.
         -2   -1    0    0    0  501 -0.00000000000E+00 -0.00000000000E+00 -0.30483621784E+03  0.30483621784E+03  0.00000000000E+00 0.  1.
         25    2    1    2    0    0 -0.27827391543E+02 -0.71698439337E+02 -0.82483700088E+02  0.16842292696E+03  0.12509073356E+03 0.  0.
          5    1    3    3  502    0 -0.17553649986E+01  0.58172163000E+01  0.29097015110E+02  0.30017161759E+02  0.41800000000E+01 0. -1.
         -5    1    3    3    0  502 -0.26072026545E+02 -0.77515655637E+02 -0.11158071520E+03  0.13840576520E+03  0.41800000000E+01 0. -1.
        -11    1    1    2    0    0  0.59259326266E+02  0.57618332485E+02 -0.13254839053E+03  0.15620696470E+03  0.00000000000E+00 0. -1.
         11    1    1    2    0    0 -0.31431934723E+02  0.14080106852E+02 -0.26533520890E+02  0.43476932507E+02  0.00000000000E+00 0.  1.
</event>
<event>
 7    1  0.2564986E-009  0.8644535E+02  0.7561462E-02  0.1311695E+00
         -1   -1    0    0    0  501 -0.00000000000E+00  0.00000000000E+00  0.45688973344E+03  0.45688973344E+03  0.00000000000E+00 0.  1.
          1   -1    0    0  501    0  0.00000000000E+00 -0.00000000000E+00 -0.26293729356E+02  0.26293729356E+02  0.00000000000E+00 0. -1.
         25    2    1    2    0    0 -0.12346436862E+02  0.22160774587E+02  0.24791502478E+03  0.27884137944E+03  0.12508845247E+03 0.  0.
          5    1    3    3  502    0 -0.35714033293E+02 -0.43339673729E+02  0.88923820236E+02  0.10525558274E+03  0.41800000000E+01 0.  1.
         -5    1    3    3    0  502  0.23367596431E+02  0.65500448317E+02  0.15899120454E+03  0.17358579670E+03  0.41800000000E+01 0.  1.
        -11    1    1    2    0    0  0.14792985308E+02 -0.32804570747E+02  0.18854335306E+03  0.19194678497E+03  0.00000000000E+00 0.  1.
         11    1    1    2    0    0 -0.24465484455E+01  0.10643796160E+02 -0.58623737581E+01  0.12395298386E+02  0.00000000000E+00 0. -1.
</event>
<event>
 7    1  0.2564986E-009  0.1215307E+03  0.7561462E-02  0.1240593E+00
          2   -1    0    0  501    0  0.00000000000E+00  0.00000000000E+00  0.11551748727E+04  0.11551748727E+04  0.00000000000E+00 0. -1.
         -2   -1    0    0    0  501 -0.00000000000E+00 -0.00000000000E+00 -0.13922286637E+02  0.13922286637E+02  0.00000000000E+00 0.  1.
         25    2    1    2    0    0  0.53110411337E+02  0.36723656623E+02  0.59508140755E+03  0.61150298228E+03  0.12507866718E+03 0.  0.
          5    1    3    3  502    0 -0.33480446635E+02  0.29824451598E+02  0.31580023545E+03  0.31899482649E+03  0.41800000000E+01 0.  1.
         -5    1    3    3    0  502  0.86590857972E+02  0.68992050254E+01  0.27928117210E+03  0.29250815579E+03  0.41800000000E+01 0.  1.
        -11    1    1    2    0    0 -0.65932843016E+02  0.62395768437E+01  0.36483573014E+03  0.37079803410E+03  0.00000000000E+00 0. -1.
         11    1    1    2    0    0  0.12822431678E+02 -0.42963233467E+02  0.18133544837E+03  0.18679614295E+03  0.00000000000E+00 0.  1.
</event>
<event>
 7    1  0.2564986E-009  0.9859266E+02  0.7561462E-02  0.1283284E+00
         -1   -1    0    0    0  501 -0.00000000000E+00  0.00000000000E+00  0.52755223257E+02  0.52755223257E+02  0.00000000000E+00 0. -1.
          1   -1    0    0  501    0  0.00000000000E+00 -0.00000000000E+00 -0.35587341924E+03  0.35587341924E+03  0.00000000000E+00 0.  1.
         25    2    1    2    0    0  0.86617153695E+01 -0.33265469153E+01 -0.29296885901E+03  0.31868549374E+03  0.12507437926E+03 0.  0.
          5    1    3    3  502    0 -0.50100661625E+02 -0.24790741907E+01 -0.21582202666E+03  0.22161417305E+03  0.41800000000E+01 0.  1.
         -5    1    3    3    0  502  0.58762376994E+02 -0.84747272456E+00 -0.77146832343E+02  0.97071320690E+02  0.41800000000E+01 0.  1.
        -11    1    1    2    0    0 -0.55708034874E+01 -0.42066811348E+02  0.31216588271E+01  0.42548739374E+02  0.00000000000E+00 0. -1.
         11    1    1    2    0    0 -0.30909118821E+01  0.45393358263E+02 -0.13270995798E+02  0.47394409377E+02  0.00000000000E+00 0.  1.
</event>
<event>
 7    1  0.2564986E-009  0.9097658E+02  0.7561462E-02  0.1300504E+00
          1   -1    0    0  501    0  0.00000000000E+00  0.00000000000E+00  0.29140722817E+03  0.29140722817E+03  0.00000000000E+00 0. -1.
         -1   -1    0    0    0  501 -0.00000000000E+00 -0.00000000000E+00 -0.72391525620E+02  0.72391525620E+02  0.00000000000E+00 0.  1.
         25    2    1    2    0    0 -0.27278963250E+02  0.39074725578E+02  0.22358576278E+03  0.26059288654E+03  0.12508830155E+03 0.  0.
          5    1    3    3  502    0 -0.50160568262E+02  0.55996805223E+02  0.65151560572E+02  0.99568685080E+02  0.41800000000E+01 0. -1.
         -5    1    3    3    0  502  0.22881605012E+02 -0.16922079645E+02  0.15843420221E+03  0.16102420146E+03  0.41800000000E+01 0. -1.
        -11    1    1    2    0    0  0.43004920926E+02 -0.89708260689E+01 -0.36101735535E+02  0.56861535794E+02  0.00000000000E+00 0.  1.
         11    1    1    2    0    0 -0.15725957676E+02 -0.30103899509E+02  0.31531675309E+02  0.46344331457E+02  0.00000000000E+00 0. -1.
</event>
<event>
 7    1  0.2564986E-009  0.1292745E+03  0.7561462E-02  0.1228536E+00
          1   -1    0    0  501    0  0.00000000000E+00  0.00000000000E+00  0.20908579695E+03  0.20908579695E+03  0.00000000000E+00 0. -1.
         -1   -1    0    0    0  501 -0.00000000000E+00 -0.00000000000E+00 -0.81361036518E+02  0.81361036518E+02  0.00000000000E+00 0.  1.
         25    2    1    2    0    0 -0.52678466362E+02 -0.47717713664E+02  0.84992817356E+02  0.16710265966E+03  0.12509004297E+03 0.  0.
          5    1    3    3  502    0 -0.75291877897E+02 -0.75550776880E+02  0.54539406400E+02  0.11986995460E+03  0.41800000000E+01 0.  1.
         -5    1    3    3    0  502  0.22613411535E+02  0.27833063216E+02  0.30453410955E+02  0.47232705068E+02  0.41800000000E+01 0.  1.
        -11    1    1    2    0    0  0.68087615854E+02  0.27245648332E+01  0.25717037466E+02  0.72833458673E+02  0.00000000000E+00 0. -1.
         11    1    1    2    0    0 -0.15409149492E+02  0.44993148831E+02  0.17014905606E+02  0.50510715127E+02  0.00000000000E+00 0.  1.
</event>
<event>
 7    1  0.2564986E-009  0.1112844E+03  0.7561462E-02  0.1258210E+00
         -1   -1    0    0    0  501 -0.00000000000E+00  0.00000000000E+00  0.52973826314E+03  0.52973826314E+03  0.00000000000E+00 0.  1.
          1   -1    0    0  501    0  0.00000000000E+00 -0.00000000000E+00 -0.32744054914E+02  0.32744054914E+02  0.00000000000E+00 0. -1.
         25    2    1    2    0    0  0.29769865908E+02  0.33989192327E+02  0.14838619766E+03  0.19926614635E+03  0.12508806224E+03 0.  0.
          5    1    3    3  502    0  0.32869444298E+02  0.73718340491E+02  0.13439405389E+03  0.15682483290E+03  0.41800000000E+01 0.  1.
         -5    1    3    3    0  502 -0.30995783899E+01 -0.39729148164E+02  0.13992143768E+02  0.42441313448E+02  0.41800000000E+01 0.  1.
        -11    1    1    2    0    0 -0.28978678491E+01  0.31113084092E+02  0.12026282856E+03  0.12425606453E+03  0.00000000000E+00 0.  1.
         11    1    1    2    0    0 -0.26871998059E+02 -0.65102276419E+02  0.22834518201E+03  0.23896010718E+03  0.00000000000E+00 0. -1.
</event>
<event>
 7    1  0.2564986E-009  0.1376490E+03  0.7561462E-02  0.1216528E+00
          2   -1    0    0  501    0  0.00000000000E+00  0.00000000000E+00  0.23703720650E+04  0.23703720650E+04  0.00000000000E+00 0. -1.
         -2   -1    0    0    0  501 -0.00000000000E+00 -0.00000000000E+00 -0.12122796496E+02  0.12122796496E+02  0.00000000000E+00 0.  1.
         25    2    1    2    0    0  0.11720754596E+03  0.41293484946E+00  0.16137134168E+04  0.16227925733E+04  0.12508782938E+03 0.  0.
          5    1    3    3  502    0  0.72190137672E+02  0.30707336461E+02  0.14018955192E+04  0.14040950379E+04  0.41800000000E+01 0. -1.
         -5    1    3    3    0  502  0.45017408292E+02 -0.30294401611E+02  0.21181789761E+03  0.21869753534E+03  0.41800000000E+01 0. -1.
        -11    1    1    2    0    0 -0.11253731828E+03  0.25992012024E+02  0.68122453118E+03  0.69094652077E+03  0.00000000000E+00 0. -1.
         11    1    1    2    0    0 -0.46702276852E+01 -0.26404946874E+02  0.63311320499E+02  0.68755767390E+02  0.00000000000E+00 0.  1.
</event>
<event>
 7    1  0.2564986E-009  0.1687023E+03  0.7561462E-02  0.1179208E+00
          3   -1    0    0  501    0  0.00000000000E+00  0.00000000000E+00  0.77001491387E+02  0.77001491387E+02  0.00000000000E+00 0. -1.
         -3   -1    0    0    0  501 -0.00000000000E+00 -0.00000000000E+00 -0.49126983931E+03  0.49126983931E+03  0.00000000000E+00 0.  1.
         25    2    1    2    0    0 -0.10056678861E+03  0.11173255979E+03 -0.30518030749E+03  0.36246401586E+03  0.12508916352E+03 0.  0.
          5    1    3    3  502    0 -0.65699488109E+02  0.20043349537E+02 -0.22626024853E+03  0.23649382881E+03  0.41800000000E+01 0. -1.
         -5    1    3    3    0  502 -0.34867300497E+02  0.91689210256E+02 -0.78920058952E+02  0.12597018705E+03  0.41800000000E+01 0. -1.
        -11    1    1    2    0    0  0.16175425395E+02 -0.77771978871E+02 -0.28863604179E+02  0.84517647450E+02  0.00000000000E+00 0.  1.
         11    1    1    2    0    0  0.84391363212E+02 -0.33960580922E+02 -0.80224436259E+02  0.12128966738E+03  0.00000000000E+00 0. -1.
</event>
<event>
 7    1  0.2564986E-009  0.7747891E+02  0.7561462E-02  0.1336362E+00
          2   -1    0    0  501    0  0.00000000000E+00  0.00000000000E+00  0.10362278542E+03  0.10362278542E+03  0.00000000000E+00 0. -1.
         -2   -1    0    0    0  501 -0.00000000000E+00 -0.00000000000E+00 -0.33086228164E+03  0.33086228164E+03  0.00000000000E+00 0.  1.
         25    2    1    2    0    0  0.33818803573E+02 -0.39845024725E+02 -0.28078403207E+03  0.31180455046E+03  0.12510422675E+03 0.  0.
          5    1    3    3  502    0 -0.18228237898E+02 -0.24886438562E+02 -0.24452545103E+03  0.24649903059E+03  0.41800000000E+01 0. -1.
         -5    1    3    3    0  502  0.52047041471E+02 -0.14958586163E+02 -0.36258581041E+02  0.65305519866E+02  0.41800000000E+01 0. -1.
        -11    1    1    2    0    0 -0.39079246596E+02  0.11574915591E+02  0.75971268440E+02  0.86213686929E+02  0.00000000000E+00 0. -1.
         11    1    1    2    0    0  0.52604430231E+01  0.28270109134E+02 -0.22426732593E+02  0.36466829669E+02  0.00000000000E+00 0.  1.
</event>
<event>
 7    1  0.2564986E-009  0.1231173E+03  0.7561462E-02  0.1238041E+00
          1   -1    0    0  501    0  0.00000000000E+00  0.00000000000E+00  0.55902392832E+03  0.55902392832E+03  0.00000000000E+00 0. -1.
         -1   -1    0    0    0  501 -0.00000000000E+00 -0.00000000000E+00 -0.33690389769E+02  0.33690389769E+02  0.00000000000E+00 0.  1.
         25    2    1    2    0    0  0.15254630294E+02 -0.83219018919E+02  0.27616601577E+03  0.31475894114E+03  0.12508962350E+03 0.  0.
          5    1    3    3  502    0  0.22128434025E+02  0.22974532854E+02  0.12992990792E+03  0.13385346512E+03  0.41800000000E+01 0. -1.
         -5    1    3    3    0  502 -0.68738037310E+01 -0.10619355177E+03  0.14623610785E+03  0.18090547602E+03  0.41800000000E+01 0. -1.
        -11    1    1    2    0    0 -0.22910858254E+01  0.91922789901E+02  0.24515735558E+03  0.26183425553E+03  0.00000000000E+00 0. -1.
         11    1    1    2    0    0 -0.12963544469E+02 -0.87037709815E+01  0.40101672000E+01  0.16121121408E+02  0.00000000000E+00 0.  1.
</event>
<event>
 7    1  0.2564986E-009  0.1700012E+03  0.7561462E-02  0.1177847E+00
         -2   -1    0    0    0  501 -0.00000000000E+00  0.00000000000E+00  0.87925543690E+02  0.87925543690E+02  0.00000000000E+00 0.  1.
          2   -1    0    0  501    0  0.00000000000E+00 -0.00000000000E+00 -0.37542699019E+03  0.37542699019E+03  0.00000000000E+00 0. -1.
         25    2    1    2    0    0 -0.93081757510E+01 -0.13934710961E+03 -0.20513815391E+03  0.27790781732E+03  0.12508730411E+03 0.  0.
          5    1    3    3  502    0 -0.47735888821E+02 -0.14083429228E+03 -0.16045273894E+03  0.21880486008E+03  0.41800000000E+01 0.  1.
         -5    1    3    3    0  502  0.38427713070E+02  0.14871826644E+01 -0.44685414964E+02  0.59102957240E+02  0.41800000000E+01 0.  1.
        -11    1    1    2    0    0  0.35527033183E+02  0.88043782337E+02 -0.13882141186E+02  0.95950985086E+02  0.00000000000E+00 0.  1.
         11    1    1    2    0    0 -0.26218857432E+02  0.51303327274E+02 -0.68481151408E+02  0.89493731471E+02  0.00000000000E+00 0. -1.
</event>
<event>
 7    1  0.2564986E-009  0.5890469E+02  0.7561462E-02  0.1402487E+00
          1   -1    0    0  501    0  0.00000000000E+00  0.00000000000E+00  0.12221267901E+03  0.12221267901E+03  0.00000000000E+00 0. -1.
         -1   -1    0    0    0  501 -0.00000000000E+00 -0.00000000000E+00 -0.13253185073E+03  0.13253185073E+03  0.00000000000E+00 0.  1.
         25    2    1    2    0    0  0.51973884729E+02  0.47957524014E+01 -0.55794267000E+02  0.14657653281E+03  0.12508955115E+03 0.  0.
          5    1    3    3  502    0  0.49279284792E+02 -0.96024211025E+01  0.30536715344E+02  0.58911949421E+02  0.41800000000E+01 0. -1.
         -5    1    3    3    0  502  0.26945999372E+01  0.14398173504E+02 -0.86330982344E+02  0.87664583393E+02  0.41800000000E+01 0. -1.
        -11    1    1    2    0    0 -0.21633103943E+02 -0.17702882822E+01  0.67272054378E+02  0.70687017245E+02  0.00000000000E+00 0. -1.
         11    1    1    2    0    0 -0.30340780786E+02 -0.30254641193E+01 -0.21796959096E+02  0.37480979679E+02  0.00000000000E+00 0.  1.
</event>
<event>
 7    1  0.2564986E-009  0.1183206E+03  0.7561462E-02  0.1245894E+00
          1   -1    0    0  501    0  0.00000000000E+00  0.00000000000E+00  0.46505395397E+03  0.46505395397E+03  0.00000000000E+00 0. -1.
         -1   -1    0    0    0  501 -0.00000000000E+00 -0.00000000000E+00 -0.54319263051E+02  0.54319263051E+02  0.00000000000E+00 0.  1.
         25    2    1    2    0    0 -0.82360201627E+02 -0.48215527185E+02  0.32709619174E+03  0.36297076984E+03  0.12509165133E+03 0.  0.
          5    1    3    3  502    0 -0.87239187626E+01 -0.29057834003E+02  0.38532749913E+01  0.30867209198E+02  0.41800000000E+01 0.  1.
         -5    1    3    3    0  502 -0.73636282865E+02 -0.19157693182E+02  0.32324291675E+03  0.33210356064E+03  0.41800000000E+01 0.  1.
        -11    1    1    2    0    0  0.95985042392E+02  0.58796823121E+02  0.81607325313E+02  0.13903219166E+03  0.00000000000E+00 0.  1.
         11    1    1    2    0    0 -0.13624840764E+02 -0.10581295936E+02  0.20311738581E+01  0.17370255519E+02  0.00000000000E+00 0. -1.
</event>
<event>
 7    1  0.2564986E-009  0.1753985E+03  0.7561462E-02  0.1172332E+00
          1   -1    0    0  501    0  0.00000000000E+00  0.00000000000E+00  0.85622832266E+02  0.85622832266E+02  0.00000000000E+00 0. -1.
         -1   -1    0    0    0  501 -0.00000000000E+00 -0.00000000000E+00 -0.37087022631E+03  0.37087022631E+03  0.00000000000E+00 0.  1.
         25    2    1    2    0    0 -0.94888268695E+02  0.10023460470E+03 -0.14798095546E+03  0.23790093183E+03  0.12509088964E+03 0.  0.
          5    1    3    3  502    0 -0.50753385139E+02  0.12408280799E+03 -0.92178327071E+02  0.16274755212E+03  0.41800000000E+01 0.  1.
         -5    1    3    3    0  502 -0.44134883556E+02 -0.23848203282E+02 -0.55802628389E+02  0.75153379707E+02  0.41800000000E+01 0.  1.
        -11    1    1    2    0    0  0.17891089828E+01  0.16736871848E+02 -0.30659683736E+02  0.34976277632E+02  0.00000000000E+00 0. -1.
         11    1    1    2    0    0  0.93099159713E+02 -0.11697147655E+03 -0.10660675485E+03  0.18361584911E+03  0.00000000000E+00 0.  1.
</event>
<event>
 7    1  0.2564986E-009  0.1153014E+03  0.7561462E-02  0.1251056E+00
         -1   -1    0    0    0  501 -0.00000000000E+00  0.00000000000E+00  0.74513972551E+02  0.74513972551E+02  0.00000000000E+00 0.  1.
          1   -1    0    0  501    0  0.00000000000E+00 -0.00000000000E+00 -0.18631952422E+03  0.18631952422E+03  0.00000000000E+00 0. -1.
         25    2    1    2    0    0  0.30391308486E+02 -0.29727008314E+02 -0.49076713913E+02  0.14093969069E+03  0.12509254938E+03 0.  0.
          5    1    3    3  502    0  0.75709840748E+02 -0.35386548293E+02 -0.18141105906E+02  0.85619856982E+02  0.41800000000E+01 0. -1.
         -5    1    3    3    0  502 -0.45318532261E+02  0.56595399791E+01 -0.30935608007E+02  0.55319833711E+02  0.41800000000E+01 0. -1.
        -11    1    1    2    0    0  0.19637242447E+02  0.44717414300E+02 -0.39139978771E+02  0.62587589591E+02  0.00000000000E+00 0. -1.
         11    1    1    2    0    0 -0.50028550933E+02 -0.14990405987E+02 -0.23588858990E+02  0.57306216491E+02  0.00000000000E+00 0.  1.
</event>
<event>
 7    1  0.2564986E-009  0.1316764E+03  0.7561462E-02  0.1224989E+00
          1   -1    0    0  501    0  0.00000000000E+00  0.00000000000E+00  0.33022209023E+03  0.33022209023E+03  0.00000000000E+00 0. -1.
         -1   -1    0    0    0  501 -0.00000000000E+00 -0.00000000000E+00 -0.74212056335E+02  0.74212056335E+02  0.00000000000E+00 0.  1.
         25    2    1    2    0    0 -0.70287650081E+02  0.23817617335E+02  0.24627790230E+03  0.28602535619E+03  0.12510022611E+03 0.  0.
          5    1    3    3  502    0  0.35842809285E+02 -0.17415269140E+01  0.57065764314E+02  0.67540460097E+02  0.41800000000E+01 0. -1.
         -5    1    3    3    0  502 -0.10613045937E+03  0.25559144249E+02  0.18921213799E+03  0.21848489610E+03  0.41800000000E+01 0. -1.
        -11    1    1    2    0    0  0.82892449561E+02  0.84655194766E+01  0.56989379073E+01  0.83518268106E+02  0.00000000000E+00 0.  1.
         11    1    1    2    0    0 -0.12604799479E+02 -0.32283136811E+02  0.40331936793E+01  0.34890522259E+02  0.00000000000E+00 0. -1.
</event>
<event>
 7    1  0.2564986E-009  0.1135767E+03  0.7561462E-02  0.1254086E+00
         -1   -1    0    0    0  501 -0.00000000000E+00  0.00000000000E+00  0.13583528163E+03  0.13583528163E+03  0.00000000000E+00 0.  1.
          1   -1    0    0  501    0  0.00000000000E+00 -0.00000000000E+00 -0.13388773032E+03  0.13388773032E+03  0.00000000000E+00 0. -1.
         25    2    1    2    0    0 -0.46399756064E+02 -0.57019461864E+02 -0.30223525968E+02  0.14820786758E+03  0.12509178269E+03 0.  0.
          5    1    3    3  502    0  0.39147246461E+01 -0.71153279448E+02 -0.55101227298E+02  0.90176115990E+02  0.41800000000E+01 0.  1.
         -5    1    3    3    0  502 -0.50314480711E+02  0.14133817584E+02  0.24877701330E+02  0.58031751586E+02  0.41800000000E+01 0.  1.
        -11    1    1    2    0    0  0.92535470703E+01  0.64742568851E+02 -0.84350856708E+01  0.65942240067E+02  0.00000000000E+00 0. -1.
         11    1    1    2    0    0  0.37146208994E+02 -0.77231069868E+01  0.40606162945E+02  0.55572904308E+02  0.00000000000E+00 0.  1.
</event>
<event>
 7    1  0.2564986E-009  0.1247424E+03  0.7561462E-02  0.1235472E+00
         -3   -1    0    0    0  501 -0.00000000000E+00  0.00000000000E+00  0.77058663368E+03  0.77058663368E+03  0.00000000000E+00 0.  1.
          3   -1    0    0  501    0  0.00000000000E+00 -0.00000000000E+00 -0.22286664462E+02  0.22286664462E+02  0.00000000000E+00 0. -1.
         25    2    1    2    0    0 -0.47604864254E+02  0.53287361117E+02  0.48128057441E+03  0.50237832299E+03  0.12508885704E+03 0.  0.
          5    1    3    3  502    0  0.82595746623E+01 -0.32563492329E+02  0.60877104353E+02  0.69656987020E+02  0.41800000000E+01 0.  1.
         -5    1    3    3    0  502 -0.55864438916E+02  0.85850853446E+02  0.42040347005E+03  0.43272133597E+03  0.41800000000E+01 0.  1.
        -11    1    1    2    0    0 -0.84946463979E+01 -0.56301567091E+02  0.11268943980E+03  0.12625741688E+03  0.00000000000E+00 0. -1.
         11    1    1    2    0    0  0.56099510652E+02  0.30142059743E+01  0.15432995501E+03  0.16423755827E+03  0.00000000000E+00 0.  1.
</event>
<event>
 7    1  0.2564986E-009  0.1110545E+03  0.7561462E-02  0.1258630E+00
         -1   -1    0    0    0  501 -0.00000000000E+00  0.00000000000E+00  0.75703050599E+02  0.75703050599E+02  0.00000000000E+00 0.  1.
          1   -1    0    0  501    0  0.00000000000E+00 -0.00000000000E+00 -0.28158521005E+03  0.28158521005E+03  0.00000000000E+00 0. -1.
         25    2    1    2    0    0 -0.15265227445E+02 -0.69176796727E+02 -0.29369498987E+02  0.14672332507E+03  0.12508681095E+03 0.  0.
          5    1    3    3  502    0  0.23468155304E+02  0.11821716844E+02  0.29152624678E+02  0.39469674792E+02  0.41800000000E+01 0. -1.
         -5    1    3    3    0  502 -0.38733382749E+02 -0.80998513571E+02 -0.58522123665E+02  0.10725365028E+03  0.41800000000E+01 0. -1.
        -11    1    1    2    0    0 -0.31104508211E+02  0.15708195457E+02 -0.10204247543E+03  0.10782812540E+03  0.00000000000E+00 0.  1.
         11    1    1    2    0    0  0.46369735656E+02  0.53468601270E+02 -0.74470185036E+02  0.10273681018E+03  0.00000000000E+00 0. -1.
</event>
<event>
 7    1  0.2564986E-009  0.1810659E+03  0.7561462E-02  0.1166775E+00
         -1   -1    0    0    0  501 -0.00000000000E+00  0.00000000000E+00  0.46514393462E+02  0.46514393462E+02  0.00000000000E+00 0.  1.
          1   -1    0    0  501    0  0.00000000000E+00 -0.00000000000E+00 -0.88389824243E+03  0.88389824243E+03  0.00000000000E+00 0. -1.
         25    2    1    2    0    0 -0.16872287467E+03  0.39255765040E+01 -0.38132780155E+03  0.43536209535E+03  0.12508574359E+03 0.  0.
          5    1    3    3  502    0 -0.16503751392E+03 -0.75866037261E+01 -0.22850609434E+03  0.28200610828E+03  0.41800000000E+01 0. -1.
         -5    1    3    3    0  502 -0.36853607508E+01  0.11512180230E+02 -0.15282170720E+03  0.15335598707E+03  0.41800000000E+01 0. -1.
        -11    1    1    2    0    0  0.58027975905E+02 -0.36666632665E+02 -0.10450148223E+03  0.12502898755E+03  0.00000000000E+00 0.  1.
         11    1    1    2    0    0  0.11069489877E+03  0.32741056161E+02 -0.35155456519E+03  0.37002155299E+03  0.00000000000E+00 0. -1.
</event>
<event>
 7    1  0.2564986E-009  0.6930770E+02  0.7561462E-02  0.1362463E+00
          1   -1    0    0  501    0  0.00000000000E+00  0.00000000000E+00  0.39553317550E+02  0.39553317550E+02  0.00000000000E+00 0. -1.
         -1   -1    0    0    0  501 -0.00000000000E+00 -0.00000000000E+00 -0.38870905769E+03  0.38870905769E+03  0.00000000000E+00 0.  1.
         25    2    1    2    0    0 -0.36323145787E+02  0.56771532726E+01 -0.27877736129E+03  0.30776012495E+03  0.12509147194E+03 0.  0.
          5    1    3    3  502    0 -0.18411095017E+02  0.47644346709E+02 -0.41064254305E+02  0.65671131974E+02  0.41800000000E+01 0. -1.
         -5    1    3    3    0  502 -0.17912050770E+02 -0.41967193437E+02 -0.23771310699E+03  0.24208899298E+03  0.41800000000E+01 0. -1.
        -11    1    1    2    0    0  0.26007281641E+02  0.52355066363E+01 -0.91115435163E+02  0.94898955490E+02  0.00000000000E+00 0.  1.
         11    1    1    2    0    0  0.10315864146E+02 -0.10912659909E+02  0.20737056321E+02  0.25603294793E+02  0.00000000000E+00 0. -1.
</event>
<event>
 7    1  0.2564986E-009  0.3434406E+03  0.7561462E-02  0.1065340E+00
          2   -1    0    0  501    0  0.00000000000E+00  0.00000000000E+00  0.81862309190E+03  0.81862309190E+03  0.00000000000E+00 0. -1.
         -2   -1    0    0    0  501 -0.00000000000E+00 -0.00000000000E+00 -0.17895778263E+03  0.17895778263E+03  0.00000000000E+00 0.  1.
         25    2    1    2    0    0 -0.30368305420E+03  0.13163553009E+03  0.52909529006E+03  0.63650557563E+03  0.12508481782E+03 0.  0.
          5    1    3    3  502    0 -0.46614704960E+02  0.75639860387E+02  0.10740879623E+03  0.13945766779E+03  0.41800000000E+01 0.  1.
         -5    1    3    3    0  502 -0.25706834924E+03  0.55995669703E+02  0.42168649383E+03  0.49704790784E+03  0.41800000000E+01 0.  1.
        -11    1    1    2    0    0  0.51186758150E+02 -0.26156134484E+01  0.49020697000E+02  0.70922171272E+02  0.00000000000E+00 0. -1.
         11    1    1    2    0    0  0.25249629605E+03 -0.12901991664E+03  0.61549322209E+02  0.29015312763E+03  0.00000000000E+00 0.  1.
</event>
<event>
 7    1  0.2564986E-009  0.1143076E+03  0.7561462E-02  0.1252795E+00
          2   -1    0    0  501    0  0.00000000000E+00  0.00000000000E+00  0.29815263141E+02  0.29815263141E+02  0.00000000000E+00 0. -1.
         -2   -1    0    0    0  501 -0.00000000000E+00 -0.00000000000E+00 -0.54499422346E+03  0.54499422346E+03  0.00000000000E+00 0.  1.
         25    2    1    2    0    0 -0.46518753143E+02 -0.48453318749E+02 -0.28160362007E+03  0.31537367018E+03  0.12509290354E+03 0.  0.
          5    1    3    3  502    0 -0.53703733151E+02  0.12326546788E+02 -0.45953548360E+02  0.71869574348E+02  0.41800000000E+01 0. -1.
         -5    1    3    3    0  502  0.71849800083E+01 -0.60779865537E+02 -0.23565007171E+03  0.24350409583E+03  0.41800000000E+01 0. -1.
        -11    1    1    2    0    0  0.53641477861E+02  0.70646064552E+02 -0.19723066966E+03  0.21625959317E+03  0.00000000000E+00 0.  1.
         11    1    1    2    0    0 -0.71227247188E+01 -0.22192745802E+02 -0.36344670598E+02  0.43176223255E+02  0.00000000000E+00 0. -1.
</event>
<event>
 7    1  0.2564986E-009  0.1169831E+03  0.7561462E-02  0.1248159E+00
         -2   -1    0    0    0  501 -0.00000000000E+00  0.00000000000E+00  0.10245542397E+03  0.10245542397E+03  0.00000000000E+00 0.  1.
          2   -1    0    0  501    0  0.00000000000E+00 -0.00000000000E+00 -0.16715271550E+03  0.16715271550E+03  0.00000000000E+00 0. -1.
         25    2    1    2    0    0  0.45083089010E+02  0.24110489128E+02 -0.90869888306E+02  0.16284571896E+03  0.12509033128E+03 0.  0.
          5    1    3    3  502    0  0.32449706852E+01  0.69897930111E+02 -0.64715932218E+02  0.95403746003E+02  0.41800000000E+01 0.  1.
         -5    1    3    3    0  502  0.41838118325E+02 -0.45787440983E+02 -0.26153956088E+02  0.67441972953E+02  0.41800000000E+01 0.  1.
        -11    1    1    2    0    0 -0.66547754145E+02 -0.37518993320E+02  0.10810987914E+02  0.77156697060E+02  0.00000000000E+00 0. -1.
         11    1    1    2    0    0  0.21464665135E+02  0.13408504192E+02  0.15361608865E+02  0.29605723449E+02  0.00000000000E+00 0.  1.
</event>
<event>
 7    1  0.2564986E-009  0.1058897E+03  0.7561462E-02  0.1268376E+00
          2   -1    0    0  501    0  0.00000000000E+00  0.00000000000E+00  0.52844235043E+02  0.52844235043E+02  0.00000000000E+00 0. -1.
         -2   -1    0    0    0  501 -0.00000000000E+00 -0.00000000000E+00 -0.37707616188E+03  0.37707616188E+03  0.00000000000E+00 0.  1.
         25    2    1    2    0    0  0.68590467081E+02  0.55758583673E+02 -0.14259382620E+03  0.20927187165E+03  0.12509214670E+03 0.  0.
          5    1    3    3  502    0  0.78701394060E+01  0.18968189075E+02  0.21747506156E+02  0.30201948862E+02  0.41800000000E+01 0.  1.
         -5    1    3    3    0  502  0.60720327675E+02  0.36790394598E+02 -0.16434133236E+03  0.17906992279E+03  0.41800000000E+01 0.  1.
        -11    1    1    2    0    0 -0.65311907290E+02 -0.14833394956E+01 -0.66000116912E+02  0.92864745529E+02  0.00000000000E+00 0.  1.
         11    1    1    2    0    0 -0.32785597914E+01 -0.54275244178E+02 -0.11563798372E+03  0.12778377974E+03  0.00000000000E+00 0. -1.
</event>
<event>
 7    1  0.2564986E-009  0.2461784E+03  0.7561462E-02  0.1115744E+00
          2   -1    0    0  501    0  0.00000000000E+00  0.00000000000E+00  0.49696399319E+02  0.49696399319E+02  0.00000000000E+00 0. -1.
         -2   -1    0    0    0  501 -0.00000000000E+00 -0.00000000000E+00 -0.16614328491E+04  0.16614328491E+04  0.00000000000E+00 0.  1.
         25    2    1    2    0    0 -0.23151752653E+03 -0.18363702341E+01 -0.12196364441E+04  0.12477034903E+04  0.12508879499E+03 0.  0.
          5    1    3    3  502    0 -0.49728442587E+01 -0.28955277513E+02 -0.24062304378E+03  0.24244599167E+03  0.41800000000E+01 0.  1.
         -5    1    3    3    0  502 -0.22654468227E+03  0.27118907279E+02 -0.97901340032E+03  0.10052574987E+04  0.41800000000E+01 0.  1.
        -11    1    1    2    0    0  0.15179257002E+02 -0.93954740134E+01 -0.89579795693E+02  0.91341253394E+02  0.00000000000E+00 0.  1.
         11    1    1    2    0    0  0.21633826952E+03  0.11231844248E+02 -0.30252020994E+03  0.37208450466E+03  0.00000000000E+00 0. -1.
</event>
<event>
 7    1  0.2564986E-009  0.1029730E+03  0.7561462E-02  0.1274166E+00
         -2   -1    0    0    0  501 -0.00000000000E+00  0.00000000000E+00  0.10009397346E+03  0.10009397346E+03  0.00000000000E+00 0. -1.
          2   -1    0    0  501    0  0.00000000000E+00 -0.00000000000E+00 -0.18746578344E+03  0.18746578344E+03  0.00000000000E+00 0.  1.
         25    2    1    2    0    0  0.60046322858E+02 -0.41910163677E+02 -0.85446419297E+01  0.14519782464E+03  0.12508946665E+03 0.  0.
          5    1    3    3  502    0  0.17637240006E+02  0.96569127086E+01 -0.58309649893E+02  0.61820836849E+02  0.41800000000E+01 0.  1.
         -5    1    3    3    0  502  0.42409082853E+02 -0.51567076385E+02  0.49765007963E+02  0.83376987790E+02  0.41800000000E+01 0.  1.
        -11    1    1    2    0    0 -0.79307686290E+02  0.82574444089E+01 -0.54644530472E+02  0.96663949864E+02  0.00000000000E+00 0.  1.
         11    1    1    2    0    0  0.19261363432E+02  0.33652719268E+02 -0.24182637580E+02  0.45697982403E+02  0.00000000000E+00 0. -1.
</event>
<event>
 7    1  0.2564986E-009  0.1144768E+03  0.7561462E-02  0.1252497E+00
         -1   -1    0    0    0  501 -0.00000000000E+00  0.00000000000E+00  0.40767317541E+03  0.40767317541E+03  0.00000000000E+00 0.  1.
          1   -1    0    0  501    0  0.00000000000E+00 -0.00000000000E+00 -0.88813678829E+02  0.88813678829E+02  0.00000000000E+00 0. -1.
         25    2    1    2    0    0  0.66212046387E+02 -0.30626819278E+02  0.34718442191E+03  0.37617271821E+03  0.12508738531E+03 0.  0.
          5    1    3    3  502    0  0.80007158180E+02 -0.52800330543E+02  0.15584426204E+03  0.18301346037E+03  0.41800000000E+01 0. -1.
         -5    1    3    3    0  502 -0.13795111792E+02  0.22173511265E+02  0.19134015987E+03  0.19315925785E+03  0.41800000000E+01 0. -1.
        -11    1    1    2    0    0  0.60612706849E+01 -0.18301013340E+02  0.13497071541E+02  0.23533742409E+02  0.00000000000E+00 0.  1.
         11    1    1    2    0    0 -0.72273317072E+02  0.48927832618E+02 -0.41821996875E+02  0.96780393613E+02  0.00000000000E+00 0. -1.
</event>
<event>
 7    1  0.2564986E-009  0.2215426E+03  0.7561462E-02  0.1132738E+00
          1   -1    0    0  501    0  0.00000000000E+00  0.00000000000E+00  0.53473360180E+03  0.53473360180E+03  0.00000000000E+00 0. -1.
         -1   -1    0    0    0  501 -0.00000000000E+00 -0.00000000000E+00 -0.11810659933E+03  0.11810659933E+03  0.00000000000E+00 0.  1.
         25    2    1    2    0    0 -0.48301396009E+02  0.18742737705E+03  0.36479232962E+03  0.43148902073E+03  0.12508910720E+03 0.  0.
          5    1    3    3  502    0  0.40152634867E+02  0.73141493835E+02  0.16411003142E+03  0.18415071822E+03  0.41800000000E+01 0.  1.
         -5    1    3    3    0  502 -0.88454030877E+02  0.11428588322E+03  0.20068229820E+03  0.24733830251E+03  0.41800000000E+01 0.  1.
        -11    1    1    2    0    0 -0.88092404469E+01 -0.14123963004E+03  0.29230105454E+02  0.14450133175E+03  0.00000000000E+00 0. -1.
         11    1    1    2    0    0  0.57110636456E+02 -0.46187747008E+02  0.22604567398E+02  0.76849848649E+02  0.00000000000E+00 0.  1.
</event>
<event>
 7    1  0.2564986E-009  0.1858836E+03  0.7561462E-02  0.1162227E+00
         -3   -1    0    0    0  501 -0.00000000000E+00  0.00000000000E+00  0.18194134019E+02  0.18194134019E+02  0.00000000000E+00 0.  1.
          3   -1    0    0  501    0  0.00000000000E+00 -0.00000000000E+00 -0.21295018341E+04  0.21295018341E+04  0.00000000000E+00 0. -1.
         25    2    1    2    0    0 -0.41831143010E+02 -0.15841074222E+03 -0.11903314276E+04  0.12080479453E+04  0.12508845976E+03 0.  0.
          5    1    3    3  502    0  0.22717332321E+02 -0.11469794564E+03 -0.50982872541E+03  0.52308173126E+03  0.41800000000E+01 0. -1.
         -5    1    3    3    0  502 -0.64548475331E+02 -0.43712796576E+02 -0.68050270218E+03  0.68496621401E+03  0.41800000000E+01 0. -1.
        -11    1    1    2    0    0  0.31624544386E+02  0.18957887465E+02 -0.94709451223E+02  0.10163362365E+03  0.00000000000E+00 0.  1.
         11    1    1    2    0    0  0.10206598625E+02  0.13945285476E+03 -0.82626682131E+03  0.83801439925E+03  0.00000000000E+00 0. -1.
</event>
<event>
 7    1  0.2564986E-009  0.1119036E+03  0.7561462E-02  0.1257085E+00
         -2   -1    0    0    0  501 -0.00000000000E+00  0.00000000000E+00  0.14812353443E+02  0.14812353443E+02  0.00000000000E+00 0.  1.
          2   -1    0    0  501    0  0.00000000000E+00 -0.00000000000E+00 -0.92385986667E+03  0.92385986667E+03  0.00000000000E+00 0. -1.
         25    2    1    2    0    0  0.39558839982E+02  0.86888483125E+01 -0.60464767694E+03  0.61877846961E+03  0.12509030065E+03 0.  0.
          5    1    3    3  502    0  0.34673112399E+01  0.64571334823E+02 -0.30457585018E+03  0.31139267885E+03  0.41800000000E+01 0. -1.
         -5    1    3    3    0  502  0.36091528742E+02 -0.55882486511E+02 -0.30007182676E+03  0.30738579076E+03  0.41800000000E+01 0. -1.
        -11    1    1    2    0    0  0.14172247857E+02 -0.31067639337E+02 -0.63910870468E+02  0.72461370311E+02  0.00000000000E+00 0.  1.
         11    1    1    2    0    0 -0.53731087839E+02  0.22378791024E+02 -0.24048896582E+03  0.24743238019E+03  0.00000000000E+00 0. -1.
</event>
<event>
 7    1  0.2564986E-009  0.1921478E+03  0.7561462E-02  0.1156538E+00
         -1   -1    0    0    0  501 -0.00000000000E+00  0.00000000000E+00  0.20614945168E+03  0.20614945168E+03  0.00000000000E+00 0.  1.
          1   -1    0    0  501    0  0.00000000000E+00 -0.00000000000E+00 -0.24462219293E+03  0.24462219293E+03  0.00000000000E+00 0. -1.
         25    2    1    2    0    0 -0.10365058721E+02  0.18251477991E+03  0.51547468852E+02  0.22743163202E+03  0.12509566887E+03 0.  0.
          5    1    3    3  502    0  0.92072953127E+01  0.11040523459E+03 -0.31878268892E+02  0.11535937994E+03  0.41800000000E+01 0. -1.
         -5    1    3    3    0  502 -0.19572354034E+02  0.72109545323E+02  0.83425737744E+02  0.11207225208E+03  0.41800000000E+01 0. -1.
        -11    1    1    2    0    0  0.37632644715E+02 -0.46247321253E+02 -0.52378897738E+02  0.79363591146E+02  0.00000000000E+00 0. -1.
         11    1    1    2    0    0 -0.27267585994E+02 -0.13626745866E+03 -0.37641312356E+02  0.14397642144E+03  0.00000000000E+00 0.  1.
</event>
<event>
 7    1  0.2564986E-009  0.1630663E+03  0.7561462E-02  0.1185278E+00
          2   -1    0    0  501    0  0.00000000000E+00  0.00000000000E+00  0.13215817152E+04  0.13215817152E+04  0.00000000000E+00 0. -1.
         -2   -1    0    0    0  501 -0.00000000000E+00 -0.00000000000E+00 -0.27117629886E+02  0.27117629886E+02  0.00000000000E+00 0.  1.
         25    2    1    2    0    0 -0.13808595308E+03 -0.65748988926E+02  0.64925879051E+03  0.67865757710E+03  0.12509384447E+03 0.  0.
          5    1    3    3  502    0 -0.82790025324E+02 -0.85501090208E+01  0.13785892622E+03  0.16108956700E+03  0.41800000000E+01 0. -1.
         -5    1    3    3    0  502 -0.55295927753E+02 -0.57198879905E+02  0.51139986429E+03  0.51756801011E+03  0.41800000000E+01 0. -1.
        -11    1    1    2    0    0  0.62136765065E+02 -0.81189885393E+00  0.11915752052E+03  0.13438806290E+03  0.00000000000E+00 0.  1.
         11    1    1    2    0    0  0.75949188013E+02  0.66560887780E+02  0.52604777426E+03  0.53565370506E+03  0.00000000000E+00 0. -1.
</event>
<event>
 7    1  0.2564986E-009  0.1315242E+03  0.7561462E-02  0.1225211E+00
          1   -1    0    0  501    0  0.00000000000E+00  0.00000000000E+00  0.87988477801E+02  0.87988477801E+02  0.00000000000E+00 0. -1.
         -1   -1    0    0    0  501 -0.00000000000E+00 -0.00000000000E+00 -0.24317713257E+03  0.24317713257E+03  0.00000000000E+00 0.  1.
         25    2    1    2    0    0 -0.69259465641E+02 -0.56383246476E+02 -0.38032238333E+02  0.15833196362E+03  0.12508643207E+03 0.  0.
          5    1    3    3  502    0  0.24493621377E+02  0.10086649707E+02 -0.33942263518E+02  0.43257688833E+02  0.41800000000E+01 0. -1.
         -5    1    3    3    0  502 -0.93753087018E+02 -0.66469896183E+02 -0.40899748151E+01  0.11507427479E+03  0.41800000000E+01 0. -1.
        -11    1    1    2    0    0 -0.57608070947E+01  0.44980561349E+02 -0.70279548147E+02  0.83640018444E+02  0.00000000000E+00 0.  1.
         11    1    1    2    0    0  0.75020272736E+02  0.11402685127E+02 -0.46876868288E+02  0.89193628304E+02  0.00000000000E+00 0. -1.
</event>
<event>
 7    1  0.2564986E-009  0.1360997E+03  0.7561462E-02  0.1218676E+00
          3   -1    0    0  501    0  0.00000000000E+00  0.00000000000E+00  0.13525321449E+03  0.13525321449E+03  0.00000000000E+00 0. -1.
         -3   -1    0    0    0  501 -0.00000000000E+00 -0.00000000000E+00 -0.15253454010E+03  0.15253454010E+03  0.00000000000E+00 0.  1.
         25    2    1    2    0    0  0.35211992796E+02  0.80450735570E+02  0.21810346204E+02  0.15438745087E+03  0.12509032135E+03 0.  0.
          5    1    3    3  502    0 -0.37236152663E+02  0.59225167751E+02  0.33843608514E+02  0.77826819269E+02  0.41800000000E+01 0. -1.
         -5    1    3    3    0  502  0.72448145459E+02  0.21225567819E+02 -0.12033262310E+02  0.76560631603E+02  0.41800000000E+01 0. -1.
        -11    1    1    2    0    0  0.20765228521E+02 -0.65291147233E+02 -0.12686881298E+02  0.69678444153E+02  0.00000000000E+00 0. -1.
         11    1    1    2    0    0 -0.55977221317E+02 -0.15159588337E+02 -0.26404790517E+02  0.63721859571E+02  0.00000000000E+00 0.  1.
</event>
<event>
 7    1  0.2564986E-009  0.2191118E+03  0.7561462E-02  0.1134547E+00
          1   -1    0    0  501    0  0.00000000000E+00  0.00000000000E+00  0.11130589171E+03  0.11130589171E+03  0.00000000000E+00 0. -1.
         -1   -1    0    0    0  501 -0.00000000000E+00 -0.00000000000E+00 -0.52355419977E+03  0.52355419977E+03  0.00000000000E+00 0.  1.
         25    2    1    2    0    0  0.14464286064E+03  0.15708983054E+03 -0.24631133670E+03  0.34916071805E+03  0.12508061581E+03 0.  0.
          5    1    3    3  502    0  0.23534850087E+02  0.29403734146E+02 -0.13654840540E+03  0.14170888528E+03  0.41800000000E+01 0.  1.
         -5    1    3    3    0  502  0.12110801055E+03  0.12768609639E+03 -0.10976293130E+03  0.20745183277E+03  0.41800000000E+01 0.  1.
        -11    1    1    2    0    0 -0.11772238019E+03 -0.79201445087E+02 -0.13994340914E+03  0.19928769521E+03  0.00000000000E+00 0.  1.
         11    1    1    2    0    0 -0.26920480446E+02 -0.77888385453E+02 -0.25993562217E+02  0.86411678218E+02  0.00000000000E+00 0. -1.
</event>
<event>
 7    1  0.2564986E-009  0.8144346E+02  0.7561462E-02  0.1325004E+00
          2   -1    0    0  501    0  0.00000000000E+00  0.00000000000E+00  0.35046990625E+03  0.35046990625E+03  0.00000000000E+00 0. -1.
         -2   -1    0    0    0  501 -0.00000000000E+00 -0.00000000000E+00 -0.51942065029E+02  0.51942065029E+02  0.00000000000E+00 0.  1.
         25    2    1    2    0    0  0.57082918662E+02  0.88677161194E+01  0.94277523801E+02  0.16695161680E+03  0.12508994710E+03 0.  0.
          5    1    3    3  502    0  0.50566513421E+02  0.45211711101E+02  0.10777843809E+03  0.12741560037E+03  0.41800000000E+01 0.  1.
         -5    1    3    3    0  502  0.65164052418E+01 -0.36343994981E+02 -0.13500914290E+02  0.39536016430E+02  0.41800000000E+01 0.  1.
        -11    1    1    2    0    0 -0.40605673733E+02 -0.63347640464E+01  0.21279510242E+03  0.21672726084E+03  0.00000000000E+00 0. -1.
         11    1    1    2    0    0 -0.16477244929E+02 -0.25329520731E+01 -0.85447850031E+01  0.18733093642E+02  0.00000000000E+00 0.  1.
</event>
<event>
 7    1  0.2564986E-009  0.8797765E+02  0.7561462E-02  0.1307824E+00
          1   -1    0    0  501    0  0.00000000000E+00  0.00000000000E+00  0.21462813495E+04  0.21462813495E+04  0.00000000000E+00 0. -1.
         -1   -1    0    0    0  501 -0.00000000000E+00 -0.00000000000E+00 -0.18367499727E+02  0.18367499727E+02  0.00000000000E+00 0.  1.
         25    2    1    2    0    0  0.56450439252E+02  0.56533687785E+02  0.19106711177E+04  0.19164269452E+04  0.12508159905E+03 0.  0.
          5    1    3    3  502    0  0.39990635627E+02  0.48991490382E+02  0.35296925333E+03  0.35861425413E+03  0.41800000000E+01 0. -1.
         -5    1    3    3    0  502  0.16459803625E+02  0.75421974031E+01  0.15577018643E+04  0.15578126911E+04  0.41800000000E+01 0. -1.
        -11    1    1    2    0    0 -0.52296027689E+02 -0.18104049431E+02  0.43948013645E+02  0.70668656568E+02  0.00000000000E+00 0.  1.
         11    1    1    2    0    0 -0.41544115633E+01 -0.38429638355E+02  0.17329471842E+03  0.17755324743E+03  0.00000000000E+00 0. -1.
</event>
<event>
 7    1  0.2564986E-009  0.3739422E+03  0.7561462E-02  0.1053196E+00
         -2   -1    0    0    0  501 -0.00000000000E+00  0.00000000000E+00  0.13907536612E+03  0.13907536612E+03  0.00000000000E+00 0.  1.
          2   -1    0    0  501    0  0.00000000000E+00 -0.00000000000E+00 -0.10819298947E+04  0.10819298947E+04  0.00000000000E+00 0. -1.
         25    2    1    2    0    0  0.33544911893E+03  0.15839354037E+03 -0.43631092274E+03  0.58619760059E+03  0.12508309483E+03 0.  0.
          5    1    3    3  502    0  0.28873611840E+03  0.10859678759E+03 -0.28441100521E+03  0.41960564894E+03  0.41800000000E+01 0.  1.
         -5    1    3    3    0  502  0.46713000530E+02  0.49796752780E+02 -0.15189991753E+03  0.16659195164E+03  0.41800000000E+01 0.  1.
        -11    1    1    2    0    0 -0.14346512982E+03 -0.66896330113E+02 -0.14144172160E+03  0.21228076470E+03  0.00000000000E+00 0.  1.
         11    1    1    2    0    0 -0.19198398912E+03 -0.91497210255E+02 -0.36510188421E+03  0.42252689550E+03  0.00000000000E+00 0. -1.
</event>
<event>
 7    1  0.2564986E-009  0.1280794E+03  0.7561462E-02  0.1230334E+00
          1   -1    0    0  501    0  0.00000000000E+00  0.00000000000E+00  0.75493713810E+03  0.75493713810E+03  0.00000000000E+00 0. -1.
         -1   -1    0    0    0  501 -0.00000000000E+00 -0.00000000000E+00 -0.36161713199E+02  0.36161713199E+02  0.00000000000E+00 0.  1.
         25    2    1    2    0    0 -0.48119123358E+02  0.11221750677E+03  0.33595674217E+03  0.37871383327E+03  0.12509602727E+03 0.  0.
          5    1    3    3  502    0 -0.33937202202E+02  0.10129173261E+03  0.11508714807E+03  0.15708046613E+03  0.41800000000E+01 0. -1.
         -5    1    3    3    0  502 -0.14181921156E+02  0.10925774158E+02  0.22086959411E+03  0.22163336714E+03  0.41800000000E+01 0. -1.
        -11    1    1    2    0    0  0.62775821399E+01 -0.73791600063E+02  0.10301624139E+03  0.12687377297E+03  0.00000000000E+00 0.  1.
         11    1    1    2    0    0  0.41841541218E+02 -0.38425906708E+02  0.27980244134E+03  0.28551124507E+03  0.00000000000E+00 0. -1.
</event>
<event>
 7    1  0.2564986E-009  0.1201034E+03  0.7561462E-02  0.1242926E+00
          1   -1    0    0  501    0  0.00000000000E+00  0.00000000000E+00  0.14817236639E+03  0.14817236639E+03  0.00000000000E+00 0. -1.
         -1   -1    0    0    0  501 -0.00000000000E+00 -0.00000000000E+00 -0.14741511200E+03  0.14741511200E+03  0.00000000000E+00 0.  1.
         25    2    1    2    0    0  0.69253784871E+02 -0.74030355580E+02  0.43660827983E+01  0.16105350646E+03  0.12507033620E+03 0.  0.
          5    1    3    3  502    0 -0.65553770073E+01 -0.60704673607E+02  0.43031911611E+02  0.74814759121E+02  0.41800000000E+01 0. -1.
         -5    1    3    3    0  502  0.75809161878E+02 -0.13325681972E+02 -0.38665828813E+02  0.86238747338E+02  0.41800000000E+01 0. -1.
        -11    1    1    2    0    0 -0.47131260565E+02  0.42905940616E+02 -0.45150880921E+02  0.78108114242E+02  0.00000000000E+00 0.  1.
         11    1    1    2    0    0 -0.22122524306E+02  0.31124414964E+02  0.41542052517E+02  0.56425857689E+02  0.00000000000E+00 0. -1.
</event>
<event>
 7    1  0.2564986E-009  0.1809404E+03  0.7561462E-02  0.1166896E+00
         -2   -1    0    0    0  501 -0.00000000000E+00  0.00000000000E+00  0.34779196001E+03  0.34779196001E+03  0.00000000000E+00 0.  1.
          2   -1    0    0  501    0  0.00000000000E+00 -0.00000000000E+00 -0.12398567193E+03  0.12398567193E+03  0.00000000000E+00 0. -1.
         25    2    1    2    0    0  0.40660808232E+01 -0.15498631642E+03  0.21271321979E+03  0.29143108901E+03  0.12509146445E+03 0.  0.
          5    1    3    3  502    0  0.46963114793E+02 -0.12613573531E+02  0.37244204515E+02  0.61394132930E+02  0.41800000000E+01 0.  1.
         -5    1    3    3    0  502 -0.42897033969E+02 -0.14237274288E+03  0.17546901528E+03  0.23003695608E+03  0.41800000000E+01 0.  1.
        -11    1    1    2    0    0 -0.21774610224E+02  0.13825068307E+03 -0.19423270215E+02  0.14129631434E+03  0.00000000000E+00 0. -1.
         11    1    1    2    0    0  0.17708529401E+02  0.16735633348E+02  0.30516338512E+02  0.39050228595E+02  0.00000000000E+00 0.  1.
</event>
<event>
 7    1  0.2564986E-009  0.7743997E+02  0.7561462E-02  0.1336477E+00
         -1   -1    0    0    0  501 -0.00000000000E+00  0.00000000000E+00  0.22692154775E+03  0.22692154775E+03  0.00000000000E+00 0.  1.
          1   -1    0    0  501    0  0.00000000000E+00 -0.00000000000E+00 -0.51987258688E+02  0.51987258688E+02  0.00000000000E+00 0. -1.
         25    2    1    2    0    0 -0.26619713562E+02  0.11999995471E+02  0.86612948090E+02  0.15492411399E+03  0.12508824596E+03 0.  0.
          5    1    3    3  502    0 -0.17770327254E+02  0.57141811437E+02  0.38085765148E+01  0.60107809809E+02  0.41800000000E+01 0. -1.
         -5    1    3    3    0  502 -0.88493863074E+01 -0.45141815966E+02  0.82804371576E+02  0.94816304182E+02  0.41800000000E+01 0. -1.
        -11    1    1    2    0    0  0.22580724424E+02  0.11163376669E+02  0.96000016207E+02  0.99249751666E+02  0.00000000000E+00 0.  1.
         11    1    1    2    0    0  0.40389891380E+01 -0.23163372140E+02 -0.76786752325E+01  0.24734940782E+02  0.00000000000E+00 0. -1.
</event>
<event>
 7    1  0.2564986E-009  0.4395978E+03  0.7561462E-02  0.1030870E+00
          2   -1    0    0  501    0  0.00000000000E+00  0.00000000000E+00  0.52622201478E+03  0.52622201478E+03  0.00000000000E+00 0. -1.
         -2   -1    0    0    0  501 -0.00000000000E+00 -0.00000000000E+00 -0.43483791727E+03  0.43483791727E+03  0.00000000000E+00 0.  1.
         25    2    1    2    0    0  0.38778643318E+03  0.19166019313E+03  0.21904283091E+03  0.50073597991E+03  0.12507922452E+03 0.  0.
          5    1    3    3  502    0  0.61683794322E+02 -0.10634409968E+02  0.94006886697E+01  0.63433638590E+02  0.41800000000E+01 0.  1.
         -5    1    3    3    0  502  0.32610263886E+03  0.20229460310E+03  0.20964214224E+03  0.43730234132E+03  0.41800000000E+01 0.  1.
        -11    1    1    2    0    0 -0.87795826861E+02 -0.38620863624E+02 -0.69784763924E+02  0.11861530929E+03  0.00000000000E+00 0. -1.
         11    1    1    2    0    0 -0.29999060632E+03 -0.15303932951E+03 -0.57873969481E+02  0.34170864286E+03  0.00000000000E+00 0.  1.
</event>
<event>
 7    1  0.2564986E-009  0.1922264E+03  0.7561462E-02  0.1156468E+00
          2   -1    0    0  501    0  0.00000000000E+00  0.00000000000E+00  0.90713027425E+03  0.90713027425E+03  0.00000000000E+00 0. -1.
         -2   -1    0    0    0  501 -0.00000000000E+00 -0.00000000000E+00 -0.70008778842E+02  0.70008778842E+02  0.00000000000E+00 0.  1.
         25    2    1    2    0    0 -0.36127141695E+02  0.18109640239E+03  0.69504104180E+03  0.72995236603E+03  0.12508928637E+03 0.  0.
          5    1    3    3  502    0 -0.23703295231E+02  0.15822566579E+03  0.36117073410E+03  0.39504300917E+03  0.41800000000E+01 0.  1.
         -5    1    3    3    0  502 -0.12423846464E+02  0.22870736598E+02  0.33387030770E+03  0.33490935687E+03  0.41800000000E+01 0.  1.
        -11    1    1    2    0    0  0.36569134254E+02 -0.30976287032E+02  0.14207223067E+02  0.49986769506E+02  0.00000000000E+00 0.  1.
         11    1    1    2    0    0 -0.44199255918E+00 -0.15012011536E+03  0.12787323054E+03  0.19719991755E+03  0.00000000000E+00 0. -1.
</event>
<event>
 7    1  0.2564986E-009  0.1110633E+03  0.7561462E-02  0.1258613E+00
          2   -1    0    0  501    0  0.00000000000E+00  0.00000000000E+00  0.21545504445E+02  0.21545504445E+02  0.00000000000E+00 0. -1.
         -2   -1    0    0    0  501 -0.00000000000E+00 -0.00000000000E+00 -0.68005676416E+03  0.68005676416E+03  0.00000000000E+00 0.  1.
         25    2    1    2    0    0 -0.39652710441E+02  0.28069110808E+02 -0.43767474323E+03  0.45779004014E+03  0.12510926248E+03 0.  0.
          5    1    3    3  502    0 -0.71154162664E+01 -0.47544792872E+02 -0.11414518535E+03  0.12392631769E+03  0.41800000000E+01 0. -1.
         -5    1    3    3    0  502 -0.32537294175E+02  0.75613903681E+02 -0.32352955789E+03  0.33386372245E+03  0.41800000000E+01 0. -1.
        -11    1    1    2    0    0  0.61403648111E+02 -0.32159228614E+02 -0.20552746676E+03  0.21690127611E+03  0.00000000000E+00 0.  1.
         11    1    1    2    0    0 -0.21750937669E+02  0.40901178056E+01 -0.15309049718E+02  0.26910952351E+02  0.00000000000E+00 0. -1.
</event>
<event>
 7    1  0.2564986E-009  0.1210700E+03  0.7561462E-02  0.1241342E+00
         -2   -1    0    0    0  501 -0.00000000000E+00  0.00000000000E+00  0.72321656343E+02  0.72321656343E+02  0.00000000000E+00 0.  1.
          2   -1    0    0  501    0  0.00000000000E+00 -0.00000000000E+00 -0.24482695059E+03  0.24482695059E+03  0.00000000000E+00 0. -1.
         25    2    1    2    0    0 -0.31776536439E+02  0.72346011972E+02 -0.87583206408E+02  0.17193105607E+03  0.12508307751E+03 0.  0.
          5    1    3    3  502    0 -0.18918140539E+02 -0.28100185713E+02  0.51966490576E+01  0.34525266690E+02  0.41800000000E+01 0.  1.
         -5    1    3    3    0  502 -0.12858395900E+02  0.10044619769E+03 -0.92779855465E+02  0.13740578938E+03  0.41800000000E+01 0.  1.
        -11    1    1    2    0    0  0.55071090294E+02 -0.51212901593E+02 -0.28120040488E+02  0.80288996462E+02  0.00000000000E+00 0.  1.
         11    1    1    2    0    0 -0.23294553855E+02 -0.21133110379E+02 -0.56802047353E+02  0.64928554404E+02  0.00000000000E+00 0. -1.
</event>
<event>
 7    1  0.2564986E-009  0.1014917E+03  0.7561462E-02  0.1277190E+00
         -1   -1    0    0    0  501 -0.00000000000E+00  0.00000000000E+00  0.53299416040E+02  0.53299416040E+02  0.00000000000E+00 0.  1.
          1   -1    0    0  501    0  0.00000000000E+00 -0.00000000000E+00 -0.47183032513E+03  0.47183032513E+03  0.00000000000E+00 0. -1.
         25    2    1    2    0    0  0.44200241547E+02  0.67261316090E+01 -0.39971887010E+03  0.42121384829E+03  0.12508808370E+03 0.  0.
          5    1    3    3  502    0  0.69440197682E+02  0.24858356803E+02 -0.37230259363E+03  0.37956102616E+03  0.41800000000E+01 0. -1.
         -5    1    3    3    0  502 -0.25239956135E+02 -0.18132225194E+02 -0.27416276464E+02  0.41652822129E+02  0.41800000000E+01 0. -1.
        -11    1    1    2    0    0 -0.70872039764E+01  0.38557136206E+02  0.71831938079E+01  0.39855733413E+02  0.00000000000E+00 0. -1.
         11    1    1    2    0    0 -0.37113037571E+02 -0.45283267815E+02 -0.25995232797E+02  0.64060159459E+02  0.00000000000E+00 0.  1.
</event>
<event>
 7    1  0.2564986E-009  0.9792580E+02  0.7561462E-02  0.1284719E+00
          2   -1    0    0  501    0  0.00000000000E+00  0.00000000000E+00  0.35443910739E+03  0.35443910739E+03  0.00000000000E+00 0. -1.
         -2   -1    0    0    0  501 -0.00000000000E+00 -0.00000000000E+00 -0.55579893745E+02  0.55579893745E+02  0.00000000000E+00 0.  1.
         25    2    1    2    0    0  0.36279436726E+02  0.96546183601E+01  0.45999403829E+02  0.13846920348E+03  0.12509342899E+03 0.  0.
          5    1    3    3  502    0  0.39435369699E+02 -0.36326868115E+02 -0.20412320004E+02  0.57523255630E+02  0.41800000000E+01 0. -1.
         -5    1    3    3    0  502 -0.31559329729E+01  0.45981486475E+02  0.66411723833E+02  0.80945947853E+02  0.41800000000E+01 0. -1.
        -11    1    1    2    0    0  0.25339338820E+02  0.14975775594E+02  0.48992665286E+02  0.57154502870E+02  0.00000000000E+00 0.  1.
         11    1    1    2    0    0 -0.61618775546E+02 -0.24630393954E+02  0.20386714453E+03  0.21439529478E+03  0.00000000000E+00 0. -1.
</event>
<event>
 7    1  0.2564986E-009  0.1471452E+03  0.7561462E-02  0.1204025E+00
         -3   -1    0    0    0  501 -0.00000000000E+00  0.00000000000E+00  0.38717235148E+03  0.38717235148E+03  0.00000000000E+00 0.  1.
          3   -1    0    0  501    0  0.00000000000E+00 -0.00000000000E+00 -0.68014476296E+02  0.68014476296E+02  0.00000000000E+00 0. -1.
         25    2    1    2    0    0 -0.26342593339E+02 -0.10443576238E+03  0.19545394606E+03  0.25583319818E+03  0.12509044558E+03 0.  0.
          5    1    3    3  502    0 -0.57265411915E+02 -0.95930570713E+02  0.84165508401E+02  0.13994036946E+03  0.41800000000E+01 0.  1.
         -5    1    3    3    0  502  0.30922818576E+02 -0.85051916665E+01  0.11128843766E+03  0.11589282873E+03  0.41800000000E+01 0.  1.
        -11    1    1    2    0    0 -0.30878289807E+02 -0.20952402843E+00  0.53701672044E+01  0.31342485184E+02  0.00000000000E+00 0.  1.
         11    1    1    2    0    0  0.57220883146E+02  0.10464528641E+03  0.11833376192E+03  0.16801114441E+03  0.00000000000E+00 0. -1.
</event>
<event>
 7    1  0.2564986E-009  0.1513759E+03  0.7561462E-02  0.1198792E+00
         -2   -1    0    0    0  501 -0.00000000000E+00  0.00000000000E+00  0.14433885447E+02  0.14433885447E+02  0.00000000000E+00 0. -1.
          2   -1    0    0  501    0  0.00000000000E+00 -0.00000000000E+00 -0.18503192978E+04  0.18503192978E+04  0.00000000000E+00 0.  1.
         25    2    1    2    0    0  0.56742798934E+02 -0.95372024986E+02 -0.98213269703E+03  0.99626676979E+03  0.12508906281E+03 0.  0.
          5    1    3    3  502    0  0.61249562504E+02 -0.15427976881E+02 -0.19400285468E+03  0.20406888886E+03  0.41800000000E+01 0.  1.
         -5    1    3    3    0  502 -0.45067635697E+01 -0.79944048105E+02 -0.78812984235E+03  0.79219788093E+03  0.41800000000E+01 0.  1.
        -11    1    1    2    0    0  0.29885932500E+02  0.57340631950E+02 -0.35408299447E+03  0.35993872257E+03  0.00000000000E+00 0. -1.
         11    1    1    2    0    0 -0.86628731434E+02  0.38031393036E+02 -0.49966972088E+03  0.50854769091E+03  0.00000000000E+00 0.  1.
</event>
<event>
 7    1  0.2564986E-009  0.1508650E+03  0.7561462E-02  0.1199414E+00
          1   -1    0    0  501    0  0.00000000000E+00  0.00000000000E+00  0.61395174540E+03  0.61395174540E+03  0.00000000000E+00 0. -1.
         -1   -1    0    0    0  501 -0.00000000000E+00 -0.00000000000E+00 -0.62003641657E+02  0.62003641657E+02  0.00000000000E+00 0.  1.
         25    2    1    2    0    0 -0.75493733770E+02 -0.10454512978E+03  0.12236161509E+03  0.21736956395E+03  0.12509266359E+03 0.  0.
          5    1    3    3  502    0 -0.87736521050E+02 -0.58190067903E+02  0.13137522321E+03  0.16840636212E+03  0.41800000000E+01 0. -1.
         -5    1    3    3    0  502  0.12242787280E+02 -0.46355061878E+02 -0.90136081208E+01  0.48963201830E+02  0.41800000000E+01 0. -1.
        -11    1    1    2    0    0  0.20004857792E+02  0.88134607323E+02  0.16895564585E+03  0.19160875139E+03  0.00000000000E+00 0.  1.
         11    1    1    2    0    0  0.55488875978E+02  0.16410522458E+02  0.26063084280E+03  0.26697707172E+03  0.00000000000E+00 0. -1.
</event>
<event>
 7    1  0.2564986E-009  0.1357039E+03  0.7561462E-02  0.1219229E+00
         -3   -1    0    0    0  501 -0.00000000000E+00  0.00000000000E+00  0.13172075146E+04  0.13172075146E+04  0.00000000000E+00 0.  1.
          3   -1    0    0  501    0  0.00000000000E+00 -0.00000000000E+00 -0.17655719479E+02  0.17655719479E+02  0.00000000000E+00 0. -1.
         25    2    1    2    0    0 -0.15780808223E+02  0.82021740272E+02  0.98233216074E+03  0.99378051260E+03  0.12508650379E+03 0.  0.
          5    1    3    3  502    0  0.42264232660E+02  0.77255209714E+02  0.69552410812E+03  0.70108907434E+03  0.41800000000E+01 0.  1.
         -5    1    3    3    0  502 -0.58045040884E+02  0.47665305582E+01  0.28680805262E+03  0.29269143826E+03  0.41800000000E+01 0.  1.
        -11    1    1    2    0    0  0.54680737840E+02 -0.41158138298E+02  0.15895190452E+03  0.17305976826E+03  0.00000000000E+00 0. -1.
         11    1    1    2    0    0 -0.38899929617E+02 -0.40863601975E+02  0.15826772984E+03  0.16802295319E+03  0.00000000000E+00 0.  1.
</event>
<event>
 7    1  0.2564986E-009  0.1322219E+03  0.7561462E-02  0.1224196E+00
          1   -1    0    0  501    0  0.00000000000E+00  0.00000000000E+00  0.67202953391E+03  0.67202953391E+03  0.00000000000E+00 0. -1.
         -1   -1    0    0    0  501 -0.00000000000E+00 -0.00000000000E+00 -0.27813650945E+02  0.27813650945E+02  0.00000000000E+00 0.  1.
         25    2    1    2    0    0 -0.81199705198E+02 -0.83603595982E+01  0.39381985528E+03  0.42119460071E+03  0.12509006964E+03 0.  0.
          5    1    3    3  502    0 -0.82942150722E+02 -0.56728301655E+02  0.27595112275E+03  0.29370732903E+03  0.41800000000E+01 0. -1.
         -5    1    3    3    0  502  0.17424455234E+01  0.48367942057E+02  0.11786873253E+03  0.12748727169E+03  0.41800000000E+01 0. -1.
        -11    1    1    2    0    0  0.42612885451E+02  0.45074548101E+02  0.87424902099E+02  0.10719461927E+03  0.00000000000E+00 0.  1.
         11    1    1    2    0    0  0.38586819748E+02 -0.36714188503E+02  0.16297112558E+03  0.17145396487E+03  0.00000000000E+00 0. -1.
</event>
<event>
 7    1  0.2564986E-009  0.1068897E+03  0.7561462E-02  0.1266440E+00
         -1   -1    0    0    0  501 -0.00000000000E+00  0.00000000000E+00  0.36976531047E+03  0.36976531047E+03  0.00000000000E+00 0.  1.
          1   -1    0    0  501    0  0.00000000000E+00 -0.00000000000E+00 -0.45215636413E+02  0.45215636413E+02  0.00000000000E+00 0. -1.
         25    2    1    2    0    0 -0.55920944072E+02  0.33455990220E+01  0.24902887253E+03  0.28425411973E+03  0.12508669076E+03 0.  0.
          5    1    3    3  502    0  0.10260603651E+02 -0.32843108149E+02  0.17529865610E+03  0.17869258790E+03  0.41800000000E+01 0. -1.
         -5    1    3    3    0  502 -0.66181547723E+02  0.36188707171E+02  0.73730216434E+02  0.10556153182E+03  0.41800000000E+01 0. -1.
        -11    1    1    2    0    0 -0.21000147804E+02 -0.14954179405E+02  0.33623892321E+02  0.42369798493E+02  0.00000000000E+00 0.  1.
         11    1    1    2    0    0  0.76921091876E+02  0.11608580383E+02  0.41896909202E+02  0.88357028666E+02  0.00000000000E+00 0. -1.
</event>
<event>
 7    1  0.2564986E-009  0.1452586E+03  0.7561462E-02  0.1206423E+00
          2   -1    0    0  501    0  0.00000000000E+00  0.00000000000E+00  0.71267485711E+03  0.71267485711E+03  0.00000000000E+00 0. -1.
         -2   -1    0    0    0  501 -0.00000000000E+00 -0.00000000000E+00 -0.50784421198E+02  0.50784421198E+02  0.00000000000E+00 0.  1.
         25    2    1    2    0    0 -0.68372967040E+02  0.11275353636E+03  0.51504112494E+03  0.54617091278E+03  0.12508830084E+03 0.  0.
          5    1    3    3  502    0 -0.14127093904E+02  0.79063727715E+02  0.44115103169E+03  0.44842207013E+03  0.41800000000E+01 0.  1.
         -5    1    3    3    0  502 -0.54245873135E+02  0.33689808647E+02  0.73890093249E+02  0.97748842650E+02  0.41800000000E+01 0.  1.
        -11    1    1    2    0    0  0.80560000956E+02 -0.10069895813E+03  0.88326183053E+02  0.15630645711E+03  0.00000000000E+00 0. -1.
         11    1    1    2    0    0 -0.12187033917E+02 -0.12054578233E+02  0.58523127918E+02  0.60981908410E+02  0.00000000000E+00 0.  1.
</event>
<event>
 7    1  0.2564986E-009  0.9406422E+02  0.7561462E-02  0.1293298E+00
         -2   -1    0    0    0  501 -0.00000000000E+00  0.00000000000E+00  0.57944514237E+02  0.57944514237E+02  0.00000000000E+00 0.  1.
          2   -1    0    0  501    0  0.00000000000E+00 -0.00000000000E+00 -0.27582583757E+03  0.27582583757E+03  0.00000000000E+00 0. -1.
         25    2    1    2    0    0 -0.19824351005E+02  0.61806407795E+01 -0.40371767981E+02  0.13307191854E+03  0.12508817147E+03 0.  0.
          5    1    3    3  502    0  0.50709154644E+02  0.71399757076E+01  0.61189704871E+00  0.51383308922E+02  0.41800000000E+01 0.  1.
         -5    1    3    3    0  502 -0.70533505649E+02 -0.95933492811E+00 -0.40983665030E+02  0.81688609621E+02  0.41800000000E+01 0.  1.
        -11    1    1    2    0    0  0.17480548177E+02 -0.33966388558E+02 -0.16632345113E+03  0.17065396424E+03  0.00000000000E+00 0. -1.
         11    1    1    2    0    0  0.23438028279E+01  0.27785747778E+02 -0.11186104228E+02  0.30044469027E+02  0.00000000000E+00 0.  1.
</event>
<event>
 7    1  0.2564986E-009  0.1135982E+03  0.7561462E-02  0.1254048E+00
          2   -1    0    0  501    0  0.00000000000E+00  0.00000000000E+00  0.38056114338E+03  0.38056114338E+03  0.00000000000E+00 0. -1.
         -2   -1    0    0    0  501 -0.00000000000E+00 -0.00000000000E+00 -0.45081144182E+02  0.45081144182E+02  0.00000000000E+00 0.  1.
         25    2    1    2    0    0 -0.24400786831E+02  0.32488201907E+02  0.85114481028E+02  0.15666501565E+03  0.12509424681E+03 0.  0.
          5    1    3    3  502    0 -0.38546367182E+02 -0.40653115159E+02  0.44816430201E+02  0.71864337547E+02  0.41800000000E+01 0.  1.
         -5    1    3    3    0  502  0.14145580351E+02  0.73141317066E+02  0.40298050827E+02  0.84800678099E+02  0.41800000000E+01 0.  1.
        -11    1    1    2    0    0 -0.86369537899E+00 -0.59449542707E+02  0.12759900450E+03  0.14077109095E+03  0.00000000000E+00 0.  1.
         11    1    1    2    0    0  0.25264482210E+02  0.26961340800E+02  0.12276651366E+03  0.12820618096E+03  0.00000000000E+00 0. -1.
</event>
<event>
 7    1  0.2564986E-009  0.8254794E+02  0.7561462E-02  0.1321972E+00
          3   -1    0    0  501    0  0.00000000000E+00  0.00000000000E+00  0.88734154690E+03  0.88734154690E+03  0.00000000000E+00 0. -1.
         -3   -1    0    0    0  501 -0.00000000000E+00 -0.00000000000E+00 -0.15116970513E+02  0.15116970513E+02  0.00000000000E+00 0.  1.
         25    2    1    2    0    0 -0.18224519552E+02 -0.28868949892E+01  0.62361002172E+03  0.63630019742E+03  0.12509202522E+03 0.  0.
          5    1    3    3  502    0  0.49048941049E+01 -0.34852015421E+02  0.56138075688E+03  0.56249848671E+03  0.41800000000E+01 0. -1.
         -5    1    3    3    0  502 -0.23129413657E+02  0.31965120432E+02  0.62229264842E+02  0.73801710706E+02  0.41800000000E+01 0. -1.
        -11    1    1    2    0    0  0.52670159663E+02 -0.92087183415E+01  0.10317581475E+03  0.11620755122E+03  0.00000000000E+00 0.  1.
         11    1    1    2    0    0 -0.34445640111E+02  0.12095613331E+02  0.14543873992E+03  0.14995076877E+03  0.00000000000E+00 0. -1.
</event>
<event>
 7    1  0.2564986E-009  0.1246900E+03  0.7561462E-02  0.1235555E+00
          2   -1    0    0  501    0  0.00000000000E+00  0.00000000000E+00  0.12645688522E+04  0.12645688522E+04  0.00000000000E+00 0. -1.
         -2   -1    0    0    0  501 -0.00000000000E+00 -0.00000000000E+00 -0.22305006032E+02  0.22305006032E+02  0.00000000000E+00 0.  1.
         25    2    1    2    0    0 -0.33262909113E+02 -0.11676841418E+03  0.81271253666E+03  0.83119698244E+03  0.12508186400E+03 0.  0.
          5    1    3    3  502    0 -0.29717910319E+02 -0.43898819150E+02  0.65745230688E+03  0.65959932439E+03  0.41800000000E+01 0.  1.
         -5    1    3    3    0  502 -0.35449987947E+01 -0.72869595033E+02  0.15526022978E+03  0.17159765805E+03  0.41800000000E+01 0.  1.
        -11    1    1    2    0    0  0.63680917928E+01  0.59711995465E+02  0.34500984872E+03  0.35019690277E+03  0.00000000000E+00 0. -1.
         11    1    1    2    0    0  0.26894817321E+02  0.57056418718E+02  0.84541460767E+02  0.10547997300E+03  0.00000000000E+00 0.  1.
</event>
<event>
 7    1  0.2564986E-009  0.1495536E+03  0.7561462E-02  0.1201023E+00
          1   -1    0    0  501    0  0.00000000000E+00  0.00000000000E+00  0.96013672471E+03  0.96013672471E+03  0.00000000000E+00 0. -1.
         -1   -1    0    0    0  501 -0.00000000000E+00 -0.00000000000E+00 -0.23783982002E+02  0.23783982002E+02  0.00000000000E+00 0.  1.
         25    2    1    2    0    0  0.17866817255E+02 -0.10415438741E+03  0.53010635628E+03  0.55482252441E+03  0.12509166657E+03 0.  0.
          5    1    3    3  502    0 -0.12109207491E+02 -0.12573696152E+03  0.39800344801E+03  0.41758907245E+03  0.41800000000E+01 0. -1.
         -5    1    3    3    0  502  0.29976024747E+02  0.21582574102E+02  0.13210290826E+03  0.13723345196E+03  0.41800000000E+01 0. -1.
        -11    1    1    2    0    0  0.27344320057E+01 -0.14683430448E+02  0.23932380472E+02  0.28210620042E+02  0.00000000000E+00 0.  1.
         11    1    1    2    0    0 -0.20601249261E+02  0.11883781786E+03  0.38231400596E+03  0.40088756226E+03  0.00000000000E+00 0. -1.
</event>
<event>
 7    1  0.2564986E-009  0.1185965E+03  0.7561462E-02  0.1245430E+00
          1   -1    0    0  501    0  0.00000000000E+00  0.00000000000E+00  0.20635973284E+03  0.20635973284E+03  0.00000000000E+00 0. -1.
         -1   -1    0    0    0  501 -0.00000000000E+00 -0.00000000000E+00 -0.72568719872E+02  0.72568719872E+02  0.00000000000E+00 0.  1.
         25    2    1    2    0    0 -0.45322313734E+01 -0.56460549111E+02  0.75590737033E+02  0.15675620528E+03  0.12510081391E+03 0.  0.
          5    1    3    3  502    0  0.15620423772E+02 -0.90576994111E+02  0.71845665408E+02  0.11673671890E+03  0.41800000000E+01 0. -1.
         -5    1    3    3    0  502 -0.20152655146E+02  0.34116445000E+02  0.37450716248E+01  0.40019486382E+02  0.41800000000E+01 0. -1.
        -11    1    1    2    0    0 -0.38892360969E+02  0.69918880913E+01  0.10516404828E+02  0.40891282828E+02  0.00000000000E+00 0.  1.
         11    1    1    2    0    0  0.43424592343E+02  0.49468661019E+02  0.47683871107E+02  0.81280964604E+02  0.00000000000E+00 0. -1.
</event>
<event>
 7    1  0.2564986E-009  0.1286180E+03  0.7561462E-02  0.1229521E+00
          1   -1    0    0  501    0  0.00000000000E+00  0.00000000000E+00  0.29012231743E+03  0.29012231743E+03  0.00000000000E+00 0. -1.
         -1   -1    0    0    0  501 -0.00000000000E+00 -0.00000000000E+00 -0.79374682715E+02  0.79374682715E+02  0.00000000000E+00 0.  1.
         25    2    1    2    0    0  0.82665114798E+02 -0.22952414481E+02  0.39936992859E+02  0.15685250575E+03  0.12508961038E+03 0.  0.
          5    1    3    3  502    0 -0.18270318755E+02  0.29304427282E+02  0.23389228525E+02  0.41917566923E+02  0.41800000000E+01 0. -1.
         -5    1    3    3    0  502  0.10093543355E+03 -0.52256841763E+02  0.16547764334E+02  0.11493493882E+03  0.41800000000E+01 0. -1.
        -11    1    1    2    0    0 -0.38770005800E+02  0.45160649146E+02  0.37012256944E+02  0.70089262695E+02  0.00000000000E+00 0.  1.
         11    1    1    2    0    0 -0.43895108998E+02 -0.22208234666E+02  0.13379838491E+03  0.14255523170E+03  0.00000000000E+00 0. -1.
</event>
<event>
 7    1  0.2564986E-009  0.1112587E+03  0.7561462E-02  0.1258257E+00
          1   -1    0    0  501    0  0.00000000000E+00  0.00000000000E+00  0.66509589679E+02  0.66509589679E+02  0.00000000000E+00 0. -1.
         -1   -1    0    0    0  501 -0.00000000000E+00 -0.00000000000E+00 -0.21096001091E+03  0.21096001091E+03  0.00000000000E+00 0.  1.
         25    2    1    2    0    0 -0.17778857771E+01  0.46367603048E+02 -0.94428828055E+02  0.16345493442E+03  0.12509035346E+03 0.  0.
          5    1    3    3  502    0 -0.25861403197E+02 -0.32079328087E+02 -0.63182595271E+02  0.75547390498E+02  0.41800000000E+01 0. -1.
         -5    1    3    3    0  502  0.24083517420E+02  0.78446931134E+02 -0.31246232784E+02  0.87907543925E+02  0.41800000000E+01 0. -1.
        -11    1    1    2    0    0  0.43400781092E+02 -0.35084856253E+02 -0.13295108114E+02  0.57370156331E+02  0.00000000000E+00 0.  1.
         11    1    1    2    0    0 -0.41622895315E+02 -0.11282746795E+02 -0.36726485066E+02  0.56644509839E+02  0.00000000000E+00 0. -1.
</event>
<event>
 7    1  0.2564986E-009  0.9964271E+02  0.7561462E-02  0.1281049E+00
          1   -1    0    0  501    0  0.00000000000E+00  0.00000000000E+00  0.39781261469E+02  0.39781261469E+02  0.00000000000E+00 0. -1.
         -1   -1    0    0    0  501 -0.00000000000E+00 -0.00000000000E+00 -0.37931206870E+03  0.37931206870E+03  0.00000000000E+00 0.  1.
         25    2    1    2    0    0 -0.53700794334E+02 -0.16033298723E+02 -0.21201145334E+03  0.25246299310E+03  0.12509142479E+03 0.  0.
          5    1    3    3  502    0  0.40847714550E+02 -0.19866429254E+01 -0.56425850720E+02  0.69812832370E+02  0.41800000000E+01 0.  1.
         -5    1    3    3    0  502 -0.94548508885E+02 -0.14046655798E+02 -0.15558560262E+03  0.18265016073E+03  0.41800000000E+01 0.  1.
        -11    1    1    2    0    0  0.31767573444E+02  0.23296484124E+02 -0.24777385205E+01  0.39472067126E+02  0.00000000000E+00 0. -1.
         11    1    1    2    0    0  0.21933220891E+02 -0.72631854012E+01 -0.12504161537E+03  0.12715826994E+03  0.00000000000E+00 0.  1.
</event>
<event>
 7    1  0.2564986E-009  0.1141305E+03  0.7561462E-02  0.1253106E+00
         -1   -1    0    0    0  501 -0.00000000000E+00  0.00000000000E+00  0.57676447128E+02  0.57676447128E+02  0.00000000000E+00 0.  1.
          1   -1    0    0  501    0  0.00000000000E+00 -0.00000000000E+00 -0.34020610960E+03  0.34020610960E+03  0.00000000000E+00 0. -1.
         25    2    1    2    0    0 -0.40296137830E+02 -0.54492959706E+02 -0.23691491551E+03  0.27634875095E+03  0.12508674421E+03 0.  0.
          5    1    3    3  502    0 -0.62173842714E+02 -0.65815855839E+02 -0.23430776183E+03  0.25122681634E+03  0.41800000000E+01 0. -1.
         -5    1    3    3    0  502  0.21877704884E+02  0.11322896133E+02 -0.26071536837E+01  0.25121934602E+02  0.41800000000E+01 0. -1.
        -11    1    1    2    0    0  0.29740751008E+02  0.79830784907E+02 -0.33817834196E+02  0.91657582333E+02  0.00000000000E+00 0.  1.
         11    1    1    2    0    0  0.10555386822E+02 -0.25337825201E+02 -0.11796912767E+02  0.29876223451E+02  0.00000000000E+00 0. -1.
</event>
<event>
 7    1  0.2564986E-009  0.2801519E+03  0.7561462E-02  0.1095606E+00
         -2   -1    0    0    0  501 -0.00000000000E+00  0.00000000000E+00  0.23613965514E+03  0.23613965514E+03  0.00000000000E+00 0.  1.
          2   -1    0    0  501    0  0.00000000000E+00 -0.00000000000E+00 -0.38060849612E+03  0.38060849612E+03  0.00000000000E+00 0. -1.
         25    2    1    2    0    0  0.32560941681E+02  0.26920756569E+03 -0.14178835948E+03  0.33058224957E+03  0.12509099289E+03 0.  0.
          5    1    3    3  502    0  0.16792077974E+02  0.24429079185E+03 -0.72885724278E+02  0.25551862177E+03  0.41800000000E+01 0.  1.
         -5    1    3    3    0  502  0.15768863707E+02  0.24916773833E+02 -0.68902635204E+02  0.75063627803E+02  0.41800000000E+01 0.  1.
        -11    1    1    2    0    0  0.31075663788E+02 -0.72671760041E+02  0.70814848031E+01  0.79353821675E+02  0.00000000000E+00 0. -1.
         11    1    1    2    0    0 -0.63636605470E+02 -0.19653580565E+03 -0.97619663002E+01  0.20681208002E+03  0.00000000000E+00 0.  1.
</event>
<event>
 7    1  0.2564986E-009  0.7280293E+02  0.7561462E-02  0.1350813E+00
         -2   -1    0    0    0  501 -0.00000000000E+00  0.00000000000E+00  0.11740866861E+03  0.11740866861E+03  0.00000000000E+00 0.  1.
          2   -1    0    0  501    0  0.00000000000E+00 -0.00000000000E+00 -0.11463870668E+03  0.11463870668E+03  0.00000000000E+00 0. -1.
         25    2    1    2    0    0 -0.15175404833E+02 -0.13044595651E+02  0.36768260534E+02  0.13190974051E+03  0.12509124778E+03 0.  0.
          5    1    3    3  502    0  0.43534361557E+01  0.17999289233E+02 -0.41355309698E+02  0.45504514715E+02  0.41800000000E+01 0.  1.
         -5    1    3    3    0  502 -0.19528840988E+02 -0.31043884884E+02  0.78123570232E+02  0.86405225796E+02  0.41800000000E+01 0.  1.
        -11    1    1    2    0    0 -0.29872885170E+02 -0.18112873653E+02 -0.28506037620E+02  0.45089462639E+02  0.00000000000E+00 0. -1.
         11    1    1    2    0    0  0.45048290002E+02  0.31157469304E+02 -0.54922609815E+01  0.55048172143E+02  0.00000000000E+00 0.  1.
</event>
<event>
 7    1  0.2564986E-009  0.1996425E+03  0.7561462E-02  0.1150041E+00
         -1   -1    0    0    0  501 -0.00000000000E+00  0.00000000000E+00  0.16992206336E+02  0.16992206336E+02  0.00000000000E+00 0.  1.
          1   -1    0    0  501    0  0.00000000000E+00 -0.00000000000E+00 -0.28714718764E+04  0.28714718764E+04  0.00000000000E+00 0. -1.
         25    2    1    2    0    0 -0.86730476368E+02 -0.14698720565E+03 -0.19412445469E+04  0.19527430073E+04  0.12508975783E+03 0.  0.
          5    1    3    3  502    0 -0.15990581630E+02 -0.13896048642E+03 -0.13375584207E+04  0.13448589951E+04  0.41800000000E+01 0.  1.
         -5    1    3    3    0  502 -0.70739894738E+02 -0.80267192344E+01 -0.60368612614E+03  0.60788401214E+03  0.41800000000E+01 0.  1.
        -11    1    1    2    0    0  0.97894274671E+02  0.10080642017E+03 -0.80973616308E+03  0.82183810886E+03  0.00000000000E+00 0. -1.
         11    1    1    2    0    0 -0.11163798302E+02  0.46180785486E+02 -0.10349896007E+03  0.11388296658E+03  0.00000000000E+00 0.  1.
</event>
<event>
 7    1  0.2564986E-009  0.1090670E+03  0.7561462E-02  0.1262307E+00
         -1   -1    0    0    0  501 -0.00000000000E+00  0.00000000000E+00  0.61848883941E+03  0.61848883941E+03  0.00000000000E+00 0.  1.
          1   -1    0    0  501    0  0.00000000000E+00 -0.00000000000E+00 -0.21179756234E+02  0.21179756234E+02  0.00000000000E+00 0. -1.
         25    2    1    2    0    0  0.34865303781E+02  0.72464024002E+01  0.32637147196E+03  0.35133090306E+03  0.12508783305E+03 0.  0.
          5    1    3    3  502    0  0.27570728569E+02 -0.57929265837E+02  0.15650074069E+03  0.16919190037E+03  0.41800000000E+01 0.  1.
         -5    1    3    3    0  502  0.72945752124E+01  0.65175668237E+02  0.16987073127E+03  0.18213900269E+03  0.41800000000E+01 0.  1.
        -11    1    1    2    0    0  0.98691119362E+01 -0.34405717474E+02  0.17904561669E+03  0.18258829541E+03  0.00000000000E+00 0.  1.
         11    1    1    2    0    0 -0.44734415718E+02  0.27159315074E+02  0.91891994527E+02  0.10574939718E+03  0.00000000000E+00 0. -1.
</event>
<event>
 7    1  0.2564986E-009  0.2428884E+03  0.7561462E-02  0.1117884E+00
         -1   -1    0    0    0  501 -0.00000000000E+00  0.00000000000E+00  0.23425175806E+03  0.23425175806E+03  0.00000000000E+00 0.  1.
          1   -1    0    0  501    0  0.00000000000E+00 -0.00000000000E+00 -0.35556269389E+03  0.35556269389E+03  0.00000000000E+00 0. -1.
         25    2    1    2    0    0 -0.48159982452E+02  0.21710759915E+03  0.89184307297E+02  0.27028914152E+03  0.12508911159E+03 0.  0.
          5    1    3    3  502    0 -0.80362991677E+02  0.18145285512E+03  0.97828335497E+02  0.22129438467E+03  0.41800000000E+01 0.  1.
         -5    1    3    3    0  502  0.32203009225E+02  0.35654744034E+02 -0.86440281997E+01  0.48994756850E+02  0.41800000000E+01 0.  1.
        -11    1    1    2    0    0 -0.17142684554E+02 -0.12486247223E+03 -0.12771887781E+03  0.17943416719E+03  0.00000000000E+00 0. -1.
         11    1    1    2    0    0  0.65302667006E+02 -0.92245126924E+02 -0.82776365311E+02  0.14009114324E+03  0.00000000000E+00 0.  1.
</event>
<event>
 7    1  0.2564986E-009  0.2090496E+03  0.7561462E-02  0.1142321E+00
         -3   -1    0    0    0  501 -0.00000000000E+00  0.00000000000E+00  0.46594238244E+03  0.46594238244E+03  0.00000000000E+00 0.  1.
          3   -1    0    0  501    0  0.00000000000E+00 -0.00000000000E+00 -0.94753210759E+02  0.94753210759E+02  0.00000000000E+00 0. -1.
         25    2    1    2    0    0 -0.88593935165E+02 -0.15406702225E+03  0.17649957126E+03  0.27997360031E+03  0.12509030947E+03 0.  0.
          5    1    3    3  502    0  0.15569160312E+02  0.12109436536E+02  0.24983997136E+02  0.32104668180E+02  0.41800000000E+01 0.  1.
         -5    1    3    3    0  502 -0.10416309548E+03 -0.16617645878E+03  0.15151557412E+03  0.24786893213E+03  0.41800000000E+01 0.  1.
        -11    1    1    2    0    0  0.16724818402E+02  0.12187822403E+03  0.12794438019E+03  0.17749305752E+03  0.00000000000E+00 0.  1.
         11    1    1    2    0    0  0.71869116763E+02  0.32188798210E+02  0.66745220223E+02  0.10322893537E+03  0.00000000000E+00 0. -1.
</event>
<event>
 7    1  0.2564986E-009  0.1377713E+03  0.7561462E-02  0.1216360E+00
          2   -1    0    0  501    0  0.00000000000E+00  0.00000000000E+00  0.88020968560E+02  0.88020968560E+02  0.00000000000E+00 0. -1.
         -2   -1    0    0    0  501 -0.00000000000E+00 -0.00000000000E+00 -0.36850872904E+03  0.36850872904E+03  0.00000000000E+00 0.  1.
         25    2    1    2    0    0 -0.14080998140E+02  0.12501746237E+03 -0.60488716371E+02  0.18744456019E+03  0.12509571508E+03 0.  0.
          5    1    3    3  502    0 -0.16061020513E+02  0.96720718013E+02 -0.99023529584E+02  0.13941300328E+03  0.41800000000E+01 0. -1.
         -5    1    3    3    0  502  0.19800223722E+01  0.28296744361E+02  0.38534813213E+02  0.48031556912E+02  0.41800000000E+01 0. -1.
        -11    1    1    2    0    0 -0.28433089013E+02 -0.87607922056E+02 -0.17087372353E+03  0.19411702128E+03  0.00000000000E+00 0.  1.
         11    1    1    2    0    0  0.42514087153E+02 -0.37409540318E+02 -0.49125320574E+02  0.74968116121E+02  0.00000000000E+00 0. -1.
</event>
<event>
 7    1  0.2564986E-009  0.1894998E+03  0.7561462E-02  0.1158913E+00
          1   -1    0    0  501    0  0.00000000000E+00  0.00000000000E+00  0.11153003312E+03  0.11153003312E+03  0.00000000000E+00 0. -1.
         -1   -1    0    0    0  501 -0.00000000000E+00 -0.00000000000E+00 -0.42459853131E+03  0.42459853131E+03  0.00000000000E+00 0.  1.
         25    2    1    2    0    0  0.10584252691E+03 -0.13301262776E+03 -0.25971297021E+03  0.33465662926E+03  0.12509689432E+03 0.  0.
          5    1    3    3  502    0  0.92427142418E+02 -0.15640037632E+03 -0.20808150694E+03  0.27625937143E+03  0.41800000000E+01 0.  1.
         -5    1    3    3    0  502  0.13415384489E+02  0.23387748562E+02 -0.51631463268E+02  0.58397257838E+02  0.41800000000E+01 0.  1.
        -11    1    1    2    0    0 -0.65869224831E+02  0.81183352264E+02 -0.79142361404E+02  0.13112209895E+03  0.00000000000E+00 0.  1.
         11    1    1    2    0    0 -0.39973302076E+02  0.51829275496E+02  0.25786833433E+02  0.70349836217E+02  0.00000000000E+00 0. -1.
</event>
<event>
 7    1  0.2564986E-009  0.1398404E+03  0.7561462E-02  0.1213544E+00
         -1   -1    0    0    0  501 -0.00000000000E+00  0.00000000000E+00  0.47949243299E+02  0.47949243299E+02  0.00000000000E+00 0.  1.
          1   -1    0    0  501    0  0.00000000000E+00 -0.00000000000E+00 -0.58895352680E+03  0.58895352680E+03  0.00000000000E+00 0. -1.
         25    2    1    2    0    0 -0.83182766077E+02 -0.97603606258E+02 -0.30429623192E+03  0.35311215053E+03  0.12508460163E+03 0.  0.
          5    1    3    3  502    0 -0.28254958465E+02  0.64892809046E+01 -0.27921685547E+01  0.29423154993E+02  0.41800000000E+01 0. -1.
         -5    1    3    3    0  502 -0.54927807612E+02 -0.10409288716E+03 -0.30150406336E+03  0.32368899553E+03  0.41800000000E+01 0. -1.
        -11    1    1    2    0    0  0.26641767120E+02  0.57281604769E+02 -0.18966896013E+03  0.19991318225E+03  0.00000000000E+00 0. -1.
         11    1    1    2    0    0  0.56540998957E+02  0.40322001488E+02 -0.47039091457E+02  0.83877437325E+02  0.00000000000E+00 0.  1.
</event>
<event>
 7    1  0.2564986E-009  0.1011516E+03  0.7561462E-02  0.1277893E+00
         -2   -1    0    0    0  501 -0.00000000000E+00  0.00000000000E+00  0.14282302745E+03  0.14282302745E+03  0.00000000000E+00 0.  1.
          2   -1    0    0  501    0  0.00000000000E+00 -0.00000000000E+00 -0.12576429498E+03  0.12576429498E+03  0.00000000000E+00 0. -1.
         25    2    1    2    0    0  0.35708935919E+02 -0.67715474253E+02  0.10195005362E+00  0.14665754645E+03  0.12509161435E+03 0.  0.
          5    1    3    3  502    0  0.19899742548E+02 -0.75101616526E+02 -0.50641750367E+02  0.92834863271E+02  0.41800000000E+01 0. -1.
         -5    1    3    3    0  502  0.15809193371E+02  0.73861422731E+01  0.50743700421E+02  0.53822683184E+02  0.41800000000E+01 0. -1.
        -11    1    1    2    0    0 -0.32338975889E+02 -0.58905803315E+01  0.32937311424E+02  0.46533587676E+02  0.00000000000E+00 0.  1.
         11    1    1    2    0    0 -0.33699600310E+01  0.73606054584E+02 -0.15980529009E+02  0.75396188296E+02  0.00000000000E+00 0. -1.
</event>
<event>
 7    1  0.2564986E-009  0.9512857E+02  0.7561462E-02  0.1290887E+00
         -3   -1    0    0    0  501 -0.00000000000E+00  0.00000000000E+00  0.19996026211E+03  0.19996026211E+03  0.00000000000E+00 0.  1.
          3   -1    0    0  501    0  0.00000000000E+00 -0.00000000000E+00 -0.75299631415E+02  0.75299631415E+02  0.00000000000E+00 0. -1.
         25    2    1    2    0    0 -0.31091923412E+02 -0.23026458724E+02  0.23926686495E+02  0.13310774087E+03  0.12509300080E+03 0.  0.
          5    1    3    3  502    0 -0.57581433363E+02  0.52477014160E+01  0.57514583883E+02  0.81661249057E+02  0.41800000000E+01 0. -1.
         -5    1    3    3    0  502  0.26489509951E+02 -0.28274160140E+02 -0.33587897387E+02  0.51446491814E+02  0.41800000000E+01 0. -1.
        -11    1    1    2    0    0  0.16146052959E+01 -0.31388954562E+02  0.60962153019E+02  0.68587590127E+02  0.00000000000E+00 0.  1.
         11    1    1    2    0    0  0.29477318116E+02  0.54415413285E+02  0.39771791182E+02  0.73564562529E+02  0.00000000000E+00 0. -1.
</event>
<event>
 7    1  0.2564986E-009  0.1342798E+03  0.7561462E-02  0.1221240E+00
          1   -1    0    0  501    0  0.00000000000E+00  0.00000000000E+00  0.86435537986E+03  0.86435537986E+03  0.00000000000E+00 0. -1.
         -1   -1    0    0    0  501 -0.00000000000E+00 -0.00000000000E+00 -0.26685578345E+02  0.26685578345E+02  0.00000000000E+00 0.  1.
         25    2    1    2    0    0 -0.90196597956E+02 -0.43274661432E+02  0.54318395451E+03  0.56630791133E+03  0.12509084458E+03 0.  0.
          5    1    3    3  502    0 -0.38352487603E+02 -0.69523123016E+02  0.15942897613E+03  0.17815568688E+03  0.41800000000E+01 0. -1.
         -5    1    3    3    0  502 -0.51844110353E+02  0.26248461584E+02  0.38375497838E+03  0.38815222445E+03  0.41800000000E+01 0. -1.
        -11    1    1    2    0    0  0.78760853662E+02 -0.71494459326E+01  0.22223625356E+03  0.23588840379E+03  0.00000000000E+00 0. -1.
         11    1    1    2    0    0  0.11435744294E+02  0.50424107364E+02  0.72249593448E+02  0.88844643082E+02  0.00000000000E+00 0.  1.
</event>
<event>
 7    1  0.2564986E-009  0.1239228E+03  0.7561462E-02  0.1236762E+00
         -2   -1    0    0    0  501 -0.00000000000E+00  0.00000000000E+00  0.16199447341E+04  0.16199447341E+04  0.00000000000E+00 0.  1.
          2   -1    0    0  501    0  0.00000000000E+00 -0.00000000000E+00 -0.12633077460E+02  0.12633077460E+02  0.00000000000E+00 0. -1.
         25    2    1    2    0    0  0.21789350566E+02  0.65941029987E+02  0.12219757544E+04  0.12303235132E+04  0.12509279613E+03 0.  0.
          5    1    3    3  502    0 -0.38500508584E+01 -0.32224744618E+02  0.14885719728E+03  0.15241126808E+03  0.41800000000E+01 0. -1.
         -5    1    3    3    0  502  0.25639401424E+02  0.98165774604E+02  0.10731185571E+04  0.10779122452E+04  0.41800000000E+01 0. -1.
        -11    1    1    2    0    0  0.34627962036E+02 -0.34994841098E+02  0.20343829973E+03  0.20931047861E+03  0.00000000000E+00 0. -1.
         11    1    1    2    0    0 -0.56417312602E+02 -0.30946188889E+02  0.18189760254E+03  0.19294381974E+03  0.00000000000E+00 0.  1.
</event>
<event>
 7    1  0.2564986E-009  0.1182006E+03  0.7561462E-02  0.1246095E+00
          3   -1    0    0  501    0  0.00000000000E+00  0.00000000000E+00  0.37003672780E+02  0.37003672780E+02  0.00000000000E+00 0.  1.
         -3   -1    0    0    0  501 -0.00000000000E+00 -0.00000000000E+00 -0.40329024245E+03  0.40329024245E+03  0.00000000000E+00 0. -1.
         25    2    1    2    0    0 -0.51084776668E+02  0.11116055963E+02 -0.24946697901E+03  0.28392687421E+03  0.12508986838E+03 0.  0.
          5    1    3    3  502    0  0.19482586624E+02  0.48661451437E+02 -0.71179294681E+02  0.88495606834E+02  0.41800000000E+01 0.  1.
         -5    1    3    3    0  502 -0.70567363293E+02 -0.37545395474E+02 -0.17828768433E+03  0.19543126737E+03  0.41800000000E+01 0.  1.
        -11    1    1    2    0    0  0.48228376934E+02 -0.47256719249E+02 -0.80171150224E+02  0.10481692222E+03  0.00000000000E+00 0.  1.
         11    1    1    2    0    0  0.28563997341E+01  0.36140663285E+02 -0.36648440433E+02  0.51550118800E+02  0.00000000000E+00 0. -1.
</event>
<event>
 7    1  0.2904457E-009  0.7817535E+02  0.7561462E-02  0.1334311E+00
          2   -1    0    0  501    0  0.00000000000E+00  0.00000000000E+00  0.19013766301E+03  0.19013766301E+03  0.00000000000E+00 0. -1.
         -2   -1    0    0    0  501 -0.00000000000E+00 -0.00000000000E+00 -0.10954653820E+03  0.10954653820E+03  0.00000000000E+00 0.  1.
         25    2    1    2    0    0 -0.45362811892E+02 -0.63044436270E+02  0.10010927420E+03  0.17804897260E+03  0.12508870538E+03 0.  0.
          5    1    3    3  502    0 -0.19192315397E+02 -0.20734074606E+02  0.12070822091E+03  0.12404109728E+03  0.41800000000E+01 0.  1.
         -5    1    3    3    0  502 -0.26170496495E+02 -0.42310361664E+02 -0.20598946705E+02  0.54007875317E+02  0.41800000000E+01 0.  1.
        -11    1    1    2    0    0  0.27427225028E+02  0.33418039384E+02 -0.56386046539E+02  0.71052123637E+02  0.00000000000E+00 0.  1.
         11    1    1    2    0    0  0.17935586865E+02  0.29626396886E+02  0.36867897154E+02  0.50583104978E+02  0.00000000000E+00 0. -1.
</event>
<event>
 7    1  0.2564986E-009  0.1117340E+03  0.7561462E-02  0.1257392E+00
         -4   -1    0    0    0  501 -0.00000000000E+00  0.00000000000E+00  0.30075709870E+02  0.30075709870E+02  0.00000000000E+00 0.  1.
          4   -1    0    0  501    0  0.00000000000E+00 -0.00000000000E+00 -0.47273800506E+03  0.47273800506E+03  0.00000000000E+00 0. -1.
         25    2    1    2    0    0  0.19203137330E+02  0.18287613995E+02 -0.27423647508E+03  0.30258211561E+03  0.12508834923E+03 0.  0.
          5    1    3    3  502    0 -0.46867448938E+02 -0.10017801690E+02 -0.62063861444E+02  0.78525851909E+02  0.41800000000E+01 0. -1.
         -5    1    3    3    0  502  0.66070586268E+02  0.28305415685E+02 -0.21217261363E+03  0.22405626370E+03  0.41800000000E+01 0. -1.
        -11    1    1    2    0    0 -0.60383048542E+02 -0.79663987729E+01 -0.12732174794E+03  0.14113965977E+03  0.00000000000E+00 0.  1.
         11    1    1    2    0    0  0.41179911211E+02 -0.10321215222E+02 -0.41104072168E+02  0.59091939550E+02  0.00000000000E+00 0. -1.
</event>
<event>
 7    1  0.2564986E-009  0.1612336E+03  0.7561462E-02  0.1187311E+00
          1   -1    0    0  501    0  0.00000000000E+00  0.00000000000E+00  0.70832396668E+03  0.70832396668E+03  0.00000000000E+00 0. -1.
         -1   -1    0    0    0  501 -0.00000000000E+00 -0.00000000000E+00 -0.49485088399E+02  0.49485088399E+02  0.00000000000E+00 0.  1.
         25    2    1    2    0    0  0.13257160115E+03  0.34078236472E+02  0.49018491180E+03  0.52408524700E+03  0.12509013845E+03 0.  0.
          5    1    3    3  502    0  0.39690774433E+01  0.51643347551E+02  0.97487422030E+02  0.11047198186E+03  0.41800000000E+01 0. -1.
         -5    1    3    3    0  502  0.12860252371E+03 -0.17565111079E+02  0.39269748977E+03  0.41361326514E+03  0.41800000000E+01 0. -1.
        -11    1    1    2    0    0 -0.89238597839E+02 -0.38281249520E+02  0.54057286511E+02  0.11113582516E+03  0.00000000000E+00 0.  1.
         11    1    1    2    0    0 -0.43333003313E+02  0.42030130472E+01  0.11459667997E+03  0.12258798291E+03  0.00000000000E+00 0. -1.
</event>
<event>
 7    1  0.2564986E-009  0.1137444E+03  0.7561462E-02  0.1253789E+00
         -2   -1    0    0    0  501 -0.00000000000E+00  0.00000000000E+00  0.13453741561E+02  0.13453741561E+02  0.00000000000E+00 0.  1.
          2   -1    0    0  501    0  0.00000000000E+00 -0.00000000000E+00 -0.14747969253E+04  0.14747969253E+04  0.00000000000E+00 0. -1.
         25    2    1    2    0    0  0.29425707801E+02 -0.66005546287E+02 -0.10568917618E+04  0.10667189116E+04  0.12508571384E+03 0.  0.
          5    1    3    3  502    0 -0.27668277693E+02 -0.39990435798E+02 -0.15198038129E+03  0.15962542793E+03  0.41800000000E+01 0.  1.
         -5    1    3    3    0  502  0.57093985494E+02 -0.26015110489E+02 -0.90491138050E+03  0.90709348366E+03  0.41800000000E+01 0.  1.
        -11    1    1    2    0    0  0.29112336810E+02  0.21780744019E+01 -0.14798055426E+03  0.15083274380E+03  0.00000000000E+00 0.  1.
         11    1    1    2    0    0 -0.58538044611E+02  0.63827471885E+02 -0.25647086772E+03  0.27069901149E+03  0.00000000000E+00 0. -1.
</event>
<event>
 7    1  0.2564986E-009  0.1503273E+03  0.7561462E-02  0.1200071E+00
          1   -1    0    0  501    0  0.00000000000E+00  0.00000000000E+00  0.53842029645E+03  0.53842029645E+03  0.00000000000E+00 0. -1.
         -1   -1    0    0    0  501 -0.00000000000E+00 -0.00000000000E+00 -0.53138122464E+02  0.53138122464E+02  0.00000000000E+00 0.  1.
         25    2    1    2    0    0  0.12629339583E+03 -0.25599528490E+02  0.27449521530E+03  0.32802557532E+03  0.12509115536E+03 0.  0.
          5    1    3    3  502    0  0.13203414758E+03 -0.52872726991E+02  0.25986976582E+03  0.29627404371E+03  0.41800000000E+01 0. -1.
         -5    1    3    3    0  502 -0.57407517425E+01  0.27273198501E+02  0.14625449475E+02  0.31751531608E+02  0.41800000000E+01 0. -1.
        -11    1    1    2    0    0 -0.10197880304E+03  0.13017188661E+02  0.21254132458E+03  0.23609942423E+03  0.00000000000E+00 0. -1.
         11    1    1    2    0    0 -0.24314592793E+02  0.12582339828E+02 -0.17543658928E+01  0.27433419362E+02  0.00000000000E+00 0.  1.
</event>
<event>
 7    1  0.2564986E-009  0.6799390E+02  0.7561462E-02  0.1367051E+00
         -1   -1    0    0    0  501 -0.00000000000E+00  0.00000000000E+00  0.16983632175E+02  0.16983632175E+02  0.00000000000E+00 0.  1.
          1   -1    0    0  501    0  0.00000000000E+00 -0.00000000000E+00 -0.10351905102E+04  0.10351905102E+04  0.00000000000E+00 0. -1.
         25    2    1    2    0    0  0.34308935751E+02  0.42995574799E+02 -0.78860281071E+03  0.80035570227E+03  0.12509650105E+03 0.  0.
          5    1    3    3  502    0  0.64055891340E+01  0.83231596077E+01 -0.85027892564E+00  0.11335869277E+02  0.41800000000E+01 0.  1.
         -5    1    3    3    0  502  0.27903346617E+02  0.34672415191E+02 -0.78775253178E+03  0.78901983299E+03  0.41800000000E+01 0.  1.
        -11    1    1    2    0    0  0.95179124743E+00 -0.44671449398E+02 -0.43371681593E+02  0.62269953124E+02  0.00000000000E+00 0.  1.
         11    1    1    2    0    0 -0.35260726998E+02  0.16758745995E+01 -0.18623238573E+03  0.18954848699E+03  0.00000000000E+00 0. -1.
</event>
<event>
 7    1  0.2564986E-009  0.9693013E+02  0.7561462E-02  0.1286887E+00
          1   -1    0    0  501    0  0.00000000000E+00  0.00000000000E+00  0.63417638191E+02  0.63417638191E+02  0.00000000000E+00 0. -1.
         -1   -1    0    0    0  501 -0.00000000000E+00 -0.00000000000E+00 -0.19974860865E+03  0.19974860865E+03  0.00000000000E+00 0.  1.
         25    2    1    2    0    0  0.17075751315E+02  0.11540143290E+02 -0.10010454239E+03  0.16153407872E+03  0.12509029935E+03 0.  0.
          5    1    3    3  502    0  0.35568851700E+02 -0.36052472401E+02 -0.97844677614E+02  0.11025414874E+03  0.41800000000E+01 0.  1.
         -5    1    3    3    0  502 -0.18493100384E+02  0.47592615691E+02 -0.22598647725E+01  0.51279929982E+02  0.41800000000E+01 0.  1.
        -11    1    1    2    0    0 -0.45405406626E+02  0.19827610528E+02 -0.32384785018E+02  0.59190872529E+02  0.00000000000E+00 0.  1.
         11    1    1    2    0    0  0.28329655311E+02 -0.31367753818E+02 -0.38416430528E+01  0.42441295585E+02  0.00000000000E+00 0. -1.
</event>
<event>
 7    1  0.2646039E-009  0.1798055E+03  0.7561462E-02  0.1167991E+00
         -1   -1    0    0    0  501 -0.00000000000E+00  0.00000000000E+00  0.26892461716E+03  0.26892461716E+03  0.00000000000E+00 0.  1.
          1   -1    0    0  501    0  0.00000000000E+00 -0.00000000000E+00 -0.15697159165E+03  0.15697159165E+03  0.00000000000E+00 0. -1.
         25    2    1    2    0    0  0.10896485979E+03  0.12737037478E+03  0.97669092225E+01  0.20937687364E+03  0.12508688844E+03 0.  0.
          5    1    3    3  502    0  0.84924305517E+02  0.28158399549E+02 -0.37129509054E+02  0.96959300613E+02  0.41800000000E+01 0. -1.
         -5    1    3    3    0  502  0.24040554272E+02  0.99211975226E+02  0.46896418276E+02  0.11241757303E+03  0.41800000000E+01 0. -1.
        -11    1    1    2    0    0 -0.62654127736E+02 -0.80169687697E+02  0.11010722157E+03  0.14992104185E+03  0.00000000000E+00 0.  1.
         11    1    1    2    0    0 -0.46310732053E+02 -0.47200687079E+02 -0.79211052800E+01  0.66598293318E+02  0.00000000000E+00 0. -1.
</event>
<event>
 7    1  0.2564986E-009  0.1168514E+03  0.7561462E-02  0.1248384E+00
          1   -1    0    0  501    0  0.00000000000E+00  0.00000000000E+00  0.18998004268E+04  0.18998004268E+04  0.00000000000E+00 0. -1.
         -1   -1    0    0    0  501 -0.00000000000E+00 -0.00000000000E+00 -0.10363290522E+02  0.10363290522E+02  0.00000000000E+00 0.  1.
         25    2    1    2    0    0  0.49566544378E+02  0.30699821279E+02  0.14065901593E+04  0.14133444936E+04  0.12508980765E+03 0.  0.
          5    1    3    3  502    0 -0.20781949477E+02  0.47773002414E+02  0.90870969230E+03  0.91021147349E+03  0.41800000000E+01 0. -1.
         -5    1    3    3    0  502  0.70348493854E+02 -0.17073181135E+02  0.49788046701E+03  0.50313302012E+03  0.41800000000E+01 0. -1.
        -11    1    1    2    0    0 -0.64163454041E+02  0.10681359172E+02  0.37124944222E+03  0.37690474740E+03  0.00000000000E+00 0. -1.
         11    1    1    2    0    0  0.14596909663E+02 -0.41381180451E+02  0.11159753471E+03  0.11991447628E+03  0.00000000000E+00 0.  1.
</event>
<event>
 7    1  0.2564986E-009  0.1197653E+03  0.7561462E-02  0.1243485E+00
         -2   -1    0    0    0  501 -0.00000000000E+00  0.00000000000E+00  0.54289567603E+02  0.54289567603E+02  0.00000000000E+00 0. -1.
          2   -1    0    0  501    0  0.00000000000E+00 -0.00000000000E+00 -0.32297196333E+03  0.32297196333E+03  0.00000000000E+00 0.  1.
         25    2    1    2    0    0  0.14845155338E+02  0.67499351765E+02 -0.20084534277E+03  0.24650080433E+03  0.12508898312E+03 0.  0.
          5    1    3    3  502    0 -0.20474996942E+02 -0.31433445786E+02 -0.50708091636E+02  0.63214475962E+02  0.41800000000E+01 0. -1.
         -5    1    3    3    0  502  0.35320152281E+02  0.98932797551E+02 -0.15013725113E+03  0.18328632836E+03  0.41800000000E+01 0. -1.
        -11    1    1    2    0    0 -0.27298144687E+02 -0.76541203081E+02 -0.77740357776E+02  0.11246024942E+03  0.00000000000E+00 0.  1.
         11    1    1    2    0    0  0.12452989348E+02  0.90418513157E+01  0.99033048177E+01  0.18300477186E+02  0.00000000000E+00 0. -1.
</event>
<event>
 7    1  0.2564986E-009  0.9775648E+02  0.7561462E-02  0.1285086E+00
         -2   -1    0    0    0  501 -0.00000000000E+00  0.00000000000E+00  0.17230069517E+03  0.17230069517E+03  0.00000000000E+00 0.  1.
          2   -1    0    0  501    0  0.00000000000E+00 -0.00000000000E+00 -0.71200873284E+02  0.71200873284E+02  0.00000000000E+00 0. -1.
         25    2    1    2    0    0  0.95789744592E+01 -0.22593332584E+02  0.40938566678E+02  0.13388944393E+03  0.12509277167E+03 0.  0.
          5    1    3    3  502    0  0.60653219303E+02 -0.36524019898E+02  0.38565774290E+02  0.80731706212E+02  0.41800000000E+01 0. -1.
         -5    1    3    3    0  502 -0.51074244844E+02  0.13930687314E+02  0.23727923881E+01  0.53157737716E+02  0.41800000000E+01 0. -1.
        -11    1    1    2    0    0 -0.37379035200E+02  0.22606765394E+02  0.38246120754E+00  0.43685288034E+02  0.00000000000E+00 0. -1.
         11    1    1    2    0    0  0.27800060741E+02 -0.13432809047E-01  0.59778793998E+02  0.65926836489E+02  0.00000000000E+00 0.  1.
</event>
<event>
 7    1  0.2564986E-009  0.9599359E+02  0.7561462E-02  0.1288954E+00
          2   -1    0    0  501    0  0.00000000000E+00  0.00000000000E+00  0.92201358126E+03  0.92201358126E+03  0.00000000000E+00 0. -1.
         -2   -1    0    0    0  501 -0.00000000000E+00 -0.00000000000E+00 -0.16358811250E+02  0.16358811250E+02  0.00000000000E+00 0.  1.
         25    2    1    2    0    0  0.30839145642E+02 -0.19044465765E+02  0.68435314894E+03  0.69663566343E+03  0.12509304743E+03 0.  0.
          5    1    3    3  502    0 -0.41660724152E+02  0.10340268022E+02  0.37687218457E+03  0.37933185073E+03  0.41800000000E+01 0. -1.
         -5    1    3    3    0  502  0.72499869793E+02 -0.29384733787E+02  0.30748096437E+03  0.31730381269E+03  0.41800000000E+01 0. -1.
        -11    1    1    2    0    0  0.14889281962E+02  0.19813510547E+02  0.12074187853E+02  0.27569039335E+02  0.00000000000E+00 0.  1.
         11    1    1    2    0    0 -0.45728427604E+02 -0.76904478130E+00  0.20922743322E+03  0.21416768975E+03  0.00000000000E+00 0. -1.
</event>
<event>
 7    1  0.2564986E-009  0.9198149E+02  0.7561462E-02  0.1298123E+00
         -1   -1    0    0    0  501 -0.00000000000E+00  0.00000000000E+00  0.25116694813E+03  0.25116694813E+03  0.00000000000E+00 0.  1.
          1   -1    0    0  501    0  0.00000000000E+00 -0.00000000000E+00 -0.58943239128E+02  0.58943239128E+02  0.00000000000E+00 0. -1.
         25    2    1    2    0    0 -0.51005465265E+02  0.11004312196E+02  0.12520671146E+03  0.18451907378E+03  0.12509162890E+03 0.  0.
          5    1    3    3  502    0 -0.79452107733E+02 -0.26588748086E+02  0.10120952287E+03  0.13145508308E+03  0.41800000000E+01 0.  1.
         -5    1    3    3    0  502  0.28446642468E+02  0.37593060282E+02  0.23997188589E+02  0.53063990703E+02  0.41800000000E+01 0.  1.
        -11    1    1    2    0    0  0.18771638834E+02 -0.26952255714E+00  0.85070898408E+02  0.87117764106E+02  0.00000000000E+00 0.  1.
         11    1    1    2    0    0  0.32233826431E+02 -0.10734789639E+02 -0.18053900868E+02  0.38473349367E+02  0.00000000000E+00 0. -1.
</event>
<event>
 7    1  0.2564986E-009  0.8167549E+02  0.7561462E-02  0.1324363E+00
         -4   -1    0    0    0  501 -0.00000000000E+00  0.00000000000E+00  0.30839650296E+03  0.30839650296E+03  0.00000000000E+00 0.  1.
          4   -1    0    0  501    0  0.00000000000E+00 -0.00000000000E+00 -0.47686700999E+02  0.47686700999E+02  0.00000000000E+00 0. -1.
         25    2    1    2    0    0  0.39287654252E+02  0.17843047636E+02  0.20191368025E+03  0.24141051008E+03  0.12509199007E+03 0.  0.
          5    1    3    3  502    0  0.55055371978E+02  0.37856626279E+02  0.20476831708E+03  0.21543387435E+03  0.41800000000E+01 0.  1.
         -5    1    3    3    0  502 -0.15767717726E+02 -0.20013578643E+02 -0.28546368356E+01  0.25976635730E+02  0.41800000000E+01 0.  1.
        -11    1    1    2    0    0  0.14178939705E+02 -0.78060971084E+01  0.58052950655E+02  0.60267093534E+02  0.00000000000E+00 0.  1.
         11    1    1    2    0    0 -0.53466593957E+02 -0.10036950527E+02  0.74317105565E+00  0.54405600341E+02  0.00000000000E+00 0. -1.
</event>
<event>
 7    1  0.2564986E-009  0.1038657E+03  0.7561462E-02  0.1272371E+00
          2   -1    0    0  501    0  0.00000000000E+00  0.00000000000E+00  0.27048255445E+03  0.27048255445E+03  0.00000000000E+00 0. -1.
         -2   -1    0    0    0  501 -0.00000000000E+00 -0.00000000000E+00 -0.59611547624E+02  0.59611547624E+02  0.00000000000E+00 0.  1.
         25    2    1    2    0    0  0.31720502728E+02 -0.41271065844E+02  0.17470737164E+03  0.22108663633E+03  0.12508854418E+03 0.  0.
          5    1    3    3  502    0  0.58050888756E+02  0.14659185134E+02  0.38115401110E+02  0.71098900103E+02  0.41800000000E+01 0.  1.
         -5    1    3    3    0  502 -0.26330386028E+02 -0.55930250977E+02  0.13659197053E+03  0.14998773622E+03  0.41800000000E+01 0.  1.
        -11    1    1    2    0    0  0.64192243710E+01  0.46779295989E+02 -0.10619258454E+02  0.48397082814E+02  0.00000000000E+00 0.  1.
         11    1    1    2    0    0 -0.38139727099E+02 -0.55082301452E+01  0.46782893636E+02  0.60610382934E+02  0.00000000000E+00 0. -1.
</event>
<event>
 7    1  0.2564986E-009  0.1226394E+03  0.7561462E-02  0.1238805E+00
          1   -1    0    0  501    0  0.00000000000E+00  0.00000000000E+00  0.11495216009E+03  0.11495216009E+03  0.00000000000E+00 0. -1.
         -1   -1    0    0    0  501 -0.00000000000E+00 -0.00000000000E+00 -0.22769607092E+03  0.22769607092E+03  0.00000000000E+00 0.  1.
         25    2    1    2    0    0 -0.51959367913E+02 -0.87388327193E+02  0.10010528518E+02  0.16150001167E+03  0.12508216277E+03 0.  0.
          5    1    3    3  502    0 -0.68299871960E+01 -0.77564967700E+02 -0.44619445287E+02  0.89840638005E+02  0.41800000000E+01 0.  1.
         -5    1    3    3    0  502 -0.45129380717E+02 -0.98233594925E+01  0.54629973804E+02  0.71659373661E+02  0.41800000000E+01 0.  1.
        -11    1    1    2    0    0  0.21697969387E+02  0.88023727693E+02 -0.52768832046E+02  0.10489770325E+03  0.00000000000E+00 0. -1.
         11    1    1    2    0    0  0.30261398526E+02 -0.63540050043E+00 -0.69985607303E+02  0.76250516091E+02  0.00000000000E+00 0.  1.
</event>
<event>
 7    1  0.2564986E-009  0.3431459E+03  0.7561462E-02  0.1065464E+00
          1   -1    0    0  501    0  0.00000000000E+00  0.00000000000E+00  0.74922472585E+03  0.74922472585E+03  0.00000000000E+00 0. -1.
         -1   -1    0    0    0  501 -0.00000000000E+00 -0.00000000000E+00 -0.17332643087E+03  0.17332643087E+03  0.00000000000E+00 0.  1.
         25    2    1    2    0    0 -0.30864099771E+03 -0.12903930151E+03  0.20258706320E+03  0.41060891025E+03  0.12509097569E+03 0.  0.
          5    1    3    3  502    0 -0.20160212282E+03 -0.61924937850E+02  0.18943884897E+03  0.28351836581E+03  0.41800000000E+01 0.  1.
         -5    1    3    3    0  502 -0.10703887490E+03 -0.67114363661E+02  0.13148214226E+02  0.12709054444E+03  0.41800000000E+01 0.  1.
        -11    1    1    2    0    0  0.29093529881E+03  0.87532179828E+02  0.30866750765E+03  0.43310606193E+03  0.00000000000E+00 0. -1.
         11    1    1    2    0    0  0.17705698904E+02  0.41507121683E+02  0.64643724129E+02  0.78836184543E+02  0.00000000000E+00 0.  1.
</event>
<event>
 7    1  0.2564986E-009  0.1117187E+03  0.7561462E-02  0.1257420E+00
         -1   -1    0    0    0  501 -0.00000000000E+00  0.00000000000E+00  0.12043505077E+03  0.12043505077E+03  0.00000000000E+00 0.  1.
          1   -1    0    0  501    0  0.00000000000E+00 -0.00000000000E+00 -0.11793121270E+03  0.11793121270E+03  0.00000000000E+00 0. -1.
         25    2    1    2    0    0  0.34538181528E+01  0.45625114314E+02  0.33629256851E+02  0.13737547368E+03  0.12509002333E+03 0.  0.
          5    1    3    3  502    0  0.56633272535E+02  0.52335597895E+02  0.74725660887E+01  0.77586429283E+02  0.41800000000E+01 0. -1.
         -5    1    3    3    0  502 -0.53179454382E+02 -0.67104835803E+01  0.26156690763E+02  0.59789044397E+02  0.41800000000E+01 0. -1.
        -11    1    1    2    0    0  0.18287304369E+02  0.17726966198E+02 -0.21486862522E+02  0.33322006133E+02  0.00000000000E+00 0.  1.
         11    1    1    2    0    0 -0.21741122522E+02 -0.63352080512E+02 -0.96385562595E+01  0.67668783649E+02  0.00000000000E+00 0. -1.
</event>
<event>
 7    1  0.2564986E-009  0.8742714E+02  0.7561462E-02  0.1309205E+00
          3   -1    0    0  501    0  0.00000000000E+00  0.00000000000E+00  0.48848121496E+02  0.48848121496E+02  0.00000000000E+00 0. -1.
         -3   -1    0    0    0  501 -0.00000000000E+00 -0.00000000000E+00 -0.90531441075E+03  0.90531441075E+03  0.00000000000E+00 0.  1.
         25    2    1    2    0    0 -0.10934475906E+02  0.25486498268E+02 -0.84908575053E+03  0.85869853639E+03  0.12508972894E+03 0.  0.
          5    1    3    3  502    0  0.17505638900E+02 -0.29721191842E+02 -0.62959364779E+03  0.63055168731E+03  0.41800000000E+01 0. -1.
         -5    1    3    3    0  502 -0.28440114806E+02  0.55207690110E+02 -0.21949210274E+03  0.22814684908E+03  0.41800000000E+01 0. -1.
        -11    1    1    2    0    0 -0.26503649260E+02 -0.30144157166E+02  0.23673876727E+02  0.46600065178E+02  0.00000000000E+00 0. -1.
         11    1    1    2    0    0  0.37438125166E+02  0.46576588981E+01 -0.31054415449E+02  0.48863930677E+02  0.00000000000E+00 0.  1.
</event>
<event>
 7    1  0.2564986E-009  0.4098155E+03  0.7561462E-02  0.1040433E+00
         -2   -1    0    0    0  501 -0.00000000000E+00  0.00000000000E+00  0.79467747347E+02  0.79467747347E+02  0.00000000000E+00 0.  1.
          2   -1    0    0  501    0  0.00000000000E+00 -0.00000000000E+00 -0.22874888829E+04  0.22874888829E+04  0.00000000000E+00 0. -1.
         25    2    1    2    0    0 -0.37004765913E+03  0.16386662183E+03 -0.90073464753E+03  0.99536833332E+03  0.12509066281E+03 0.  0.
          5    1    3    3  502    0 -0.32811125701E+03  0.16704352308E+03 -0.70766130441E+03  0.79772334160E+03  0.41800000000E+01 0. -1.
         -5    1    3    3    0  502 -0.41936402124E+02 -0.31769012492E+01 -0.19307334312E+03  0.19764499171E+03  0.41800000000E+01 0. -1.
        -11    1    1    2    0    0  0.32944609067E+03 -0.12330061462E+03 -0.11917678108E+04  0.12425973938E+04  0.00000000000E+00 0. -1.
         11    1    1    2    0    0  0.40601568460E+02 -0.40566007211E+02 -0.11551867717E+03  0.12899090308E+03  0.00000000000E+00 0.  1.
</event>
<event>
 7    1  0.2564986E-009  0.1139696E+03  0.7561462E-02  0.1253391E+00
          2   -1    0    0  501    0  0.00000000000E+00  0.00000000000E+00  0.55885076564E+03  0.55885076564E+03  0.00000000000E+00 0. -1.
         -2   -1    0    0    0  501 -0.00000000000E+00 -0.00000000000E+00 -0.43470946857E+02  0.43470946857E+02  0.00000000000E+00 0.  1.
         25    2    1    2    0    0 -0.41692956243E+02 -0.13953622039E+02  0.47352710702E+03  0.49174069533E+03  0.12509190299E+03 0.  0.
          5    1    3    3  502    0 -0.18234253213E+02  0.52566791744E+02  0.13797860669E+03  0.14883320829E+03  0.41800000000E+01 0. -1.
         -5    1    3    3    0  502 -0.23458703030E+02 -0.66520413783E+02  0.33554850032E+03  0.34290748704E+03  0.41800000000E+01 0. -1.
        -11    1    1    2    0    0  0.27106381543E+02 -0.38474350436E+02  0.12254613279E+02  0.48633394992E+02  0.00000000000E+00 0.  1.
         11    1    1    2    0    0  0.14586574700E+02  0.52427972475E+02  0.29598098485E+02  0.61947622176E+02  0.00000000000E+00 0. -1.
</event>
<event>
 7    1  0.2564986E-009  0.1100881E+03  0.7561462E-02  0.1260407E+00
          1   -1    0    0  501    0  0.00000000000E+00  0.00000000000E+00  0.27153047553E+03  0.27153047553E+03  0.00000000000E+00 0. -1.
         -1   -1    0    0    0  501 -0.00000000000E+00 -0.00000000000E+00 -0.58691834347E+02  0.58691834347E+02  0.00000000000E+00 0.  1.
         25    2    1    2    0    0  0.20022167313E+02  0.59099526931E+02  0.14358044133E+03  0.20039067568E+03  0.12508972180E+03 0.  0.
          5    1    3    3  502    0  0.51627366729E+02  0.11462052350E+02  0.85980167675E+01  0.53741621968E+02  0.41800000000E+01 0.  1.
         -5    1    3    3    0  502 -0.31605199416E+02  0.47637474581E+02  0.13498242456E+03  0.14664905371E+03  0.41800000000E+01 0.  1.
        -11    1    1    2    0    0 -0.45851420000E+02 -0.59709378944E+00  0.29789820645E+02  0.54682196839E+02  0.00000000000E+00 0.  1.
         11    1    1    2    0    0  0.25829252687E+02 -0.58502433141E+02  0.39468379209E+02  0.75149437358E+02  0.00000000000E+00 0. -1.
</event>
<event>
 7    1  0.2564986E-009  0.2247732E+03  0.7561462E-02  0.1130374E+00
          2   -1    0    0  501    0  0.00000000000E+00  0.00000000000E+00  0.19026522455E+03  0.19026522455E+03  0.00000000000E+00 0. -1.
         -2   -1    0    0    0  501 -0.00000000000E+00 -0.00000000000E+00 -0.35994082905E+03  0.35994082905E+03  0.00000000000E+00 0.  1.
         25    2    1    2    0    0 -0.24656622297E+02 -0.22142592387E+03 -0.17527404136E+03  0.30984960911E+03  0.12509357261E+03 0.  0.
          5    1    3    3  502    0  0.11446551968E+01 -0.13680211649E+03 -0.17385842355E+03  0.22126986499E+03  0.41800000000E+01 0.  1.
         -5    1    3    3    0  502 -0.25801277494E+02 -0.84623807372E+02 -0.14156178039E+01  0.88579744119E+02  0.41800000000E+01 0.  1.
        -11    1    1    2    0    0  0.29403895041E+02  0.17667430297E+03  0.40234771212E+02  0.18356806691E+03  0.00000000000E+00 0. -1.
         11    1    1    2    0    0 -0.47472727441E+01  0.44751620896E+02 -0.34636334351E+02  0.56788377584E+02  0.00000000000E+00 0.  1.
</event>
<event>
 7    1  0.2564986E-009  0.1808144E+03  0.7561462E-02  0.1167017E+00
          2   -1    0    0  501    0  0.00000000000E+00  0.00000000000E+00  0.13010465949E+04  0.13010465949E+04  0.00000000000E+00 0.  1.
         -2   -1    0    0    0  501 -0.00000000000E+00 -0.00000000000E+00 -0.28405165752E+02  0.28405165752E+02  0.00000000000E+00 0. -1.
         25    2    1    2    0    0  0.93162177398E+02  0.11984481542E+03  0.80881078295E+03  0.83238425724E+03  0.12508676190E+03 0.  0.
          5    1    3    3  502    0  0.91891126476E+01  0.95021757447E+02  0.57078037168E+03  0.57872383680E+03  0.41800000000E+01 0. -1.
         -5    1    3    3    0  502  0.83973064751E+02  0.24823057977E+02  0.23803041126E+03  0.25366042044E+03  0.41800000000E+01 0. -1.
        -11    1    1    2    0    0 -0.10992222669E+03 -0.82383643757E+02  0.34453684349E+03  0.37091184559E+03  0.00000000000E+00 0. -1.
         11    1    1    2    0    0  0.16760049296E+02 -0.37461171667E+02  0.11929380272E+03  0.12615565783E+03  0.00000000000E+00 0.  1.
</event>
<event>
 7    1  0.2564986E-009  0.1829825E+03  0.7561462E-02  0.1164947E+00
         -2   -1    0    0    0  501 -0.00000000000E+00  0.00000000000E+00  0.12592192810E+03  0.12592192810E+03  0.00000000000E+00 0.  1.
          2   -1    0    0  501    0  0.00000000000E+00 -0.00000000000E+00 -0.33306796406E+03  0.33306796406E+03  0.00000000000E+00 0. -1.
         25    2    1    2    0    0 -0.10392439002E+02 -0.15092242003E+03 -0.20269071986E+03  0.28216395329E+03  0.12508952379E+03 0.  0.
          5    1    3    3  502    0  0.46558194644E+02 -0.12517944273E+03 -0.14054758900E+03  0.19392951180E+03  0.41800000000E+01 0. -1.
         -5    1    3    3    0  502 -0.56950633646E+02 -0.25742977297E+02 -0.62143130852E+02  0.88234441489E+02  0.41800000000E+01 0. -1.
        -11    1    1    2    0    0  0.38553873660E+02  0.41201352330E+02  0.21892511261E+02  0.60524661563E+02  0.00000000000E+00 0.  1.
         11    1    1    2    0    0 -0.28161434658E+02  0.10972106770E+03 -0.26347827369E+02  0.11630127732E+03  0.00000000000E+00 0. -1.
</event>
<event>
 7    1  0.3380047E-009  0.1804977E+03  0.7561462E-02  0.1167322E+00
          2   -1    0    0  501    0  0.00000000000E+00  0.00000000000E+00  0.22468473750E+04  0.22468473750E+04  0.00000000000E+00 0. -1.
         -2   -1    0    0    0  501 -0.00000000000E+00 -0.00000000000E+00 -0.17948107639E+02  0.17948107639E+02  0.00000000000E+00 0.  1.
         25    2    1    2    0    0 -0.11224068478E+03  0.10692064849E+03  0.15410445174E+04  0.15538648215E+04  0.12509069712E+03 0.  0.
          5    1    3    3  502    0 -0.13414604606E+03  0.93999570995E+02  0.11075823614E+04  0.11196371022E+04  0.41800000000E+01 0. -1.
         -5    1    3    3    0  502  0.21905361279E+02  0.12921077491E+02  0.43346215599E+03  0.43422771925E+03  0.41800000000E+01 0. -1.
        -11    1    1    2    0    0  0.45116395825E+02 -0.92200701420E+02  0.30103569946E+03  0.31805494944E+03  0.00000000000E+00 0.  1.
         11    1    1    2    0    0  0.67124288953E+02 -0.14719947067E+02  0.38681905050E+03  0.39287571170E+03  0.00000000000E+00 0. -1.
</event>
<event>
 7    1  0.2564986E-009  0.9854022E+02  0.7561462E-02  0.1283396E+00
         -2   -1    0    0    0  501 -0.00000000000E+00  0.00000000000E+00  0.30697748107E+02  0.30697748107E+02  0.00000000000E+00 0.  1.
          2   -1    0    0  501    0  0.00000000000E+00 -0.00000000000E+00 -0.39414525056E+03  0.39414525056E+03  0.00000000000E+00 0. -1.
         25    2    1    2    0    0  0.16140865914E+02  0.19335176993E+01 -0.20672299942E+03  0.24216751550E+03  0.12508573472E+03 0.  0.
          5    1    3    3  502    0 -0.30486706929E+02  0.44491723743E+02 -0.14062041786E+03  0.15066694097E+03  0.41800000000E+01 0. -1.
         -5    1    3    3    0  502  0.46627572843E+02 -0.42558206043E+02 -0.66102581562E+02  0.91500574534E+02  0.41800000000E+01 0. -1.
        -11    1    1    2    0    0  0.18453335237E+02  0.28291802113E+02 -0.11753426945E+03  0.12229168468E+03  0.00000000000E+00 0. -1.
         11    1    1    2    0    0 -0.34594201151E+02 -0.30225319812E+02 -0.39190233583E+02  0.60383798483E+02  0.00000000000E+00 0.  1.
</event>
<event>
 7    1  0.2564986E-009  0.1531741E+03  0.7561462E-02  0.1196626E+00
          3   -1    0    0  501    0  0.00000000000E+00  0.00000000000E+00  0.36255369607E+03  0.36255369607E+03  0.00000000000E+00 0. -1.
         -3   -1    0    0    0  501 -0.00000000000E+00 -0.00000000000E+00 -0.86546289287E+02  0.86546289287E+02  0.00000000000E+00 0.  1.
         25    2    1    2    0    0  0.61067595810E+01 -0.13831962931E+03  0.17854089681E+03  0.25825398484E+03  0.12509459015E+03 0.  0.
          5    1    3    3  502    0 -0.26150386716E+01 -0.13876032178E+03  0.82051023442E+02  0.16127959628E+03  0.41800000000E+01 0. -1.
         -5    1    3    3    0  502  0.87217982526E+01  0.44069246720E+00  0.96489873365E+02  0.96974388560E+02  0.41800000000E+01 0. -1.
        -11    1    1    2    0    0 -0.40132870486E+02  0.57425269334E+02  0.17718542193E+02  0.72265175492E+02  0.00000000000E+00 0.  1.
         11    1    1    2    0    0  0.34026110905E+02  0.80894359976E+02  0.79747967780E+02  0.11858082503E+03  0.00000000000E+00 0. -1.
</event>
<event>
 7    1  0.2564986E-009  0.1288902E+03  0.7561462E-02  0.1229112E+00
          1   -1    0    0  501    0  0.00000000000E+00  0.00000000000E+00  0.16860615046E+04  0.16860615046E+04  0.00000000000E+00 0. -1.
         -1   -1    0    0    0  501 -0.00000000000E+00 -0.00000000000E+00 -0.21362747428E+02  0.21362747428E+02  0.00000000000E+00 0.  1.
         25    2    1    2    0    0 -0.65503702867E+02 -0.87426303972E+02  0.13844343324E+04  0.13943601005E+04  0.12509026926E+03 0.  0.
          5    1    3    3  502    0 -0.51873566834E+02 -0.23640584025E+02  0.11370976388E+04  0.11385333797E+04  0.41800000000E+01 0.  1.
         -5    1    3    3    0  502 -0.13630136032E+02 -0.63785719947E+02  0.24733669364E+03  0.25582672085E+03  0.41800000000E+01 0.  1.
        -11    1    1    2    0    0  0.24453686375E+02 -0.12331964006E+02  0.93027082722E+02  0.96974729870E+02  0.00000000000E+00 0. -1.
         11    1    1    2    0    0  0.41050016491E+02  0.99758267978E+02  0.18723734198E+03  0.21608942157E+03  0.00000000000E+00 0.  1.
</event>
<event>
 7    1  0.2564986E-009  0.9198668E+02  0.7561462E-02  0.1298111E+00
         -4   -1    0    0    0  501 -0.00000000000E+00  0.00000000000E+00  0.19437782418E+03  0.19437782418E+03  0.00000000000E+00 0.  1.
          4   -1    0    0  501    0  0.00000000000E+00 -0.00000000000E+00 -0.13409969495E+03  0.13409969495E+03  0.00000000000E+00 0. -1.
         25    2    1    2    0    0  0.56860562498E+02  0.38278948038E+02 -0.66175524219E+02  0.15724224602E+03  0.12509005755E+03 0.  0.
          5    1    3    3  502    0  0.61788272229E+02  0.29409526667E+02 -0.10024647426E+03  0.12144767946E+03  0.41800000000E+01 0.  1.
         -5    1    3    3    0  502 -0.49277097315E+01  0.88694213712E+01  0.34070950043E+02  0.35794566564E+02  0.41800000000E+01 0.  1.
        -11    1    1    2    0    0 -0.76801922732E+02 -0.34272467035E+02  0.12524135731E+03  0.15085932160E+03  0.00000000000E+00 0.  1.
         11    1    1    2    0    0  0.19941360234E+02 -0.40064810034E+01  0.12122961419E+01  0.20375951510E+02  0.00000000000E+00 0. -1.
</event>
<event>
 7    1  0.2564986E-009  0.5275812E+02  0.7561462E-02  0.1431008E+00
         -2   -1    0    0    0  501 -0.00000000000E+00  0.00000000000E+00  0.29404331242E+02  0.29404331242E+02  0.00000000000E+00 0.  1.
          2   -1    0    0  501    0  0.00000000000E+00 -0.00000000000E+00 -0.48533653134E+03  0.48533653134E+03  0.00000000000E+00 0. -1.
         25    2    1    2    0    0  0.46689390398E+02 -0.37986603462E+00 -0.22071814463E+03  0.25796054711E+03  0.12508837285E+03 0.  0.
          5    1    3    3  502    0  0.31639314279E+02  0.60425308464E+01  0.38944934985E+01  0.32713878808E+02  0.41800000000E+01 0.  1.
         -5    1    3    3    0  502  0.15050076119E+02 -0.64223968810E+01 -0.22461263813E+03  0.22524666830E+03  0.41800000000E+01 0.  1.
        -11    1    1    2    0    0 -0.40926780372E+02  0.12443871283E+02 -0.23906908215E+03  0.24286596576E+03  0.00000000000E+00 0. -1.
         11    1    1    2    0    0 -0.57626100257E+01 -0.12064005248E+02  0.38550266921E+01  0.13914349706E+02  0.00000000000E+00 0.  1.
</event>
<event>
 7    1  0.2564986E-009  0.2833643E+03  0.7561462E-02  0.1093865E+00
         -1   -1    0    0    0  501 -0.00000000000E+00  0.00000000000E+00  0.44227623757E+03  0.44227623757E+03  0.00000000000E+00 0.  1.
          1   -1    0    0  501    0  0.00000000000E+00 -0.00000000000E+00 -0.21452622153E+03  0.21452622153E+03  0.00000000000E+00 0. -1.
         25    2    1    2    0    0 -0.10421734246E+03  0.26307808327E+03  0.58360710437E+02  0.31483861951E+03  0.12508417744E+03 0.  0.
          5    1    3    3  502    0 -0.13861694252E+02  0.25881140521E+02  0.53224244303E+02  0.60928421807E+02  0.41800000000E+01 0. -1.
         -5    1    3    3    0  502 -0.90355648212E+02  0.23719694275E+03  0.51364661334E+01  0.25391019770E+03  0.41800000000E+01 0. -1.
        -11    1    1    2    0    0  0.91708876146E+02 -0.24068429605E+03  0.11548903457E+03  0.28227143929E+03  0.00000000000E+00 0. -1.
         11    1    1    2    0    0  0.12508466318E+02 -0.22393787217E+02  0.53900271040E+02  0.59692400302E+02  0.00000000000E+00 0.  1.
</event>
<event>
 7    1  0.2564986E-009  0.1167583E+03  0.7561462E-02  0.1248543E+00
          2   -1    0    0  501    0  0.00000000000E+00  0.00000000000E+00  0.29949482226E+02  0.29949482226E+02  0.00000000000E+00 0.  1.
         -2   -1    0    0    0  501 -0.00000000000E+00 -0.00000000000E+00 -0.77070516437E+03  0.77070516437E+03  0.00000000000E+00 0. -1.
         25    2    1    2    0    0 -0.62404575772E+02  0.84048594944E+02 -0.45107092367E+03  0.47965705426E+03  0.12508962439E+03 0.  0.
          5    1    3    3  502    0  0.10758213870E+02 -0.52590696852E+01  0.13167241915E+01  0.12751593713E+02  0.41800000000E+01 0. -1.
         -5    1    3    3    0  502 -0.73162789642E+02  0.89307664629E+02 -0.45238764786E+03  0.46690546054E+03  0.41800000000E+01 0. -1.
        -11    1    1    2    0    0  0.39096406420E+02 -0.61516720469E+02 -0.27659230485E+03  0.28603520587E+03  0.00000000000E+00 0. -1.
         11    1    1    2    0    0  0.23308169352E+02 -0.22531874475E+02 -0.13092453622E+02  0.34962386471E+02  0.00000000000E+00 0.  1.
</event>
<event>
 7    1  0.2564986E-009  0.4825543E+03  0.7561462E-02  0.1018436E+00
         -2   -1    0    0    0  501 -0.00000000000E+00  0.00000000000E+00  0.17381223484E+03  0.17381223484E+03  0.00000000000E+00 0.  1.
          2   -1    0    0  501    0  0.00000000000E+00 -0.00000000000E+00 -0.15214050427E+04  0.15214050427E+04  0.00000000000E+00 0. -1.
         25    2    1    2    0    0 -0.34846229641E+03  0.32995786810E+03 -0.92369155226E+03  0.10484047734E+04  0.12509323871E+03 0.  0.
          5    1    3    3  502    0 -0.27832499509E+03  0.24592068055E+03 -0.58986054525E+03  0.69706148887E+03  0.41800000000E+01 0. -1.
         -5    1    3    3    0  502 -0.70137301321E+02  0.84037187544E+02 -0.33383100700E+03  0.35134328450E+03  0.41800000000E+01 0. -1.
        -11    1    1    2    0    0  0.30502353692E+03 -0.31426980847E+03 -0.40626662561E+03  0.59737546123E+03  0.00000000000E+00 0.  1.
         11    1    1    2    0    0  0.43438759488E+02 -0.15688059626E+02 -0.17634629986E+02  0.49437042948E+02  0.00000000000E+00 0. -1.
</event>
<event>
 7    1  0.2564986E-009  0.1289039E+03  0.7561462E-02  0.1229091E+00
          1   -1    0    0  501    0  0.00000000000E+00  0.00000000000E+00  0.13266989342E+04  0.13266989342E+04  0.00000000000E+00 0. -1.
         -1   -1    0    0    0  501 -0.00000000000E+00 -0.00000000000E+00 -0.18985232699E+02  0.18985232699E+02  0.00000000000E+00 0.  1.
         25    2    1    2    0    0  0.12622553350E+03 -0.60089363927E+01  0.83202535612E+03  0.85081181689E+03  0.12508222057E+03 0.  0.
          5    1    3    3  502    0  0.78064403324E+02  0.12564850528E+02  0.17892992482E+03  0.19566634082E+03  0.41800000000E+01 0. -1.
         -5    1    3    3    0  502  0.48161130178E+02 -0.18573786921E+02  0.65309543130E+03  0.65514547606E+03  0.41800000000E+01 0. -1.
        -11    1    1    2    0    0 -0.57894848475E+02 -0.26967605847E+01  0.12921243329E+03  0.14161546142E+03  0.00000000000E+00 0.  1.
         11    1    1    2    0    0 -0.68330685027E+02  0.87056969774E+01  0.34647591207E+03  0.35325688857E+03  0.00000000000E+00 0. -1.
</event>
<event>
 7    1  0.2564986E-009  0.1199107E+03  0.7561462E-02  0.1243244E+00
          2   -1    0    0  501    0  0.00000000000E+00  0.00000000000E+00  0.81101074984E+03  0.81101074984E+03  0.00000000000E+00 0. -1.
         -2   -1    0    0    0  501 -0.00000000000E+00 -0.00000000000E+00 -0.23048373046E+02  0.23048373046E+02  0.00000000000E+00 0.  1.
         25    2    1    2    0    0  0.10334848291E+02 -0.79173054883E+02  0.48859790926E+03  0.51063675114E+03  0.12508714151E+03 0.  0.
          5    1    3    3  502    0  0.55371562455E+02 -0.64944867607E+02  0.41028353266E+03  0.41908697824E+03  0.41800000000E+01 0.  1.
         -5    1    3    3    0  502 -0.45036714163E+02 -0.14228187276E+02  0.78314376603E+02  0.91549772902E+02  0.41800000000E+01 0.  1.
        -11    1    1    2    0    0 -0.27888597391E+02  0.21622890277E+01  0.23691531305E+02  0.36657032256E+02  0.00000000000E+00 0.  1.
         11    1    1    2    0    0  0.17553749100E+02  0.77010765855E+02  0.27567293623E+03  0.28676533949E+03  0.00000000000E+00 0. -1.
</event>
<event>
 7    1  0.2564986E-009  0.9999241E+02  0.7561462E-02  0.1280312E+00
         -3   -1    0    0    0  501 -0.00000000000E+00  0.00000000000E+00  0.78013490242E+03  0.78013490242E+03  0.00000000000E+00 0.  1.
          3   -1    0    0  501    0  0.00000000000E+00 -0.00000000000E+00 -0.23483831239E+02  0.23483831239E+02  0.00000000000E+00 0. -1.
         25    2    1    2    0    0 -0.35584030865E+02 -0.44758866753E+02  0.24872763021E+03  0.28422227633E+03  0.12508912395E+03 0.  0.
          5    1    3    3  502    0 -0.51195233015E+02 -0.52550070402E+02  0.60620894531E+02  0.95261886589E+02  0.41800000000E+01 0.  1.
         -5    1    3    3    0  502  0.15611202150E+02  0.77912036493E+01  0.18810673567E+03  0.18896038975E+03  0.41800000000E+01 0.  1.
        -11    1    1    2    0    0 -0.30656644190E+02  0.43434217544E+01  0.14240717409E+03  0.14573434179E+03  0.00000000000E+00 0.  1.
         11    1    1    2    0    0  0.66240675055E+02  0.40415444998E+02  0.36551626688E+03  0.37366211553E+03  0.00000000000E+00 0. -1.
</event>
<event>
 7    1  0.2564986E-009  0.1440719E+03  0.7561462E-02  0.1207953E+00
          2   -1    0    0  501    0  0.00000000000E+00  0.00000000000E+00  0.15308130466E+03  0.15308130466E+03  0.00000000000E+00 0. -1.
         -2   -1    0    0    0  501 -0.00000000000E+00 -0.00000000000E+00 -0.20239359703E+03  0.20239359703E+03  0.00000000000E+00 0.  1.
         25    2    1    2    0    0  0.13496163178E+03  0.69655912633E+01  0.95907625645E+01  0.18440172619E+03  0.12509537315E+03 0.  0.
          5    1    3    3  502    0  0.13202477186E+03  0.60528698040E+01 -0.37169511578E+02  0.13735436873E+03  0.41800000000E+01 0.  1.
         -5    1    3    3    0  502  0.29368599142E+01  0.91272145926E+00  0.46760274143E+02  0.47047357466E+02  0.41800000000E+01 0.  1.
        -11    1    1    2    0    0 -0.85692688634E+02  0.28177564276E+02 -0.55206447269E+01  0.90375270578E+02  0.00000000000E+00 0. -1.
         11    1    1    2    0    0 -0.49268943142E+02 -0.35143155539E+02 -0.53382410204E+02  0.80697904922E+02  0.00000000000E+00 0.  1.
</event>
<event>
 7    1  0.2564986E-009  0.1405168E+03  0.7561462E-02  0.1212635E+00
         -1   -1    0    0    0  501 -0.00000000000E+00  0.00000000000E+00  0.70189276993E+03  0.70189276993E+03  0.00000000000E+00 0.  1.
          1   -1    0    0  501    0  0.00000000000E+00 -0.00000000000E+00 -0.28685941066E+02  0.28685941066E+02  0.00000000000E+00 0. -1.
         25    2    1    2    0    0 -0.54276997981E+02 -0.43426157259E+02  0.36588798552E+03  0.39287339839E+03  0.12507463999E+03 0.  0.
          5    1    3    3  502    0 -0.25572494854E+02 -0.86850645685E+02  0.24286376648E+03  0.25922435961E+03  0.41800000000E+01 0. -1.
         -5    1    3    3    0  502 -0.28704503127E+02  0.43424488426E+02  0.12302421904E+03  0.13364903878E+03  0.41800000000E+01 0. -1.
        -11    1    1    2    0    0  0.36123141673E+01 -0.40221455161E+02  0.66702860677E+02  0.77974905523E+02  0.00000000000E+00 0.  1.
         11    1    1    2    0    0  0.50664683813E+02  0.83647612419E+02  0.24061598267E+03  0.25973040709E+03  0.00000000000E+00 0. -1.
</event>
<event>
 7    1  0.2564986E-009  0.1124510E+03  0.7561462E-02  0.1256097E+00
         -2   -1    0    0    0  501 -0.00000000000E+00  0.00000000000E+00  0.11027401674E+02  0.11027401674E+02  0.00000000000E+00 0. -1.
          2   -1    0    0  501    0  0.00000000000E+00 -0.00000000000E+00 -0.21737630299E+04  0.21737630299E+04  0.00000000000E+00 0.  1.
         25    2    1    2    0    0 -0.51310625490E+02 -0.40831513466E+02 -0.17910360599E+04  0.17965971046E+04  0.12510393971E+03 0.  0.
          5    1    3    3  502    0 -0.33866032525E+02  0.31409210363E+02 -0.28724244797E+03  0.29096244255E+03  0.41800000000E+01 0.  1.
         -5    1    3    3    0  502 -0.17444592965E+02 -0.72240723830E+02 -0.15037936119E+04  0.15056346621E+04  0.41800000000E+01 0.  1.
        -11    1    1    2    0    0  0.60565435396E+02 -0.16734390959E+01 -0.14160107763E+03  0.15401895191E+03  0.00000000000E+00 0. -1.
         11    1    1    2    0    0 -0.92548099060E+01  0.42504952562E+02 -0.23009849073E+03  0.23417437506E+03  0.00000000000E+00 0.  1.
</event>
<event>
 7    1  0.2564986E-009  0.1309635E+03  0.7561462E-02  0.1226033E+00
          2   -1    0    0  501    0  0.00000000000E+00  0.00000000000E+00  0.70006917690E+03  0.70006917690E+03  0.00000000000E+00 0.  1.
         -2   -1    0    0    0  501 -0.00000000000E+00 -0.00000000000E+00 -0.46924643307E+02  0.46924643307E+02  0.00000000000E+00 0. -1.
         25    2    1    2    0    0 -0.72673578663E+02  0.53471685309E+02  0.57749124090E+03  0.59773171942E+03  0.12508559038E+03 0.  0.
          5    1    3    3  502    0  0.30451329746E+02 -0.11039070438E+01  0.62315474795E+02  0.69492394497E+02  0.41800000000E+01 0. -1.
         -5    1    3    3    0  502 -0.10312490841E+03  0.54575592353E+02  0.51517576610E+03  0.52823932492E+03  0.41800000000E+01 0. -1.
        -11    1    1    2    0    0 -0.78281496010E+01 -0.29358200478E+02  0.54828665472E+02  0.62684658561E+02  0.00000000000E+00 0.  1.
         11    1    1    2    0    0  0.80501728264E+02 -0.24113484831E+02  0.20824627229E+02  0.86577442232E+02  0.00000000000E+00 0. -1.
</event>
<event>
 7    1  0.2564986E-009  0.1377962E+03  0.7561462E-02  0.1216325E+00
         -2   -1    0    0    0  501 -0.00000000000E+00  0.00000000000E+00  0.12090865693E+03  0.12090865693E+03  0.00000000000E+00 0.  1.
          2   -1    0    0  501    0  0.00000000000E+00 -0.00000000000E+00 -0.17657393143E+03  0.17657393143E+03  0.00000000000E+00 0. -1.
         25    2    1    2    0    0  0.86210539047E+02 -0.44366261731E+02 -0.14138030534E+02  0.15889678831E+03  0.12509069992E+03 0.  0.
          5    1    3    3  502    0  0.86755360682E+02  0.20410004011E+02  0.96941100209E+01  0.89746916604E+02  0.41800000000E+01 0.  1.
         -5    1    3    3    0  502 -0.54482163520E+00 -0.64776265742E+02 -0.23832140555E+02  0.69149871710E+02  0.41800000000E+01 0.  1.
        -11    1    1    2    0    0 -0.37996611172E+02  0.59785204931E+02 -0.50739390702E+02  0.87134946824E+02  0.00000000000E+00 0. -1.
         11    1    1    2    0    0 -0.48213927875E+02 -0.15418943200E+02  0.92121467370E+01  0.51450853230E+02  0.00000000000E+00 0.  1.
</event>
<event>
 7    1  0.2564986E-009  0.1259501E+03  0.7561462E-02  0.1233592E+00
          2   -1    0    0  501    0  0.00000000000E+00  0.00000000000E+00  0.14422949802E+03  0.14422949802E+03  0.00000000000E+00 0. -1.
         -2   -1    0    0    0  501 -0.00000000000E+00 -0.00000000000E+00 -0.13666004456E+03  0.13666004456E+03  0.00000000000E+00 0.  1.
         25    2    1    2    0    0 -0.85961994859E+02 -0.43316966729E-01  0.20547488952E+00  0.15177408090E+03  0.12508342407E+03 0.  0.
          5    1    3    3  502    0 -0.88964023732E+02  0.49541184245E+02 -0.65567640111E+00  0.10191579253E+03  0.41800000000E+01 0. -1.
         -5    1    3    3    0  502  0.30020288730E+01 -0.49584501212E+02  0.86115129063E+00  0.49858288371E+02  0.41800000000E+01 0. -1.
        -11    1    1    2    0    0  0.79033505942E+02 -0.17783707123E+02 -0.30607648045E+02  0.86598980475E+02  0.00000000000E+00 0.  1.
         11    1    1    2    0    0  0.69284889173E+01  0.17827024090E+02  0.37971626612E+02  0.42516481206E+02  0.00000000000E+00 0. -1.
</event>
<event>
 7    1  0.2564986E-009  0.1062694E+03  0.7561462E-02  0.1267639E+00
         -2   -1    0    0    0  501 -0.00000000000E+00  0.00000000000E+00  0.14067817395E+04  0.14067817395E+04  0.00000000000E+00 0.  1.
          2   -1    0    0  501    0  0.00000000000E+00 -0.00000000000E+00 -0.12266612346E+02  0.12266612346E+02  0.00000000000E+00 0. -1.
         25    2    1    2    0    0  0.64973375947E+02  0.15285974233E+02  0.94298844061E+03  0.95358815860E+03  0.12509187230E+03 0.  0.
          5    1    3    3  502    0  0.78172634762E+02  0.32049490091E+02  0.34551633896E+03  0.35572059757E+03  0.41800000000E+01 0.  1.
         -5    1    3    3    0  502 -0.13199258815E+02 -0.16763515857E+02  0.59747210165E+03  0.59786756104E+03  0.41800000000E+01 0.  1.
        -11    1    1    2    0    0 -0.62239193463E+02 -0.44723803954E+02  0.38653641004E+03  0.39406133042E+03  0.00000000000E+00 0.  1.
         11    1    1    2    0    0 -0.27341824848E+01  0.29437829720E+02  0.64990276487E+02  0.71398862808E+02  0.00000000000E+00 0. -1.
</event>
<event>
 7    1  0.2564986E-009  0.1106487E+03  0.7561462E-02  0.1259373E+00
         -1   -1    0    0    0  501 -0.00000000000E+00  0.00000000000E+00  0.30836529389E+03  0.30836529389E+03  0.00000000000E+00 0.  1.
          1   -1    0    0  501    0  0.00000000000E+00 -0.00000000000E+00 -0.72195699101E+02  0.72195699101E+02  0.00000000000E+00 0. -1.
         25    2    1    2    0    0 -0.56743731214E+02  0.44670294194E+01  0.20296653532E+02  0.13893972577E+03  0.12510990316E+03 0.  0.
          5    1    3    3  502    0  0.25564626231E+02 -0.29440397238E+02  0.29891229939E+02  0.49307657936E+02  0.41800000000E+01 0. -1.
         -5    1    3    3    0  502 -0.82308357444E+02  0.33907426658E+02 -0.95945764068E+01  0.89632067834E+02  0.41800000000E+01 0. -1.
        -11    1    1    2    0    0 -0.11193555471E+02  0.18183182713E+02  0.12037856953E+03  0.12225761252E+03  0.00000000000E+00 0.  1.
         11    1    1    2    0    0  0.67937286684E+02 -0.22650212132E+02  0.95494371731E+02  0.11936365470E+03  0.00000000000E+00 0. -1.
</event>
<event>
 7    1  0.2564986E-009  0.1299275E+03  0.7561462E-02  0.1227563E+00
         -1   -1    0    0    0  501 -0.00000000000E+00  0.00000000000E+00  0.55536537616E+03  0.55536537616E+03  0.00000000000E+00 0.  1.
          1   -1    0    0  501    0  0.00000000000E+00 -0.00000000000E+00 -0.31239999018E+02  0.31239999018E+02  0.00000000000E+00 0. -1.
         25    2    1    2    0    0 -0.50576396186E+02 -0.51947211161E+02  0.25542944465E+03  0.29350981799E+03  0.12508927796E+03 0.  0.
          5    1    3    3  502    0 -0.71111379445E+01  0.40324915112E+02  0.56326261053E+02  0.69762361958E+02  0.41800000000E+01 0.  1.
         -5    1    3    3    0  502 -0.43465258241E+02 -0.92272126273E+02  0.19910318360E+03  0.22374745603E+03  0.41800000000E+01 0.  1.
        -11    1    1    2    0    0 -0.81106689264E+01  0.57124571465E+02  0.11988714712E+03  0.13304859135E+03  0.00000000000E+00 0.  1.
         11    1    1    2    0    0  0.58687065112E+02 -0.51773603035E+01  0.14880878536E+03  0.16004696584E+03  0.00000000000E+00 0. -1.
</event>
<event>
 7    1  0.2564986E-009  0.1334206E+03  0.7561462E-02  0.1222467E+00
          2   -1    0    0  501    0  0.00000000000E+00  0.00000000000E+00  0.12830556018E+03  0.12830556018E+03  0.00000000000E+00 0. -1.
         -2   -1    0    0    0  501 -0.00000000000E+00 -0.00000000000E+00 -0.17682174956E+03  0.17682174956E+03  0.00000000000E+00 0.  1.
         25    2    1    2    0    0  0.93832462717E+02  0.34431654079E+02  0.36905327491E+01  0.16015576346E+03  0.12508468602E+03 0.  0.
          5    1    3    3  502    0 -0.12191858999E+02 -0.13018254492E+02 -0.33445986560E+02  0.38134273205E+02  0.41800000000E+01 0.  1.
         -5    1    3    3    0  502  0.10602432172E+03  0.47449908571E+02  0.37136519309E+02  0.12202149026E+03  0.41800000000E+01 0.  1.
        -11    1    1    2    0    0 -0.63511586483E+02 -0.63838450310E+02 -0.21031251563E+02  0.92473687597E+02  0.00000000000E+00 0. -1.
         11    1    1    2    0    0 -0.30320876235E+02  0.29406796231E+02 -0.31175470565E+02  0.52497858672E+02  0.00000000000E+00 0.  1.
</event>
<event>
 7    1  0.2564986E-009  0.1438026E+03  0.7561462E-02  0.1208302E+00
          1   -1    0    0  501    0  0.00000000000E+00  0.00000000000E+00  0.40004553014E+03  0.40004553014E+03  0.00000000000E+00 0. -1.
         -1   -1    0    0    0  501 -0.00000000000E+00 -0.00000000000E+00 -0.72665148679E+02  0.72665148679E+02  0.00000000000E+00 0.  1.
         25    2    1    2    0    0  0.96331940408E+02  0.87435779384E+02  0.16556406034E+03  0.24491530059E+03  0.12508872103E+03 0.  0.
          5    1    3    3  502    0  0.10740909834E+02  0.99822255806E+01  0.11964655003E+03  0.12061418369E+03  0.41800000000E+01 0.  1.
         -5    1    3    3    0  502  0.85591030574E+02  0.77453553803E+02  0.45917510306E+02  0.12430111691E+03  0.41800000000E+01 0.  1.
        -11    1    1    2    0    0 -0.56498555038E+02 -0.10019074983E+03  0.96036043904E+02  0.14984390145E+03  0.00000000000E+00 0.  1.
         11    1    1    2    0    0 -0.39833385370E+02  0.12754970444E+02  0.65780277222E+02  0.77951476782E+02  0.00000000000E+00 0. -1.
</event>
<event>
 7    1  0.2564986E-009  0.1232793E+03  0.7561462E-02  0.1237783E+00
         -2   -1    0    0    0  501 -0.00000000000E+00  0.00000000000E+00  0.34306423964E+02  0.34306423964E+02  0.00000000000E+00 0.  1.
          2   -1    0    0  501    0  0.00000000000E+00 -0.00000000000E+00 -0.51116023400E+03  0.51116023400E+03  0.00000000000E+00 0. -1.
         25    2    1    2    0    0 -0.71404223242E+02 -0.98499754118E+01 -0.32113602430E+03  0.35209696126E+03  0.12509332083E+03 0.  0.
          5    1    3    3  502    0 -0.35350144267E+02  0.57638573064E+02 -0.15107242703E+03  0.16556626593E+03  0.41800000000E+01 0. -1.
         -5    1    3    3    0  502 -0.36054078975E+02 -0.67488548476E+02 -0.17006359727E+03  0.18653069534E+03  0.41800000000E+01 0. -1.
        -11    1    1    2    0    0  0.31784161921E+02 -0.31617766751E+02 -0.26704640421E+02  0.52182889374E+02  0.00000000000E+00 0.  1.
         11    1    1    2    0    0  0.39620061321E+02  0.41467742163E+02 -0.12901314531E+03  0.14118680732E+03  0.00000000000E+00 0. -1.
</event>
<event>
 7    1  0.3281986E-009  0.2247085E+03  0.7561462E-02  0.1130421E+00
         -2   -1    0    0    0  501 -0.00000000000E+00  0.00000000000E+00  0.18713356285E+03  0.18713356285E+03  0.00000000000E+00 0.  1.
          2   -1    0    0  501    0  0.00000000000E+00 -0.00000000000E+00 -0.34160345452E+03  0.34160345452E+03  0.00000000000E+00 0. -1.
         25    2    1    2    0    0 -0.94050271199E+02 -0.18656509641E+03 -0.17513635364E+03  0.29995431312E+03  0.12509140209E+03 0.  0.
          5    1    3    3  502    0 -0.86513949230E+02 -0.73339065963E+02 -0.14176511232E+03  0.18159873755E+03  0.41800000000E+01 0. -1.
         -5    1    3    3    0  502 -0.75363219684E+01 -0.11322603045E+03 -0.33371241317E+02  0.11835557557E+03  0.41800000000E+01 0. -1.
        -11    1    1    2    0    0  0.84788229381E+01  0.10101065738E+03  0.34302239209E+02  0.10701255514E+03  0.00000000000E+00 0.  1.
         11    1    1    2    0    0  0.85571448261E+02  0.85554439035E+02 -0.13635777236E+02  0.12177014912E+03  0.00000000000E+00 0. -1.
</event>
<event>
 7    1  0.2564986E-009  0.1348661E+03  0.7561462E-02  0.1220409E+00
          2   -1    0    0  501    0  0.00000000000E+00  0.00000000000E+00  0.23869952187E+04  0.23869952187E+04  0.00000000000E+00 0.  1.
         -2   -1    0    0    0  501 -0.00000000000E+00 -0.00000000000E+00 -0.16341710177E+02  0.16341710177E+02  0.00000000000E+00 0. -1.
         25    2    1    2    0    0 -0.83714440256E+02 -0.18386538005E+02  0.20974328815E+04  0.21029080500E+04  0.12510556456E+03 0.  0.
          5    1    3    3  502    0 -0.11496750487E+03 -0.65348230607E+00  0.16600457366E+04  0.16640274259E+04  0.41800000000E+01 0.  1.
         -5    1    3    3    0  502  0.31253064614E+02 -0.17733055699E+02  0.43738714490E+03  0.43888062413E+03  0.41800000000E+01 0.  1.
        -11    1    1    2    0    0  0.17453816724E+02 -0.31200347050E+02  0.13189086655E+03  0.13665027645E+03  0.00000000000E+00 0. -1.
         11    1    1    2    0    0  0.66260623532E+02  0.49586885055E+02  0.14132976045E+03  0.16377860235E+03  0.00000000000E+00 0.  1.
</event>
<event>
 7    1  0.2564986E-009  0.8592287E+02  0.7561462E-02  0.1313037E+00
          1   -1    0    0  501    0  0.00000000000E+00  0.00000000000E+00  0.65274205692E+03  0.65274205692E+03  0.00000000000E+00 0. -1.
         -1   -1    0    0    0  501 -0.00000000000E+00 -0.00000000000E+00 -0.22688415875E+02  0.22688415875E+02  0.00000000000E+00 0.  1.
         25    2    1    2    0    0 -0.23434414497E+02  0.47464021062E+02  0.31778733459E+03  0.34559858590E+03  0.12509031727E+03 0.  0.
          5    1    3    3  502    0 -0.43744269282E+02  0.28617965253E+02  0.31276614001E+03  0.31713195955E+03  0.41800000000E+01 0. -1.
         -5    1    3    3    0  502  0.20309854784E+02  0.18846055809E+02  0.50211945775E+01  0.28466626352E+02  0.41800000000E+01 0. -1.
        -11    1    1    2    0    0 -0.17138221874E+02 -0.47832907917E+02  0.85452137678E+02  0.99417169355E+02  0.00000000000E+00 0.  1.
         11    1    1    2    0    0  0.40572636371E+02  0.36888685481E+00  0.22681416877E+03  0.23041471753E+03  0.00000000000E+00 0. -1.
</event>
<event>
 7    1  0.2564986E-009  0.1014686E+03  0.7561462E-02  0.1277238E+00
         -2   -1    0    0    0  501 -0.00000000000E+00  0.00000000000E+00  0.31041687689E+02  0.31041687689E+02  0.00000000000E+00 0.  1.
          2   -1    0    0  501    0  0.00000000000E+00 -0.00000000000E+00 -0.53544440138E+03  0.53544440138E+03  0.00000000000E+00 0. -1.
         25    2    1    2    0    0  0.43305967460E+02  0.52383320336E+02 -0.27087356282E+03  0.30600444207E+03  0.12508721943E+03 0.  0.
          5    1    3    3  502    0  0.69758834611E+02 -0.31871554053E+01 -0.20085080758E+03  0.21268514821E+03  0.41800000000E+01 0.  1.
         -5    1    3    3    0  502 -0.26452867151E+02  0.55570475741E+02 -0.70022755242E+02  0.93319293858E+02  0.41800000000E+01 0.  1.
        -11    1    1    2    0    0 -0.24109774173E+02 -0.12790426991E+02 -0.49895038532E+01  0.27744754135E+02  0.00000000000E+00 0.  1.
         11    1    1    2    0    0 -0.19196193287E+02 -0.39592893344E+02 -0.22853964702E+03  0.23273689286E+03  0.00000000000E+00 0. -1.
</event>
<event>
 7    1  0.2564986E-009  0.1167582E+03  0.7561462E-02  0.1248543E+00
         -1   -1    0    0    0  501 -0.00000000000E+00  0.00000000000E+00  0.95122691947E+02  0.95122691947E+02  0.00000000000E+00 0.  1.
          1   -1    0    0  501    0  0.00000000000E+00 -0.00000000000E+00 -0.17676303164E+03  0.17676303164E+03  0.00000000000E+00 0. -1.
         25    2    1    2    0    0 -0.51840874427E+02 -0.44392970568E+02 -0.24026450429E+02  0.14451138409E+03  0.12509219686E+03 0.  0.
          5    1    3    3  502    0 -0.41815392442E+01  0.34763309512E+02 -0.37003192474E+02  0.51114397306E+02  0.41800000000E+01 0.  1.
         -5    1    3    3    0  502 -0.47659335183E+02 -0.79156280080E+02  0.12976742045E+02  0.93396986784E+02  0.41800000000E+01 0.  1.
        -11    1    1    2    0    0 -0.22024150007E+02  0.12311696769E+02  0.45533578644E+01  0.25639308273E+02  0.00000000000E+00 0.  1.
         11    1    1    2    0    0  0.73865024434E+02  0.32081273798E+02 -0.62167247132E+02  0.10173503123E+03  0.00000000000E+00 0. -1.
</event>
<event>
 7    1  0.2564986E-009  0.9649089E+02  0.7561462E-02  0.1287853E+00
          1   -1    0    0  501    0  0.00000000000E+00  0.00000000000E+00  0.16159153290E+03  0.16159153290E+03  0.00000000000E+00 0.  1.
         -1   -1    0    0    0  501 -0.00000000000E+00 -0.00000000000E+00 -0.19164131415E+03  0.19164131415E+03  0.00000000000E+00 0. -1.
         25    2    1    2    0    0 -0.52551346590E+02  0.57681216503E+01 -0.14499317224E+03  0.19865835727E+03  0.12508879911E+03 0.  0.
          5    1    3    3  502    0 -0.49777681008E+02  0.55269783807E+02 -0.12399420943E+03  0.14465338884E+03  0.41800000000E+01 0. -1.
         -5    1    3    3    0  502 -0.27736655814E+01 -0.49501662157E+02 -0.20998962803E+02  0.54004968437E+02  0.41800000000E+01 0. -1.
        -11    1    1    2    0    0  0.22239861617E+02  0.19258961520E+02  0.11127155809E+03  0.11509508540E+03  0.00000000000E+00 0.  1.
         11    1    1    2    0    0  0.30311484972E+02 -0.25027083171E+02  0.36718328993E+01  0.39479404379E+02  0.00000000000E+00 0. -1.
</event>
<event>
 7    1  0.2564986E-009  0.9245033E+02  0.7561462E-02  0.1297024E+00
          3   -1    0    0  501    0  0.00000000000E+00  0.00000000000E+00  0.90724206003E+02  0.90724206003E+02  0.00000000000E+00 0. -1.
         -3   -1    0    0    0  501 -0.00000000000E+00 -0.00000000000E+00 -0.15174817014E+03  0.15174817014E+03  0.00000000000E+00 0.  1.
         25    2    1    2    0    0  0.17496809957E+02 -0.34011694375E+02 -0.12562475924E+02  0.13139780693E+03  0.12507851195E+03 0.  0.
          5    1    3    3  502    0  0.35531023645E+02 -0.74122049730E+02 -0.24061569424E+02  0.85749422275E+02  0.41800000000E+01 0.  1.
         -5    1    3    3    0  502 -0.18034213688E+02  0.40110355355E+02  0.11499093500E+02  0.45648384653E+02  0.41800000000E+01 0.  1.
        -11    1    1    2    0    0 -0.32267476894E+02  0.26981023976E+02  0.15673052288E+02  0.44886638189E+02  0.00000000000E+00 0. -1.
         11    1    1    2    0    0  0.14770666937E+02  0.70306703983E+01 -0.64134540503E+02  0.66187931027E+02  0.00000000000E+00 0.  1.
</event>
<event>
 7    1  0.2564986E-009  0.9182059E+02  0.7561462E-02  0.1298502E+00
         -4   -1    0    0    0  501 -0.00000000000E+00  0.00000000000E+00  0.28289747260E+03  0.28289747260E+03  0.00000000000E+00 0.  1.
          4   -1    0    0  501    0  0.00000000000E+00 -0.00000000000E+00 -0.47442380769E+02  0.47442380769E+02  0.00000000000E+00 0. -1.
         25    2    1    2    0    0 -0.30435787767E+02 -0.16660149545E+02  0.16594322315E+03  0.21068552304E+03  0.12508932229E+03 0.  0.
          5    1    3    3  502    0 -0.13602506102E+02 -0.69108138147E+02  0.66650578717E+02  0.97060470707E+02  0.41800000000E+01 0. -1.
         -5    1    3    3    0  502 -0.16833281665E+02  0.52447988602E+02  0.99292644434E+02  0.11362505234E+03  0.41800000000E+01 0. -1.
        -11    1    1    2    0    0 -0.67927303259E+01 -0.99735544064E+01 -0.17546528135E+02  0.21295389697E+02  0.00000000000E+00 0. -1.
         11    1    1    2    0    0  0.37228518093E+02  0.26633703951E+02  0.87058396817E+02  0.98358940630E+02  0.00000000000E+00 0.  1.
</event>
<event>
 7    1  0.2564986E-009  0.7294839E+02  0.7561462E-02  0.1350345E+00
          1   -1    0    0  501    0  0.00000000000E+00  0.00000000000E+00  0.52235252526E+02  0.52235252526E+02  0.00000000000E+00 0. -1.
         -1   -1    0    0    0  501 -0.00000000000E+00 -0.00000000000E+00 -0.26658322681E+03  0.26658322681E+03  0.00000000000E+00 0.  1.
         25    2    1    2    0    0  0.12394925405E+01 -0.39870420689E+02 -0.15409768711E+03  0.20244559152E+03  0.12508770349E+03 0.  0.
          5    1    3    3  502    0 -0.35966214473E+02 -0.41837803377E+02 -0.13525206010E+02  0.56959406357E+02  0.41800000000E+01 0. -1.
         -5    1    3    3    0  502  0.37205707013E+02  0.19673826881E+01 -0.14057248110E+03  0.14548618516E+03  0.41800000000E+01 0. -1.
        -11    1    1    2    0    0  0.13439579036E+02  0.35501105983E+01  0.21568211496E+02  0.25659565800E+02  0.00000000000E+00 0. -1.
         11    1    1    2    0    0 -0.14679071577E+02  0.36320310091E+02 -0.81818498667E+02  0.90713322018E+02  0.00000000000E+00 0.  1.
</event>
<event>
 7    1  0.2564986E-009  0.9936674E+02  0.7561462E-02  0.1281633E+00
          1   -1    0    0  501    0  0.00000000000E+00  0.00000000000E+00  0.18958647225E+04  0.18958647225E+04  0.00000000000E+00 0. -1.
         -1   -1    0    0    0  501 -0.00000000000E+00 -0.00000000000E+00 -0.97127319943E+01  0.97127319943E+01  0.00000000000E+00 0.  1.
         25    2    1    2    0    0 -0.23428809532E+02 -0.24207592283E+02  0.15639978337E+04  0.15693540076E+04  0.12509140943E+03 0.  0.
          5    1    3    3  502    0 -0.34705019157E+02 -0.63585708464E+02  0.13128374741E+04  0.13148411639E+04  0.41800000000E+01 0. -1.
         -5    1    3    3    0  502  0.11276209626E+02  0.39378116181E+02  0.25116035963E+03  0.25451284366E+03  0.41800000000E+01 0. -1.
        -11    1    1    2    0    0  0.47133847569E+01 -0.28593514619E+02  0.45429887657E+02  0.53885803015E+02  0.00000000000E+00 0.  1.
         11    1    1    2    0    0  0.18715424775E+02  0.52801106902E+02  0.27672426915E+03  0.28233764388E+03  0.00000000000E+00 0. -1.
</event>
<event>
 7    1  0.2564986E-009  0.8706665E+02  0.7561462E-02  0.1310115E+00
          1   -1    0    0  501    0  0.00000000000E+00  0.00000000000E+00  0.47192612405E+03  0.47192612405E+03  0.00000000000E+00 0. -1.
         -1   -1    0    0    0  501 -0.00000000000E+00 -0.00000000000E+00 -0.32969784426E+02  0.32969784426E+02  0.00000000000E+00 0.  1.
         25    2    1    2    0    0  0.20833900197E+01  0.35311710231E+02  0.33214249832E+03  0.35667254991E+03  0.12508161844E+03 0.  0.
          5    1    3    3  502    0 -0.39082508845E+02 -0.31299704794E+02  0.15524269617E+03  0.16317132447E+03  0.41800000000E+01 0.  1.
         -5    1    3    3    0  502  0.41165898865E+02  0.66611415025E+02  0.17689980216E+03  0.19350122543E+03  0.41800000000E+01 0.  1.
        -11    1    1    2    0    0  0.11876016892E+02 -0.26296529477E+02  0.12220991005E+03  0.12556993810E+03  0.00000000000E+00 0. -1.
         11    1    1    2    0    0 -0.13959406912E+02 -0.90151807539E+01 -0.15396068758E+02  0.22653420460E+02  0.00000000000E+00 0.  1.
</event>
<event>
 7    1  0.3191549E-009  0.1214842E+03  0.7561462E-02  0.1240668E+00
          3   -1    0    0  501    0  0.00000000000E+00  0.00000000000E+00  0.23290412912E+03  0.23290412912E+03  0.00000000000E+00 0. -1.
         -3   -1    0    0    0  501 -0.00000000000E+00 -0.00000000000E+00 -0.85906438394E+02  0.85906438394E+02  0.00000000000E+00 0.  1.
         25    2    1    2    0    0  0.19718070079E+02  0.80330891737E+02  0.12014319237E+03  0.19215662262E+03  0.12509167234E+03 0.  0.
          5    1    3    3  502    0 -0.34743257297E+02  0.22756780610E+02 -0.69529851079E+01  0.42317625090E+02  0.41800000000E+01 0. -1.
         -5    1    3    3    0  502  0.54461327376E+02  0.57574111126E+02  0.12709617748E+03  0.14983899753E+03  0.41800000000E+01 0. -1.
        -11    1    1    2    0    0 -0.55473177356E+02 -0.43137545960E+02  0.44669095620E+01  0.70413596403E+02  0.00000000000E+00 0.  1.
         11    1    1    2    0    0  0.35755107276E+02 -0.37193345776E+02  0.22387588795E+02  0.56240348491E+02  0.00000000000E+00 0. -1.
</event>
<event>
 7    1  0.2564986E-009  0.1418238E+03  0.7561462E-02  0.1210896E+00
         -2   -1    0    0    0  501 -0.00000000000E+00  0.00000000000E+00  0.41378465988E+02  0.41378465988E+02  0.00000000000E+00 0.  1.
          2   -1    0    0  501    0  0.00000000000E+00 -0.00000000000E+00 -0.67446284355E+03  0.67446284355E+03  0.00000000000E+00 0. -1.
         25    2    1    2    0    0  0.38133700207E+02  0.11593344063E+03 -0.26970156538E+03  0.32136857031E+03  0.12507630418E+03 0.  0.
          5    1    3    3  502    0 -0.28551811630E+02  0.32964261370E+02 -0.16967548243E+03  0.17524009305E+03  0.41800000000E+01 0. -1.
         -5    1    3    3    0  502  0.66685511838E+02  0.82969179258E+02 -0.10002608295E+03  0.14612847726E+03  0.41800000000E+01 0. -1.
        -11    1    1    2    0    0  0.28760963392E+01 -0.76046398387E+02 -0.29814653679E+03  0.30770551512E+03  0.00000000000E+00 0. -1.
         11    1    1    2    0    0 -0.41009796547E+02 -0.39887042242E+02 -0.65236275394E+02  0.86767224105E+02  0.00000000000E+00 0.  1.
</event>
<event>
 7    1  0.2564986E-009  0.9548363E+02  0.7561462E-02  0.1290091E+00
         -1   -1    0    0    0  501 -0.00000000000E+00  0.00000000000E+00  0.39378902992E+02  0.39378902992E+02  0.00000000000E+00 0.  1.
          1   -1    0    0  501    0  0.00000000000E+00 -0.00000000000E+00 -0.49435736402E+03  0.49435736402E+03  0.00000000000E+00 0. -1.
         25    2    1    2    0    0 -0.53129424166E+02  0.11141784032E+02 -0.38084060149E+03  0.40451218373E+03  0.12507464962E+03 0.  0.
          5    1    3    3  502    0 -0.44825453112E+02 -0.53794268664E+02 -0.17777284670E+03  0.19111201430E+03  0.41800000000E+01 0. -1.
         -5    1    3    3    0  502 -0.83039710542E+01  0.64936052697E+02 -0.20306775480E+03  0.21340016943E+03  0.41800000000E+01 0. -1.
        -11    1    1    2    0    0  0.30598573123E+02 -0.11500057837E+02  0.15942005755E+02  0.36368551730E+02  0.00000000000E+00 0.  1.
         11    1    1    2    0    0  0.22530851043E+02  0.35827380487E+00 -0.90079865291E+02  0.92855531552E+02  0.00000000000E+00 0. -1.
</event>
<event>
 7    1  0.2564986E-009  0.8325915E+02  0.7561462E-02  0.1320049E+00
          1   -1    0    0  501    0  0.00000000000E+00  0.00000000000E+00  0.22461978099E+03  0.22461978099E+03  0.00000000000E+00 0. -1.
         -1   -1    0    0    0  501 -0.00000000000E+00 -0.00000000000E+00 -0.70891560736E+02  0.70891560736E+02  0.00000000000E+00 0.  1.
         25    2    1    2    0    0 -0.43018109586E+02 -0.23180551322E+02  0.13668444123E+03  0.19161896781E+03  0.12508915476E+03 0.  0.
          5    1    3    3  502    0 -0.64104329142E+02 -0.50697881563E+02  0.44740275861E+02  0.93267383869E+02  0.41800000000E+01 0. -1.
         -5    1    3    3    0  502  0.21086219557E+02  0.27517330241E+02  0.91944165369E+02  0.98351583944E+02  0.41800000000E+01 0. -1.
        -11    1    1    2    0    0  0.24451187300E+02  0.18372621381E+02  0.54111466720E+02  0.62156774428E+02  0.00000000000E+00 0. -1.
         11    1    1    2    0    0  0.18566922286E+02  0.48079299417E+01 -0.37067687694E+02  0.41735599486E+02  0.00000000000E+00 0.  1.
</event>
<event>
 7    1  0.2564986E-009  0.7408262E+02  0.7561462E-02  0.1346736E+00
         -1   -1    0    0    0  501 -0.00000000000E+00  0.00000000000E+00  0.23461062591E+02  0.23461062591E+02  0.00000000000E+00 0.  1.
          1   -1    0    0  501    0  0.00000000000E+00 -0.00000000000E+00 -0.56270666318E+03  0.56270666318E+03  0.00000000000E+00 0. -1.
         25    2    1    2    0    0 -0.34728853085E+02 -0.36853562788E+01 -0.31820578789E+03  0.34369081638E+03  0.12509507875E+03 0.  0.
          5    1    3    3  502    0  0.10725744255E+01  0.30218874632E+02 -0.10879730739E+02  0.32406353403E+02  0.41800000000E+01 0.  1.
         -5    1    3    3    0  502 -0.35801427510E+02 -0.33904230911E+02 -0.30732605715E+03  0.31128446298E+03  0.41800000000E+01 0.  1.
        -11    1    1    2    0    0 -0.14202425378E+02 -0.99721903032E+01 -0.18213857476E+01  0.17449094879E+02  0.00000000000E+00 0.  1.
         11    1    1    2    0    0  0.48931278462E+02  0.13657546582E+02 -0.21921842695E+03  0.22502781452E+03  0.00000000000E+00 0. -1.
</event>
<event>
 7    1  0.2564986E-009  0.6909291E+02  0.7561462E-02  0.1363205E+00
          1   -1    0    0  501    0  0.00000000000E+00  0.00000000000E+00  0.15647709384E+03  0.15647709384E+03  0.00000000000E+00 0. -1.
         -1   -1    0    0    0  501 -0.00000000000E+00 -0.00000000000E+00 -0.88727056884E+02  0.88727056884E+02  0.00000000000E+00 0.  1.
         25    2    1    2    0    0  0.22854902296E+02 -0.46144388701E+02  0.25885318566E+02  0.13772869498E+03  0.12508993779E+03 0.  0.
          5    1    3    3  502    0 -0.32481060843E+01 -0.24062483688E+00 -0.47182748713E+02  0.47479387839E+02  0.41800000000E+01 0.  1.
         -5    1    3    3    0  502  0.26103008380E+02 -0.45903763865E+02  0.73068067279E+02  0.90249307141E+02  0.41800000000E+01 0.  1.
        -11    1    1    2    0    0  0.19791806935E+02  0.26199618739E+02 -0.12879944563E+02  0.35270789838E+02  0.00000000000E+00 0.  1.
         11    1    1    2    0    0 -0.42646709231E+02  0.19944769962E+02  0.54744662957E+02  0.72204665911E+02  0.00000000000E+00 0. -1.
</event>
<event>
 7    1  0.2564986E-009  0.1021423E+03  0.7561462E-02  0.1275854E+00
          1   -1    0    0  501    0  0.00000000000E+00  0.00000000000E+00  0.52705611218E+02  0.52705611218E+02  0.00000000000E+00 0. -1.
         -1   -1    0    0    0  501 -0.00000000000E+00 -0.00000000000E+00 -0.25820931666E+03  0.25820931666E+03  0.00000000000E+00 0.  1.
         25    2    1    2    0    0 -0.13232841421E+02  0.31473644521E+02 -0.15508097837E+03  0.20214773393E+03  0.12509155883E+03 0.  0.
          5    1    3    3  502    0 -0.58319377911E+02  0.49392260679E+02 -0.11920913352E+03  0.14166522216E+03  0.41800000000E+01 0. -1.
         -5    1    3    3    0  502  0.45086536489E+02 -0.17918616158E+02 -0.35871844852E+02  0.60482511776E+02  0.41800000000E+01 0. -1.
        -11    1    1    2    0    0 -0.29584010883E+02 -0.10705926375E+02  0.89189323071E+01  0.32701344207E+02  0.00000000000E+00 0. -1.
         11    1    1    2    0    0  0.42816852304E+02 -0.20767718145E+02 -0.59341659378E+02  0.76065849735E+02  0.00000000000E+00 0.  1.
</event>
<event>
 7    1  0.2564986E-009  0.1141261E+03  0.7561462E-02  0.1253114E+00
         -1   -1    0    0    0  501 -0.00000000000E+00  0.00000000000E+00  0.38968293664E+02  0.38968293664E+02  0.00000000000E+00 0.  1.
          1   -1    0    0  501    0  0.00000000000E+00 -0.00000000000E+00 -0.70410212832E+03  0.70410212832E+03  0.00000000000E+00 0. -1.
         25    2    1    2    0    0 -0.61236689069E+02  0.15109379114E+02 -0.59866679264E+03  0.61483854043E+03  0.12508507811E+03 0.  0.
          5    1    3    3  502    0  0.99352942573E+01  0.55660986442E+02 -0.28796121167E+03  0.29348933083E+03  0.41800000000E+01 0.  1.
         -5    1    3    3    0  502 -0.71171983326E+02 -0.40551607327E+02 -0.31070558097E+03  0.32134920960E+03  0.41800000000E+01 0.  1.
        -11    1    1    2    0    0  0.19705294569E+02 -0.37494048479E+02  0.49424553352E+01  0.42644227865E+02  0.00000000000E+00 0.  1.
         11    1    1    2    0    0  0.41531394500E+02  0.22384669365E+02 -0.71409497353E+02  0.85587653688E+02  0.00000000000E+00 0. -1.
</event>
<event>
 7    1  0.2564986E-009  0.1805626E+03  0.7561462E-02  0.1167260E+00
          2   -1    0    0  501    0  0.00000000000E+00  0.00000000000E+00  0.38230279335E+03  0.38230279335E+03  0.00000000000E+00 0. -1.
         -2   -1    0    0    0  501 -0.00000000000E+00 -0.00000000000E+00 -0.13169051519E+03  0.13169051519E+03  0.00000000000E+00 0.  1.
         25    2    1    2    0    0 -0.12706701512E+03  0.72639985105E+02 -0.19482402541E+02  0.19352032505E+03  0.12509180001E+03 0.  0.
          5    1    3    3  502    0 -0.34835893912E+01  0.67436126875E+02  0.30426937185E+01  0.67723681146E+02  0.41800000000E+01 0.  1.
         -5    1    3    3    0  502 -0.12358342573E+03  0.52038582305E+01 -0.22525096260E+02  0.12579664390E+03  0.41800000000E+01 0.  1.
        -11    1    1    2    0    0  0.80126603627E+02  0.35633517874E+01  0.99272739621E+02  0.12762463288E+03  0.00000000000E+00 0.  1.
         11    1    1    2    0    0  0.46940411490E+02 -0.76203336892E+02  0.17082194107E+03  0.19284835062E+03  0.00000000000E+00 0. -1.
</event>
<event>
 7    1  0.2564986E-009  0.1386875E+03  0.7561462E-02  0.1215106E+00
          1   -1    0    0  501    0  0.00000000000E+00  0.00000000000E+00  0.13722465280E+03  0.13722465280E+03  0.00000000000E+00 0. -1.
         -1   -1    0    0    0  501 -0.00000000000E+00 -0.00000000000E+00 -0.14396787889E+03  0.14396787889E+03  0.00000000000E+00 0.  1.
         25    2    1    2    0    0 -0.56995868058E+02 -0.64207133161E+02  0.46529083577E+00  0.15172137919E+03  0.12509226789E+03 0.  0.
          5    1    3    3  502    0 -0.57964723102E+02 -0.98335120478E+02 -0.12621131900E+02  0.11491940834E+03  0.41800000000E+01 0.  1.
         -5    1    3    3    0  502  0.96885504390E+00  0.34127987317E+02  0.13086422736E+02  0.36801970850E+02  0.41800000000E+01 0.  1.
        -11    1    1    2    0    0  0.32887714981E+02 -0.21783574008E+02  0.31131891994E+01  0.39570416225E+02  0.00000000000E+00 0. -1.
         11    1    1    2    0    0  0.24108153077E+02  0.85990707168E+02 -0.10321706129E+02  0.89900736268E+02  0.00000000000E+00 0.  1.
</event>
<event>
 7    1  0.2564986E-009  0.1143575E+03  0.7561462E-02  0.1252707E+00
          1   -1    0    0  501    0  0.00000000000E+00  0.00000000000E+00  0.21698773868E+03  0.21698773868E+03  0.00000000000E+00 0. -1.
         -1   -1    0    0    0  501 -0.00000000000E+00 -0.00000000000E+00 -0.13264167938E+03  0.13264167938E+03  0.00000000000E+00 0.  1.
         25    2    1    2    0    0 -0.38682631707E+02 -0.22753757777E+02 -0.82740668726E+02  0.15655426660E+03  0.12509652529E+03 0.  0.
          5    1    3    3  502    0 -0.84494304345E+01 -0.73216205525E+02 -0.49124509035E+02  0.88671841156E+02  0.41800000000E+01 0.  1.
         -5    1    3    3    0  502 -0.30233201273E+02  0.50462447747E+02 -0.33616159691E+02  0.67882425445E+02  0.41800000000E+01 0.  1.
        -11    1    1    2    0    0  0.22257516417E+02  0.55219188911E+02  0.91133792905E+02  0.10885735653E+03  0.00000000000E+00 0.  1.
         11    1    1    2    0    0  0.16425115290E+02 -0.32465431134E+02  0.75952935115E+02  0.84217794934E+02  0.00000000000E+00 0. -1.
</event>
<event>
 7    1  0.2564986E-009  0.1285368E+03  0.7561462E-02  0.1229643E+00
         -1   -1    0    0    0  501 -0.00000000000E+00  0.00000000000E+00  0.15906938881E+03  0.15906938881E+03  0.00000000000E+00 0.  1.
          1   -1    0    0  501    0  0.00000000000E+00 -0.00000000000E+00 -0.13854277524E+03  0.13854277524E+03  0.00000000000E+00 0. -1.
         25    2    1    2    0    0  0.76335511099E+02  0.39137176865E+02  0.64621141555E+02  0.16486815729E+03  0.12508712358E+03 0.  0.
          5    1    3    3  502    0  0.10645891348E+03  0.50959979135E+02  0.42812498805E+02  0.12562166289E+03  0.41800000000E+01 0. -1.
         -5    1    3    3    0  502 -0.30123402381E+02 -0.11822802270E+02  0.21808642750E+02  0.39246494405E+02  0.41800000000E+01 0. -1.
        -11    1    1    2    0    0 -0.41659094954E+02  0.13076801447E+02 -0.53830746497E+02  0.69312568823E+02  0.00000000000E+00 0.  1.
         11    1    1    2    0    0 -0.34676416145E+02 -0.52213978312E+02  0.97362185165E+01  0.63431437938E+02  0.00000000000E+00 0. -1.
</event>
<event>
 7    1  0.2564986E-009  0.1347731E+03  0.7561462E-02  0.1220540E+00
          2   -1    0    0  501    0  0.00000000000E+00  0.00000000000E+00  0.17436881351E+04  0.17436881351E+04  0.00000000000E+00 0. -1.
         -2   -1    0    0    0  501 -0.00000000000E+00 -0.00000000000E+00 -0.16097943506E+02  0.16097943506E+02  0.00000000000E+00 0.  1.
         25    2    1    2    0    0  0.89371162618E+02 -0.52052783047E+02  0.13047648090E+04  0.13148214307E+04  0.12508993089E+03 0.  0.
          5    1    3    3  502    0 -0.23465451003E+01 -0.37797532628E+02  0.10927828484E+03  0.11572975281E+03  0.41800000000E+01 0. -1.
         -5    1    3    3    0  502  0.91717707718E+02 -0.14255250419E+02  0.11954865242E+04  0.11990916779E+04  0.41800000000E+01 0. -1.
        -11    1    1    2    0    0 -0.34039023087E+02 -0.26016962070E+02  0.12407480325E+03  0.13126345344E+03  0.00000000000E+00 0. -1.
         11    1    1    2    0    0 -0.55332139531E+02  0.78069745117E+02  0.29875057928E+03  0.31370119443E+03  0.00000000000E+00 0.  1.
</event>
<event>
 7    1  0.2564986E-009  0.8692566E+02  0.7561462E-02  0.1310472E+00
          2   -1    0    0  501    0  0.00000000000E+00  0.00000000000E+00  0.70568027992E+03  0.70568027992E+03  0.00000000000E+00 0. -1.
         -2   -1    0    0    0  501 -0.00000000000E+00 -0.00000000000E+00 -0.26093086474E+02  0.26093086474E+02  0.00000000000E+00 0.  1.
         25    2    1    2    0    0 -0.43254396050E+01  0.51322539405E+02  0.54689501492E+03  0.56337746832E+03  0.12508917613E+03 0.  0.
          5    1    3    3  502    0 -0.32810977507E+02  0.14172970793E+00  0.35117712064E+02  0.48242164471E+02  0.41800000000E+01 0.  1.
         -5    1    3    3    0  502  0.28485537902E+02  0.51180809697E+02  0.51177730285E+03  0.51513530384E+03  0.41800000000E+01 0.  1.
        -11    1    1    2    0    0  0.20515663696E+02  0.68808052281E+01 -0.10267295713E+01  0.21663150996E+02  0.00000000000E+00 0.  1.
         11    1    1    2    0    0 -0.16190224091E+02 -0.58203344633E+02  0.13371890810E+03  0.14673274708E+03  0.00000000000E+00 0. -1.
</event>
<event>
 7    1  0.2564986E-009  0.1274507E+03  0.7561462E-02  0.1231288E+00
         -4   -1    0    0    0  501 -0.00000000000E+00  0.00000000000E+00  0.38114770911E+03  0.38114770911E+03  0.00000000000E+00 0.  1.
          4   -1    0    0  501    0  0.00000000000E+00 -0.00000000000E+00 -0.46315440853E+02  0.46315440853E+02  0.00000000000E+00 0. -1.
         25    2    1    2    0    0  0.67739102246E+02 -0.25278735712E+02  0.14201845522E+03  0.20259645437E+03  0.12509388974E+03 0.  0.
          5    1    3    3  502    0  0.10416757185E+03 -0.13260933989E+02  0.94016999792E+02  0.14100852472E+03  0.41800000000E+01 0.  1.
         -5    1    3    3    0  502 -0.36428469600E+02 -0.12017801723E+02  0.48001455427E+02  0.61587929652E+02  0.41800000000E+01 0.  1.
        -11    1    1    2    0    0 -0.77752117201E+02  0.44474308883E+02  0.12571833596E+03  0.15436468468E+03  0.00000000000E+00 0.  1.
         11    1    1    2    0    0  0.10013014955E+02 -0.19195573171E+02  0.67095477078E+02  0.70502010909E+02  0.00000000000E+00 0. -1.
</event>
<event>
 7    1  0.2564986E-009  0.1117768E+03  0.7561462E-02  0.1257315E+00
         -2   -1    0    0    0  501 -0.00000000000E+00  0.00000000000E+00  0.56645877222E+02  0.56645877222E+02  0.00000000000E+00 0. -1.
          2   -1    0    0  501    0  0.00000000000E+00 -0.00000000000E+00 -0.23511806856E+03  0.23511806856E+03  0.00000000000E+00 0.  1.
         25    2    1    2    0    0  0.22635060076E+02 -0.31416758208E+02 -0.11786087953E+03  0.17617769613E+03  0.12509210627E+03 0.  0.
          5    1    3    3  502    0  0.29589583485E+02 -0.78059269134E+02 -0.73715775300E+02  0.11144631388E+03  0.41800000000E+01 0.  1.
         -5    1    3    3    0  502 -0.69545234087E+01  0.46642510926E+02 -0.44145104229E+02  0.64731382256E+02  0.41800000000E+01 0.  1.
        -11    1    1    2    0    0 -0.50176553460E+02 -0.87604690718E+00 -0.52023987136E+02  0.72283810171E+02  0.00000000000E+00 0. -1.
         11    1    1    2    0    0  0.27541493384E+02  0.32292805115E+02 -0.85873246778E+01  0.43302439483E+02  0.00000000000E+00 0.  1.
</event>
<event>
 7    1  0.2564986E-009  0.6082118E+02  0.7561462E-02  0.1394418E+00
         -1   -1    0    0    0  501 -0.00000000000E+00  0.00000000000E+00  0.11718416118E+03  0.11718416118E+03  0.00000000000E+00 0.  1.
          1   -1    0    0  501    0  0.00000000000E+00 -0.00000000000E+00 -0.10537742067E+03  0.10537742067E+03  0.00000000000E+00 0. -1.
         25    2    1    2    0    0  0.39505765406E+01 -0.22248866537E+02 -0.25393224416E+01  0.12714149254E+03  0.12509153389E+03 0.  0.
          5    1    3    3  502    0  0.86952099049E+01  0.16786668113E+01  0.59524741906E+02  0.60324886213E+02  0.41800000000E+01 0. -1.
         -5    1    3    3    0  502 -0.47446333643E+01 -0.23927533348E+02 -0.62064064348E+02  0.66816606328E+02  0.41800000000E+01 0. -1.
        -11    1    1    2    0    0  0.39457907477E+02  0.28675477825E+01  0.24870924476E+02  0.46730206259E+02  0.00000000000E+00 0. -1.
         11    1    1    2    0    0 -0.43408484018E+02  0.19381318754E+02 -0.10524861529E+02  0.48689883052E+02  0.00000000000E+00 0.  1.
</event>
<event>
 7    1  0.2564986E-009  0.8329413E+02  0.7561462E-02  0.1319955E+00
          2   -1    0    0  501    0  0.00000000000E+00  0.00000000000E+00  0.17344114414E+03  0.17344114414E+03  0.00000000000E+00 0.  1.
         -2   -1    0    0    0  501 -0.00000000000E+00 -0.00000000000E+00 -0.10964047855E+03  0.10964047855E+03  0.00000000000E+00 0. -1.
         25    2    1    2    0    0 -0.25640188304E+02 -0.25975424608E+02 -0.40720089954E+02  0.13652084216E+03  0.12509065784E+03 0.  0.
          5    1    3    3  502    0 -0.11051076561E+02 -0.62586621290E+02 -0.64217691290E+02  0.90446645777E+02  0.41800000000E+01 0.  1.
         -5    1    3    3    0  502 -0.14589111742E+02  0.36611196682E+02  0.23497601337E+02  0.46074196385E+02  0.41800000000E+01 0.  1.
        -11    1    1    2    0    0 -0.15609719594E+02  0.12075608066E+02 -0.11362026332E+02  0.22772336252E+02  0.00000000000E+00 0. -1.
         11    1    1    2    0    0  0.41249907898E+02  0.13899816542E+02  0.11588278188E+03  0.12378844428E+03  0.00000000000E+00 0.  1.
</event>
<event>
 7    1  0.2564986E-009  0.1612442E+03  0.7561462E-02  0.1187299E+00
         -2   -1    0    0    0  501 -0.00000000000E+00  0.00000000000E+00  0.23316531288E+03  0.23316531288E+03  0.00000000000E+00 0.  1.
          2   -1    0    0  501    0  0.00000000000E+00 -0.00000000000E+00 -0.16670916387E+03  0.16670916387E+03  0.00000000000E+00 0. -1.
         25    2    1    2    0    0 -0.12069462971E+03  0.76786759181E+02 -0.47990058866E+02  0.19599467944E+03  0.12508984208E+03 0.  0.
          5    1    3    3  502    0 -0.10921934217E+03  0.41561462244E+02  0.19828592490E+02  0.11860381667E+03  0.41800000000E+01 0. -1.
         -5    1    3    3    0  502 -0.11475287535E+02  0.35225296937E+02 -0.67818651355E+02  0.77390862768E+02  0.41800000000E+01 0. -1.
        -11    1    1    2    0    0  0.84893576541E+02 -0.95579859158E+02  0.80376673218E+02  0.15100608733E+03  0.00000000000E+00 0.  1.
         11    1    1    2    0    0  0.35801053168E+02  0.18793099977E+02  0.34069534656E+02  0.52873709973E+02  0.00000000000E+00 0. -1.
</event>
<event>
 7    1  0.2564986E-009  0.1989070E+03  0.7561462E-02  0.1150664E+00
          2   -1    0    0  501    0  0.00000000000E+00  0.00000000000E+00  0.34395949115E+03  0.34395949115E+03  0.00000000000E+00 0. -1.
         -2   -1    0    0    0  501 -0.00000000000E+00 -0.00000000000E+00 -0.14637610327E+03  0.14637610327E+03  0.00000000000E+00 0.  1.
         25    2    1    2    0    0 -0.18060311933E+03  0.72444444866E+02  0.70241561792E+02  0.24175760899E+03  0.12508868933E+03 0.  0.
          5    1    3    3  502    0 -0.15470890318E+03  0.57210227604E+02 -0.26716735503E+00  0.16500120801E+03  0.41800000000E+01 0.  1.
         -5    1    3    3    0  502 -0.25894216149E+02  0.15234217261E+02  0.70508729147E+02  0.76756400980E+02  0.41800000000E+01 0.  1.
        -11    1    1    2    0    0  0.86968803266E+02 -0.64952717128E+02  0.28510572398E+02  0.11222869928E+03  0.00000000000E+00 0.  1.
         11    1    1    2    0    0  0.93634316063E+02 -0.74917277377E+01  0.98831253683E+02  0.13634928615E+03  0.00000000000E+00 0. -1.
</event>
<event>
 7    1  0.2564986E-009  0.2037585E+03  0.7561462E-02  0.1146606E+00
         -1   -1    0    0    0  501 -0.00000000000E+00  0.00000000000E+00  0.69049742056E+02  0.69049742056E+02  0.00000000000E+00 0.  1.
          1   -1    0    0  501    0  0.00000000000E+00 -0.00000000000E+00 -0.64325249087E+03  0.64325249087E+03  0.00000000000E+00 0. -1.
         25    2    1    2    0    0  0.16464217124E+03 -0.74216555337E+02 -0.32059491256E+03  0.38864474949E+03  0.12509397152E+03 0.  0.
          5    1    3    3  502    0  0.49381044456E+02  0.34781913517E+02 -0.99979832354E+02  0.11688331077E+03  0.41800000000E+01 0. -1.
         -5    1    3    3    0  502  0.11526112678E+03 -0.10899846885E+03 -0.22061508020E+03  0.27176143872E+03  0.41800000000E+01 0. -1.
        -11    1    1    2    0    0 -0.12212378047E+03  0.27636466409E+02 -0.21754959964E+03  0.25100960208E+03  0.00000000000E+00 0. -1.
         11    1    1    2    0    0 -0.42518390770E+02  0.46580088928E+02 -0.36058236614E+02  0.72647881359E+02  0.00000000000E+00 0.  1.
</event>
<event>
 7    1  0.2564986E-009  0.9266950E+02  0.7561462E-02  0.1296513E+00
         -2   -1    0    0    0  501 -0.00000000000E+00  0.00000000000E+00  0.29122536220E+02  0.29122536220E+02  0.00000000000E+00 0.  1.
          2   -1    0    0  501    0  0.00000000000E+00 -0.00000000000E+00 -0.64674205099E+03  0.64674205099E+03  0.00000000000E+00 0. -1.
         25    2    1    2    0    0  0.79783641823E+01 -0.14448707147E+02 -0.53831882936E+03  0.55290568918E+03  0.12508045272E+03 0.  0.
          5    1    3    3  502    0 -0.48293181731E+02 -0.39676650947E+02 -0.31632225982E+03  0.32246505623E+03  0.41800000000E+01 0. -1.
         -5    1    3    3    0  502  0.56271545913E+02  0.25227943800E+02 -0.22199656954E+03  0.23044063295E+03  0.41800000000E+01 0. -1.
        -11    1    1    2    0    0 -0.53001120722E+01 -0.22868667139E+02  0.10470032834E+02  0.25703865706E+02  0.00000000000E+00 0.  1.
         11    1    1    2    0    0 -0.26782521101E+01  0.37317374286E+02 -0.89770718245E+02  0.97255032323E+02  0.00000000000E+00 0. -1.
</event>
<event>
 7    1  0.2564986E-009  0.1280012E+03  0.7561462E-02  0.1230452E+00
          2   -1    0    0  501    0  0.00000000000E+00  0.00000000000E+00  0.86335463199E+03  0.86335463199E+03  0.00000000000E+00 0. -1.
         -2   -1    0    0    0  501 -0.00000000000E+00 -0.00000000000E+00 -0.21080552393E+02  0.21080552393E+02  0.00000000000E+00 0.  1.
         25    2    1    2    0    0 -0.57273275045E+02  0.39225303626E+02  0.59347965993E+03  0.61047872190E+03  0.12508921078E+03 0.  0.
          5    1    3    3  502    0 -0.75209516387E+02  0.72455629060E+02  0.41050915372E+03  0.42360539093E+03  0.41800000000E+01 0.  1.
         -5    1    3    3    0  502  0.17936241342E+02 -0.33230325434E+02  0.18297050621E+03  0.18687333096E+03  0.41800000000E+01 0.  1.
        -11    1    1    2    0    0 -0.10856397671E+02  0.20301165401E+02  0.36045389736E+02  0.42769952165E+02  0.00000000000E+00 0.  1.
         11    1    1    2    0    0  0.68129672716E+02 -0.59526469027E+02  0.21274902993E+03  0.23118651032E+03  0.00000000000E+00 0. -1.
</event>
<event>
 7    1  0.2564986E-009  0.9281730E+02  0.7561462E-02  0.1296169E+00
          2   -1    0    0  501    0  0.00000000000E+00  0.00000000000E+00  0.16971947545E+03  0.16971947545E+03  0.00000000000E+00 0. -1.
         -2   -1    0    0    0  501 -0.00000000000E+00 -0.00000000000E+00 -0.13267764403E+03  0.13267764403E+03  0.00000000000E+00 0.  1.
         25    2    1    2    0    0 -0.27335370204E+02  0.53022412844E+02  0.10550132278E+03  0.17417576285E+03  0.12509224008E+03 0.  0.
          5    1    3    3  502    0 -0.15475408628E+02 -0.72364704678E+01 -0.24603529128E+02  0.30243359975E+02  0.41800000000E+01 0.  1.
         -5    1    3    3    0  502 -0.11859961576E+02  0.60258883312E+02  0.13010485191E+03  0.14393240287E+03  0.41800000000E+01 0.  1.
        -11    1    1    2    0    0 -0.30823903773E+02 -0.32559822204E+02 -0.40899293424E+02  0.60687785166E+02  0.00000000000E+00 0.  1.
         11    1    1    2    0    0  0.58159273977E+02 -0.20462590639E+02 -0.27560197936E+02  0.67533571470E+02  0.00000000000E+00 0. -1.
</event>
<event>
 7    1  0.2564986E-009  0.1264408E+03  0.7561462E-02  0.1232835E+00
          2   -1    0    0  501    0  0.00000000000E+00  0.00000000000E+00  0.35442076322E+03  0.35442076322E+03  0.00000000000E+00 0. -1.
         -2   -1    0    0    0  501 -0.00000000000E+00 -0.00000000000E+00 -0.79161298284E+02  0.79161298284E+02  0.00000000000E+00 0.  1.
         25    2    1    2    0    0 -0.70929432998E+01 -0.10228069914E+03  0.49618700213E+02  0.16917635391E+03  0.12508785733E+03 0.  0.
          5    1    3    3  502    0 -0.49135987206E+02 -0.95527298656E+02  0.53916207890E+01  0.10763991826E+03  0.41800000000E+01 0. -1.
         -5    1    3    3    0  502  0.42043043906E+02 -0.67534004817E+01  0.44227079424E+02  0.61536435657E+02  0.41800000000E+01 0. -1.
        -11    1    1    2    0    0  0.23270125132E+01  0.59387427206E+02  0.35068533159E+02  0.69007851114E+02  0.00000000000E+00 0.  1.
         11    1    1    2    0    0  0.47659307866E+01  0.42893271932E+02  0.19057223157E+03  0.19539785648E+03  0.00000000000E+00 0. -1.
</event>
<event>
 7    1  0.2564986E-009  0.1045701E+03  0.7561462E-02  0.1270969E+00
          1   -1    0    0  501    0  0.00000000000E+00  0.00000000000E+00  0.22412837776E+03  0.22412837776E+03  0.00000000000E+00 0. -1.
         -1   -1    0    0    0  501 -0.00000000000E+00 -0.00000000000E+00 -0.61783713725E+02  0.61783713725E+02  0.00000000000E+00 0.  1.
         25    2    1    2    0    0 -0.18208280114E+02 -0.25861943978E+02  0.14034296077E+03  0.19064181308E+03  0.12509105742E+03 0.  0.
          5    1    3    3  502    0 -0.30393484958E+02 -0.70492315075E+02  0.11320824905E+03  0.13684484084E+03  0.41800000000E+01 0.  1.
         -5    1    3    3    0  502  0.12185204845E+02  0.44630371097E+02  0.27134711714E+02  0.53796972231E+02  0.41800000000E+01 0.  1.
        -11    1    1    2    0    0 -0.16184569154E+02 -0.21727154229E+02  0.24462745493E+02  0.36502540003E+02  0.00000000000E+00 0.  1.
         11    1    1    2    0    0  0.34392849268E+02  0.47589098207E+02 -0.24610422214E+01  0.58767738409E+02  0.00000000000E+00 0. -1.
</event>
<event>
 7    1  0.2564986E-009  0.1592581E+03  0.7561462E-02  0.1189537E+00
         -2   -1    0    0    0  501 -0.00000000000E+00  0.00000000000E+00  0.31837255856E+02  0.31837255856E+02  0.00000000000E+00 0.  1.
          2   -1    0    0  501    0  0.00000000000E+00 -0.00000000000E+00 -0.81821588078E+03  0.81821588078E+03  0.00000000000E+00 0. -1.
         25    2    1    2    0    0 -0.20260817981E+01  0.12057363451E+03 -0.41823915109E+03  0.45289513027E+03  0.12509158714E+03 0.  0.
          5    1    3    3  502    0 -0.46829127229E+02  0.11544904402E+03 -0.34449558700E+03  0.36635519757E+03  0.41800000000E+01 0. -1.
         -5    1    3    3    0  502  0.44803045431E+02  0.51245904893E+01 -0.73743564087E+02  0.86539932701E+02  0.41800000000E+01 0. -1.
        -11    1    1    2    0    0 -0.42191544415E+02 -0.51766741552E+02 -0.15024172929E+03  0.16441562934E+03  0.00000000000E+00 0.  1.
         11    1    1    2    0    0  0.44217626213E+02 -0.68806892956E+02 -0.21789774454E+03  0.23274237703E+03  0.00000000000E+00 0. -1.
</event>
<event>
 7    1  0.2564986E-009  0.1370176E+03  0.7561462E-02  0.1217399E+00
         -3   -1    0    0    0  501 -0.00000000000E+00  0.00000000000E+00  0.12923027658E+03  0.12923027658E+03  0.00000000000E+00 0.  1.
          3   -1    0    0  501    0  0.00000000000E+00 -0.00000000000E+00 -0.21160939891E+03  0.21160939891E+03  0.00000000000E+00 0. -1.
         25    2    1    2    0    0 -0.93905281390E+02  0.54068962004E+02  0.18779421061E+02  0.16655793189E+03  0.12508886239E+03 0.  0.
          5    1    3    3  502    0 -0.20401607933E+02 -0.19400648054E+02  0.50371112897E+02  0.57856133345E+02  0.41800000000E+01 0.  1.
         -5    1    3    3    0  502 -0.73503673457E+02  0.73469610058E+02 -0.31591691836E+02  0.10870179854E+03  0.41800000000E+01 0.  1.
        -11    1    1    2    0    0  0.10896094201E+03 -0.29729684502E+02 -0.75596513627E+02  0.13590869692E+03  0.00000000000E+00 0.  1.
         11    1    1    2    0    0 -0.15055660624E+02 -0.24339277502E+02 -0.25562029766E+02  0.38373046685E+02  0.00000000000E+00 0. -1.
</event>
<event>
 7    1  0.2564986E-009  0.5652320E+02  0.7561462E-02  0.1413030E+00
         -1   -1    0    0    0  501 -0.00000000000E+00  0.00000000000E+00  0.30625892854E+02  0.30625892854E+02  0.00000000000E+00 0.  1.
          1   -1    0    0  501    0  0.00000000000E+00 -0.00000000000E+00 -0.18821931481E+04  0.18821931481E+04  0.00000000000E+00 0. -1.
         25    2    1    2    0    0 -0.33215491415E+02  0.11078197721E+02 -0.17967168557E+04  0.18014062870E+04  0.12508859273E+03 0.  0.
          5    1    3    3  502    0 -0.35793251137E+02 -0.14761878236E+02 -0.16712515376E+03  0.17160232893E+03  0.41800000000E+01 0. -1.
         -5    1    3    3    0  502  0.25777597225E+01  0.25840075957E+02 -0.16295917019E+04  0.16298039581E+04  0.41800000000E+01 0. -1.
        -11    1    1    2    0    0  0.16789108033E+00 -0.14568619189E+02  0.22739080967E+02  0.27006270674E+02  0.00000000000E+00 0.  1.
         11    1    1    2    0    0  0.33047600334E+02  0.34904214676E+01 -0.77589480539E+02  0.84406483283E+02  0.00000000000E+00 0. -1.
</event>
<event>
 7    1  0.2564986E-009  0.1556353E+03  0.7561462E-02  0.1193714E+00
         -2   -1    0    0    0  501 -0.00000000000E+00  0.00000000000E+00  0.20587552217E+03  0.20587552217E+03  0.00000000000E+00 0.  1.
          2   -1    0    0  501    0  0.00000000000E+00 -0.00000000000E+00 -0.13690385965E+03  0.13690385965E+03  0.00000000000E+00 0. -1.
         25    2    1    2    0    0  0.37956659218E+02 -0.11513041558E+03 -0.17387020245E+01  0.17420423060E+03  0.12509344629E+03 0.  0.
          5    1    3    3  502    0  0.81893998629E+02 -0.54139066581E+02 -0.84325418774E+01  0.98621730385E+02  0.41800000000E+01 0.  1.
         -5    1    3    3    0  502 -0.43937339411E+02 -0.60991349000E+02  0.66938398529E+01  0.75582500219E+02  0.41800000000E+01 0.  1.
        -11    1    1    2    0    0  0.17375058809E+02  0.13482577378E+02  0.44904724618E+02  0.50001068533E+02  0.00000000000E+00 0.  1.
         11    1    1    2    0    0 -0.55331718027E+02  0.10164783820E+03  0.25805639927E+02  0.11857408268E+03  0.00000000000E+00 0. -1.
</event>
<event>
 7    1  0.2564986E-009  0.1381663E+03  0.7561462E-02  0.1215818E+00
         -2   -1    0    0    0  501 -0.00000000000E+00  0.00000000000E+00  0.12054308748E+03  0.12054308748E+03  0.00000000000E+00 0.  1.
          2   -1    0    0  501    0  0.00000000000E+00 -0.00000000000E+00 -0.16780462011E+03  0.16780462011E+03  0.00000000000E+00 0. -1.
         25    2    1    2    0    0 -0.19126590507E+01  0.85550553012E+02  0.73887704442E+01  0.15173836067E+03  0.12508949110E+03 0.  0.
          5    1    3    3  502    0 -0.60873855366E+02  0.22573777737E+02  0.62647202442E+01  0.65359932896E+02  0.41800000000E+01 0. -1.
         -5    1    3    3    0  502  0.58961196316E+02  0.62976775275E+02  0.11240502000E+01  0.86378427769E+02  0.41800000000E+01 0. -1.
        -11    1    1    2    0    0 -0.38136883282E+01  0.19412420493E+02 -0.52923472976E+01  0.20479141290E+02  0.00000000000E+00 0.  1.
         11    1    1    2    0    0  0.57263473789E+01 -0.10496297351E+03 -0.49357955785E+02  0.11613020563E+03  0.00000000000E+00 0. -1.
</event>
<event>
 7    1  0.2564986E-009  0.3109025E+03  0.7561462E-02  0.1079914E+00
          3   -1    0    0  501    0  0.00000000000E+00  0.00000000000E+00  0.53526958586E+03  0.53526958586E+03  0.00000000000E+00 0. -1.
         -3   -1    0    0    0  501 -0.00000000000E+00 -0.00000000000E+00 -0.18606575792E+03  0.18606575792E+03  0.00000000000E+00 0.  1.
         25    2    1    2    0    0  0.10660218595E+03  0.27284652842E+03  0.22507989402E+03  0.39002055281E+03  0.12508324750E+03 0.  0.
          5    1    3    3  502    0  0.13078457898E+03  0.20730582456E+03  0.19746027622E+03  0.31478301110E+03  0.41800000000E+01 0. -1.
         -5    1    3    3    0  502 -0.24182393032E+02  0.65540703855E+02  0.27619617807E+02  0.75237541709E+02  0.41800000000E+01 0. -1.
        -11    1    1    2    0    0 -0.78865162533E+02 -0.81814828866E+02  0.36800500723E+02  0.11944729774E+03  0.00000000000E+00 0.  1.
         11    1    1    2    0    0 -0.27737023418E+02 -0.19103169955E+03  0.87323433193E+02  0.21186749322E+03  0.00000000000E+00 0. -1.
</event>
<event>
 7    1  0.2564986E-009  0.1014631E+03  0.7561462E-02  0.1277249E+00
          2   -1    0    0  501    0  0.00000000000E+00  0.00000000000E+00  0.14844740341E+03  0.14844740341E+03  0.00000000000E+00 0. -1.
         -2   -1    0    0    0  501 -0.00000000000E+00 -0.00000000000E+00 -0.80541433252E+02  0.80541433252E+02  0.00000000000E+00 0.  1.
         25    2    1    2    0    0  0.18416090079E+02  0.20459554177E+01  0.54671592472E+02  0.13776411278E+03  0.12508648784E+03 0.  0.
          5    1    3    3  502    0  0.32571903051E+02 -0.49305874108E+02 -0.27810124238E+01  0.59306024315E+02  0.41800000000E+01 0. -1.
         -5    1    3    3    0  502 -0.14155812972E+02  0.51351829525E+02  0.57452604896E+02  0.78458088466E+02  0.41800000000E+01 0. -1.
        -11    1    1    2    0    0 -0.47191728103E+02 -0.25036941916E+02  0.73476787380E+01  0.53924911170E+02  0.00000000000E+00 0.  1.
         11    1    1    2    0    0  0.28775638024E+02  0.22990986498E+02  0.58866989500E+01  0.37299812712E+02  0.00000000000E+00 0. -1.
</event>
<event>
 7    1  0.2564986E-009  0.7660540E+02  0.7561462E-02  0.1338970E+00
          1   -1    0    0  501    0  0.00000000000E+00  0.00000000000E+00  0.15777847463E+03  0.15777847463E+03  0.00000000000E+00 0. -1.
         -1   -1    0    0    0  501 -0.00000000000E+00 -0.00000000000E+00 -0.12361321260E+03  0.12361321260E+03  0.00000000000E+00 0.  1.
         25    2    1    2    0    0  0.15636715525E+02 -0.32835839100E+02  0.91560809286E+02  0.15922885407E+03  0.12509095479E+03 0.  0.
          5    1    3    3  502    0 -0.22513912130E+01 -0.26098685073E+02 -0.27711915135E+02  0.38361866031E+02  0.41800000000E+01 0. -1.
         -5    1    3    3    0  502  0.17888106738E+02 -0.67371540274E+01  0.11927272442E+03  0.12086698804E+03  0.41800000000E+01 0. -1.
        -11    1    1    2    0    0 -0.23827432073E+02  0.67456441010E+02 -0.44860592684E+02  0.84442825207E+02  0.00000000000E+00 0.  1.
         11    1    1    2    0    0  0.81907165480E+01 -0.34620601910E+02 -0.12534954569E+02  0.37720007956E+02  0.00000000000E+00 0. -1.
</event>
<event>
 7    1  0.2564986E-009  0.1864872E+03  0.7561462E-02  0.1161668E+00
          1   -1    0    0  501    0  0.00000000000E+00  0.00000000000E+00  0.11584175741E+04  0.11584175741E+04  0.00000000000E+00 0. -1.
         -1   -1    0    0    0  501 -0.00000000000E+00 -0.00000000000E+00 -0.31017859517E+02  0.31017859517E+02  0.00000000000E+00 0.  1.
         25    2    1    2    0    0  0.26470620009E+02  0.14957905365E+03  0.69219145437E+03  0.71961893530E+03  0.12509122883E+03 0.  0.
          5    1    3    3  502    0  0.76500882129E+02  0.98619917668E+02  0.46073731437E+03  0.47736214595E+03  0.41800000000E+01 0.  1.
         -5    1    3    3    0  502 -0.50030262120E+02  0.50959135986E+02  0.23145413999E+03  0.24225678936E+03  0.41800000000E+01 0.  1.
        -11    1    1    2    0    0 -0.20964442110E+02 -0.16179968629E+03  0.40993172348E+03  0.44120592044E+03  0.00000000000E+00 0.  1.
         11    1    1    2    0    0 -0.55061778993E+01  0.12220632639E+02  0.25276536785E+02  0.28610577922E+02  0.00000000000E+00 0. -1.
</event>
<event>
 7    1  0.2564986E-009  0.2274067E+03  0.7561462E-02  0.1128478E+00
          1   -1    0    0  501    0  0.00000000000E+00  0.00000000000E+00  0.34259255606E+03  0.34259255606E+03  0.00000000000E+00 0. -1.
         -1   -1    0    0    0  501 -0.00000000000E+00 -0.00000000000E+00 -0.18361376889E+03  0.18361376889E+03  0.00000000000E+00 0.  1.
         25    2    1    2    0    0 -0.84500430048E+02  0.19269170347E+03  0.18734797793E+03  0.30824626279E+03  0.12508428528E+03 0.  0.
          5    1    3    3  502    0  0.10450748726E+02  0.11785148780E+03  0.12495444881E+03  0.17213157178E+03  0.41800000000E+01 0.  1.
         -5    1    3    3    0  502 -0.94951178774E+02  0.74840215678E+02  0.62393529116E+02  0.13611469101E+03  0.41800000000E+01 0.  1.
        -11    1    1    2    0    0  0.90711696248E+01 -0.75778049097E+02 -0.19770439434E+01  0.76344662852E+02  0.00000000000E+00 0.  1.
         11    1    1    2    0    0  0.75429260423E+02 -0.11691365438E+03 -0.26392146809E+02  0.14161539931E+03  0.00000000000E+00 0. -1.
</event>
<event>
 7    1  0.2564986E-009  0.1865476E+03  0.7561462E-02  0.1161612E+00
          2   -1    0    0  501    0  0.00000000000E+00  0.00000000000E+00  0.18962798723E+03  0.18962798723E+03  0.00000000000E+00 0. -1.
         -2   -1    0    0    0  501 -0.00000000000E+00 -0.00000000000E+00 -0.28419168912E+03  0.28419168912E+03  0.00000000000E+00 0.  1.
         25    2    1    2    0    0 -0.95153741618E+02 -0.11854492067E+03  0.91499921718E+02  0.21708787452E+03  0.12509107414E+03 0.  0.
          5    1    3    3  502    0  0.30548927814E+02 -0.22686614937E+02  0.23743761989E+02  0.45046177654E+02  0.41800000000E+01 0.  1.
         -5    1    3    3    0  502 -0.12570266943E+03 -0.95858305731E+02  0.67756159729E+02  0.17204169687E+03  0.41800000000E+01 0.  1.
        -11    1    1    2    0    0  0.49568455935E+01  0.77366809593E+02 -0.87976790073E+02  0.11726085935E+03  0.00000000000E+00 0.  1.
         11    1    1    2    0    0  0.90196896024E+02  0.41178111075E+02 -0.98086833532E+02  0.13947094248E+03  0.00000000000E+00 0. -1.
</event>
<event>
 7    1  0.2564986E-009  0.1825274E+03  0.7561462E-02  0.1165379E+00
         -2   -1    0    0    0  501 -0.00000000000E+00  0.00000000000E+00  0.72009787453E+02  0.72009787453E+02  0.00000000000E+00 0.  1.
          2   -1    0    0  501    0  0.00000000000E+00 -0.00000000000E+00 -0.53295641374E+03  0.53295641374E+03  0.00000000000E+00 0. -1.
         25    2    1    2    0    0  0.30958456351E+02 -0.14343891443E+03 -0.13317954283E+03  0.23434002020E+03  0.12508119860E+03 0.  0.
          5    1    3    3  502    0 -0.38136461507E+02 -0.10814147410E+03 -0.86485694340E+02  0.14368791126E+03  0.41800000000E+01 0. -1.
         -5    1    3    3    0  502  0.69094917858E+02 -0.35297440332E+02 -0.46693848488E+02  0.90652108935E+02  0.41800000000E+01 0. -1.
        -11    1    1    2    0    0  0.36307711749E+01  0.13745793534E+03 -0.27083264609E+03  0.30374033100E+03  0.00000000000E+00 0. -1.
         11    1    1    2    0    0 -0.34589227526E+02  0.59809790967E+01 -0.56934437371E+02  0.66885850002E+02  0.00000000000E+00 0.  1.
</event>
<event>
 7    1  0.2564986E-009  0.1276200E+03  0.7561462E-02  0.1231031E+00
         -2   -1    0    0    0  501 -0.00000000000E+00  0.00000000000E+00  0.59374346508E+02  0.59374346508E+02  0.00000000000E+00 0.  1.
          2   -1    0    0  501    0  0.00000000000E+00 -0.00000000000E+00 -0.31108732002E+03  0.31108732002E+03  0.00000000000E+00 0. -1.
         25    2    1    2    0    0  0.28633384008E+02 -0.20743694349E+02 -0.19030483474E+03  0.23046387188E+03  0.12508994597E+03 0.  0.
          5    1    3    3  502    0  0.48735025617E+02  0.41404457401E+02 -0.84533008160E+02  0.10607890310E+03  0.41800000000E+01 0. -1.
         -5    1    3    3    0  502 -0.20101641609E+02 -0.62148151750E+02 -0.10577182658E+03  0.12438496878E+03  0.41800000000E+01 0. -1.
        -11    1    1    2    0    0 -0.72034886871E+02 -0.97054195668E+01 -0.32636518236E+02  0.79676611487E+02  0.00000000000E+00 0.  1.
         11    1    1    2    0    0  0.43401502863E+02  0.30449113915E+02 -0.28771620536E+02  0.60321183156E+02  0.00000000000E+00 0. -1.
</event>
<event>
 7    1  0.2564986E-009  0.1297406E+03  0.7561462E-02  0.1227841E+00
          1   -1    0    0  501    0  0.00000000000E+00  0.00000000000E+00  0.27234926274E+03  0.27234926274E+03  0.00000000000E+00 0. -1.
         -1   -1    0    0    0  501 -0.00000000000E+00 -0.00000000000E+00 -0.99021663801E+02  0.99021663801E+02  0.00000000000E+00 0.  1.
         25    2    1    2    0    0 -0.25563958705E+02  0.10518711022E+03  0.27872871235E+02  0.16775298361E+03  0.12508526060E+03 0.  0.
          5    1    3    3  502    0  0.13578110557E+02  0.79164141075E+02  0.68376061902E+02  0.10556554627E+03  0.41800000000E+01 0.  1.
         -5    1    3    3    0  502 -0.39142069262E+02  0.26022969141E+02 -0.40503190667E+02  0.62187437343E+02  0.41800000000E+01 0.  1.
        -11    1    1    2    0    0  0.31601062213E+02 -0.55996674196E+01  0.74709193603E+02  0.81310805045E+02  0.00000000000E+00 0. -1.
         11    1    1    2    0    0 -0.60371035081E+01 -0.99587442796E+02  0.70745534099E+02  0.12230713788E+03  0.00000000000E+00 0.  1.
</event>
<event>
 7    1  0.3943417E-009  0.1093915E+03  0.7561462E-02  0.1261701E+00
         -3   -1    0    0    0  501 -0.00000000000E+00  0.00000000000E+00  0.13687993223E+03  0.13687993223E+03  0.00000000000E+00 0.  1.
          3   -1    0    0  501    0  0.00000000000E+00 -0.00000000000E+00 -0.14991059664E+03  0.14991059664E+03  0.00000000000E+00 0. -1.
         25    2    1    2    0    0 -0.46498905785E+02  0.25794193362E+02  0.69165752572E+02  0.15250540375E+03  0.12508600319E+03 0.  0.
          5    1    3    3  502    0  0.66961584139E+01  0.52625335461E+02  0.75582833866E+02  0.92436473565E+02  0.41800000000E+01 0. -1.
         -5    1    3    3    0  502 -0.53195064199E+02 -0.26831142099E+02 -0.64170812941E+01  0.60068930187E+02  0.41800000000E+01 0. -1.
        -11    1    1    2    0    0 -0.12487727091E+02 -0.42694873104E+02 -0.29241343157E+02  0.53233933416E+02  0.00000000000E+00 0.  1.
         11    1    1    2    0    0  0.58986632876E+02  0.16900679742E+02 -0.52955073817E+02  0.81051191704E+02  0.00000000000E+00 0. -1.
</event>
<event>
 7    1  0.2564986E-009  0.1109301E+03  0.7561462E-02  0.1258857E+00
          1   -1    0    0  501    0  0.00000000000E+00  0.00000000000E+00  0.14228936822E+03  0.14228936822E+03  0.00000000000E+00 0. -1.
         -1   -1    0    0    0  501 -0.00000000000E+00 -0.00000000000E+00 -0.10924841768E+03  0.10924841768E+03  0.00000000000E+00 0.  1.
         25    2    1    2    0    0  0.41621774865E+02 -0.19423663674E+02  0.16733372995E+02  0.13431717073E+03  0.12510573819E+03 0.  0.
          5    1    3    3  502    0  0.65649428641E+02  0.33725439343E+02  0.17230693333E+01  0.73943857809E+02  0.41800000000E+01 0. -1.
         -5    1    3    3    0  502 -0.24027653776E+02 -0.53149103017E+02  0.15010303662E+02  0.60373312925E+02  0.41800000000E+01 0. -1.
        -11    1    1    2    0    0 -0.36570586424E+02 -0.25288334485E+02 -0.29223896040E+02  0.53206613801E+02  0.00000000000E+00 0.  1.
         11    1    1    2    0    0 -0.50511884416E+01  0.44711998159E+02  0.45531473584E+02  0.64014001365E+02  0.00000000000E+00 0. -1.
</event>
<event>
 7    1  0.2564986E-009  0.1289846E+03  0.7561462E-02  0.1228970E+00
          4   -1    0    0  501    0  0.00000000000E+00  0.00000000000E+00  0.54892607668E+02  0.54892607668E+02  0.00000000000E+00 0. -1.
         -4   -1    0    0    0  501 -0.00000000000E+00 -0.00000000000E+00 -0.47765048966E+03  0.47765048966E+03  0.00000000000E+00 0.  1.
         25    2    1    2    0    0  0.76944000346E+02  0.47114497294E+02 -0.35707994228E+03  0.38896451798E+03  0.12508859270E+03 0.  0.
          5    1    3    3  502    0  0.16210634821E+02  0.65046144740E+02 -0.78804812646E+02  0.10354446640E+03  0.41800000000E+01 0. -1.
         -5    1    3    3    0  502  0.60733365525E+02 -0.17931647446E+02 -0.27827512963E+03  0.28542005157E+03  0.41800000000E+01 0. -1.
        -11    1    1    2    0    0 -0.54189003127E+02 -0.74253485015E+02 -0.52001250953E+02  0.10561324821E+03  0.00000000000E+00 0.  1.
         11    1    1    2    0    0 -0.22754997219E+02  0.27138987721E+02 -0.13676688757E+02  0.37965331137E+02  0.00000000000E+00 0. -1.
</event>
<event>
 7    1  0.2564986E-009  0.1033761E+03  0.7561462E-02  0.1273352E+00
         -1   -1    0    0    0  501 -0.00000000000E+00  0.00000000000E+00  0.25820103036E+03  0.25820103036E+03  0.00000000000E+00 0.  1.
          1   -1    0    0  501    0  0.00000000000E+00 -0.00000000000E+00 -0.96311269588E+02  0.96311269588E+02  0.00000000000E+00 0. -1.
         25    2    1    2    0    0  0.28846396508E+02 -0.76570748726E+02  0.17611077472E+03  0.23098312223E+03  0.12507199378E+03 0.  0.
          5    1    3    3  502    0  0.94435486014E+01 -0.25070580194E+01  0.14941395309E+03  0.14979141407E+03  0.41800000000E+01 0. -1.
         -5    1    3    3    0  502  0.19402847907E+02 -0.74063690707E+02  0.26696821628E+02  0.81191708154E+02  0.41800000000E+01 0. -1.
        -11    1    1    2    0    0 -0.38883073336E+01  0.90689694153E+02 -0.22810936687E+02  0.93595290437E+02  0.00000000000E+00 0. -1.
         11    1    1    2    0    0 -0.24958089175E+02 -0.14118945426E+02  0.85899227323E+01  0.29933887281E+02  0.00000000000E+00 0.  1.
</event>
<event>
 7    1  0.2564986E-009  0.1043057E+03  0.7561462E-02  0.1271494E+00
          1   -1    0    0  501    0  0.00000000000E+00  0.00000000000E+00  0.49010654309E+03  0.49010654309E+03  0.00000000000E+00 0. -1.
         -1   -1    0    0    0  501 -0.00000000000E+00 -0.00000000000E+00 -0.35905916677E+02  0.35905916677E+02  0.00000000000E+00 0.  1.
         25    2    1    2    0    0  0.16651263730E+02 -0.69495886504E+02  0.29589004390E+03  0.32909400192E+03  0.12507997921E+03 0.  0.
          5    1    3    3  502    0  0.20666391100E+02  0.18659161639E+02  0.18588539592E+03  0.18800562984E+03  0.41800000000E+01 0.  1.
         -5    1    3    3    0  502 -0.40151273699E+01 -0.88155048143E+02  0.11000464798E+03  0.14108837209E+03  0.41800000000E+01 0.  1.
        -11    1    1    2    0    0 -0.37668254081E+02  0.33407966287E+02  0.23080635084E+02  0.55386869317E+02  0.00000000000E+00 0.  1.
         11    1    1    2    0    0  0.21016990350E+02  0.36087920217E+02  0.13522994743E+03  0.14153158853E+03  0.00000000000E+00 0. -1.
</event>
<event>
 7    1  0.2564986E-009  0.2150641E+03  0.7561462E-02  0.1137617E+00
          2   -1    0    0  501    0  0.00000000000E+00  0.00000000000E+00  0.92848935357E+03  0.92848935357E+03  0.00000000000E+00 0.  1.
         -2   -1    0    0    0  501 -0.00000000000E+00 -0.00000000000E+00 -0.55756876845E+02  0.55756876845E+02  0.00000000000E+00 0. -1.
         25    2    1    2    0    0 -0.16581885306E+03  0.98692207450E+02  0.34008854901E+03  0.41053934776E+03  0.12508513519E+03 0.  0.
          5    1    3    3  502    0 -0.11492461509E+03 -0.40942802609E+01  0.16376181775E+03  0.20014953319E+03  0.41800000000E+01 0.  1.
         -5    1    3    3    0  502 -0.50894237966E+02  0.10278648771E+03  0.17632673126E+03  0.21038981456E+03  0.41800000000E+01 0.  1.
        -11    1    1    2    0    0  0.27208019585E+02  0.43672264859E+01  0.24023124826E+02  0.36557619224E+02  0.00000000000E+00 0.  1.
         11    1    1    2    0    0  0.13861083347E+03 -0.10305943394E+03  0.50862080289E+03  0.53714926343E+03  0.00000000000E+00 0. -1.
</event>
<event>
 7    1  0.2564986E-009  0.9924933E+02  0.7561462E-02  0.1281882E+00
          1   -1    0    0  501    0  0.00000000000E+00  0.00000000000E+00  0.17682725486E+02  0.17682725486E+02  0.00000000000E+00 0. -1.
         -1   -1    0    0    0  501 -0.00000000000E+00 -0.00000000000E+00 -0.77254982711E+03  0.77254982711E+03  0.00000000000E+00 0.  1.
         25    2    1    2    0    0 -0.40447565253E+02  0.14572881745E+02 -0.43598468667E+03  0.45560767275E+03  0.12508928828E+03 0.  0.
          5    1    3    3  502    0  0.24883611071E+02  0.48250536157E+02 -0.13104064070E+03  0.14190289023E+03  0.41800000000E+01 0.  1.
         -5    1    3    3    0  502 -0.65331176324E+02 -0.33677654412E+02 -0.30494404597E+03  0.31370478252E+03  0.41800000000E+01 0.  1.
        -11    1    1    2    0    0  0.53936498211E+02 -0.55949501690E+01 -0.31256421008E+03  0.31723309211E+03  0.00000000000E+00 0.  1.
         11    1    1    2    0    0 -0.13488932958E+02 -0.89779315762E+01 -0.63182048695E+01  0.17391787732E+02  0.00000000000E+00 0. -1.
</event>
<event>
 7    1  0.2564986E-009  0.1125534E+03  0.7561462E-02  0.1255913E+00
         -1   -1    0    0    0  501 -0.00000000000E+00  0.00000000000E+00  0.80723215363E+02  0.80723215363E+02  0.00000000000E+00 0.  1.
          1   -1    0    0  501    0  0.00000000000E+00 -0.00000000000E+00 -0.20487221497E+03  0.20487221497E+03  0.00000000000E+00 0. -1.
         25    2    1    2    0    0 -0.43510779308E+02 -0.24919298274E+02 -0.26996335728E+02  0.13743699858E+03  0.12508384026E+03 0.  0.
          5    1    3    3  502    0 -0.42155947751E+02 -0.71059741800E+02 -0.35998256638E+02  0.90221714218E+02  0.41800000000E+01 0.  1.
         -5    1    3    3    0  502 -0.13548315568E+01  0.46140443525E+02  0.90019209102E+01  0.47215284361E+02  0.41800000000E+01 0.  1.
        -11    1    1    2    0    0  0.75199653619E+01 -0.29689117730E+02  0.49644730825E+00  0.30630704376E+02  0.00000000000E+00 0.  1.
         11    1    1    2    0    0  0.35990813946E+02  0.54608416004E+02 -0.97649111192E+02  0.11752772738E+03  0.00000000000E+00 0. -1.
</event>
<event>
 7    1  0.2564986E-009  0.1675502E+03  0.7561462E-02  0.1180427E+00
         -2   -1    0    0    0  501 -0.00000000000E+00  0.00000000000E+00  0.98951379556E+02  0.98951379556E+02  0.00000000000E+00 0.  1.
          2   -1    0    0  501    0  0.00000000000E+00 -0.00000000000E+00 -0.57121100273E+03  0.57121100273E+03  0.00000000000E+00 0. -1.
         25    2    1    2    0    0  0.25133127590E+02 -0.13284539886E+03 -0.45044426523E+03  0.48664927004E+03  0.12509157388E+03 0.  0.
          5    1    3    3  502    0 -0.20806398059E+02 -0.11975964690E+03 -0.39522998099E+03  0.41352084530E+03  0.41800000000E+01 0. -1.
         -5    1    3    3    0  502  0.45939525649E+02 -0.13085751961E+02 -0.55214284236E+02  0.73128424740E+02  0.41800000000E+01 0. -1.
        -11    1    1    2    0    0  0.33410007110E+02  0.21507075476E+02  0.27583347216E+02  0.48369659026E+02  0.00000000000E+00 0.  1.
         11    1    1    2    0    0 -0.58543134700E+02  0.11133832339E+03 -0.49398705161E+02  0.13514345321E+03  0.00000000000E+00 0. -1.
</event>
<event>
 7    1  0.2564986E-009  0.1093740E+03  0.7561462E-02  0.1261734E+00
         -1   -1    0    0    0  501 -0.00000000000E+00  0.00000000000E+00  0.12273479943E+03  0.12273479943E+03  0.00000000000E+00 0.  1.
          1   -1    0    0  501    0  0.00000000000E+00 -0.00000000000E+00 -0.10715019564E+03  0.10715019564E+03  0.00000000000E+00 0. -1.
         25    2    1    2    0    0  0.43581756553E+01 -0.28410824553E+02 -0.45645089495E+01  0.12842154392E+03  0.12508033240E+03 0.  0.
          5    1    3    3  502    0  0.54910500898E+02 -0.48433372784E+02 -0.80409382131E+01  0.73777257983E+02  0.41800000000E+01 0.  1.
         -5    1    3    3    0  502 -0.50552325243E+02  0.20022548231E+02  0.34764292636E+01  0.54644285937E+02  0.41800000000E+01 0.  1.
        -11    1    1    2    0    0 -0.45138229753E+02  0.19299889928E+02  0.31293923131E+02  0.58217309809E+02  0.00000000000E+00 0.  1.
         11    1    1    2    0    0  0.40780054098E+02  0.91109346249E+01 -0.11144810397E+02  0.43246141340E+02  0.00000000000E+00 0. -1.
</event>
<event>
 7    1  0.2564986E-009  0.8261942E+02  0.7561462E-02  0.1321778E+00
          1   -1    0    0  501    0  0.00000000000E+00  0.00000000000E+00  0.43806086304E+02  0.43806086304E+02  0.00000000000E+00 0. -1.
         -1   -1    0    0    0  501 -0.00000000000E+00 -0.00000000000E+00 -0.30002598772E+03  0.30002598772E+03  0.00000000000E+00 0.  1.
         25    2    1    2    0    0  0.28721085286E+02 -0.10419048986E+02 -0.10780454114E+03  0.16793744376E+03  0.12509080145E+03 0.  0.
          5    1    3    3  502    0  0.48276719219E+02  0.17906419431E+02  0.30864261220E+01  0.51752100456E+02  0.41800000000E+01 0. -1.
         -5    1    3    3    0  502 -0.19555633934E+02 -0.28325468417E+02 -0.11089096726E+03  0.11618534331E+03  0.41800000000E+01 0. -1.
        -11    1    1    2    0    0 -0.52453896456E+02 -0.12295598678E+01 -0.13771931497E+03  0.14737548232E+03  0.00000000000E+00 0.  1.
         11    1    1    2    0    0  0.23732811170E+02  0.11648608854E+02 -0.10696045301E+02  0.28519147942E+02  0.00000000000E+00 0. -1.
</event>
<event>
 7    1  0.2564986E-009  0.1437811E+03  0.7561462E-02  0.1208330E+00
         -2   -1    0    0    0  501 -0.00000000000E+00  0.00000000000E+00  0.37880653941E+03  0.37880653941E+03  0.00000000000E+00 0.  1.
          2   -1    0    0  501    0  0.00000000000E+00 -0.00000000000E+00 -0.65322155471E+02  0.65322155471E+02  0.00000000000E+00 0. -1.
         25    2    1    2    0    0 -0.92727214554E+02  0.55365461758E+02  0.11778822846E+03  0.20294242925E+03  0.12509153509E+03 0.  0.
          5    1    3    3  502    0 -0.12386589827E+03  0.40378064903E+02  0.95861583311E+02  0.16180254768E+03  0.41800000000E+01 0. -1.
         -5    1    3    3    0  502  0.31138683718E+02  0.14987396855E+02  0.21926645147E+02  0.41139881570E+02  0.41800000000E+01 0. -1.
        -11    1    1    2    0    0  0.41487398561E+02 -0.57752157268E+02  0.50558354284E+02  0.87250576482E+02  0.00000000000E+00 0. -1.
         11    1    1    2    0    0  0.51239815993E+02  0.23866955104E+01  0.14513780120E+03  0.15393568916E+03  0.00000000000E+00 0.  1.
</event>
<event>
 7    1  0.2564986E-009  0.1774601E+03  0.7561462E-02  0.1170284E+00
         -2   -1    0    0    0  501 -0.00000000000E+00  0.00000000000E+00  0.50055795361E+02  0.50055795361E+02  0.00000000000E+00 0.  1.
          2   -1    0    0  501    0  0.00000000000E+00 -0.00000000000E+00 -0.71170205415E+03  0.71170205415E+03  0.00000000000E+00 0. -1.
         25    2    1    2    0    0 -0.49153453243E+02 -0.14249092054E+03 -0.40783832194E+03  0.45243712180E+03  0.12509007928E+03 0.  0.
          5    1    3    3  502    0 -0.91015572926E+02 -0.87496666862E+02 -0.27549569213E+03  0.30307565063E+03  0.41800000000E+01 0. -1.
         -5    1    3    3    0  502  0.41862119682E+02 -0.54994253679E+02 -0.13234262981E+03  0.14936147116E+03  0.41800000000E+01 0. -1.
        -11    1    1    2    0    0  0.24879202274E+01  0.86217423205E+02 -0.20221856268E+03  0.21984535679E+03  0.00000000000E+00 0.  1.
         11    1    1    2    0    0  0.46665533016E+02  0.56273497336E+02 -0.51589374166E+02  0.89475370918E+02  0.00000000000E+00 0. -1.
</event>
<event>
 7    1  0.2564986E-009  0.1453177E+03  0.7561462E-02  0.1206348E+00
         -2   -1    0    0    0  501 -0.00000000000E+00  0.00000000000E+00  0.25806621249E+03  0.25806621249E+03  0.00000000000E+00 0.  1.
          2   -1    0    0  501    0  0.00000000000E+00 -0.00000000000E+00 -0.10564372197E+03  0.10564372197E+03  0.00000000000E+00 0. -1.
         25    2    1    2    0    0 -0.11675518410E+03 -0.16809017042E+02  0.12763851859E+03  0.21413282271E+03  0.12508780222E+03 0.  0.
          5    1    3    3  502    0 -0.14623754320E+02 -0.36191389375E+02  0.98585123164E+02  0.10611394708E+03  0.41800000000E+01 0. -1.
         -5    1    3    3    0  502 -0.10213142978E+03  0.19382372333E+02  0.29053395425E+02  0.10801887563E+03  0.41800000000E+01 0. -1.
        -11    1    1    2    0    0  0.97309515358E+02  0.49596184852E+02  0.21502773456E+02  0.11131618300E+03  0.00000000000E+00 0. -1.
         11    1    1    2    0    0  0.19445668742E+02 -0.32787167810E+02  0.32811984794E+01  0.38260928757E+02  0.00000000000E+00 0.  1.
</event>
<event>
 7    1  0.2564986E-009  0.1123522E+03  0.7561462E-02  0.1256275E+00
          1   -1    0    0  501    0  0.00000000000E+00  0.00000000000E+00  0.93180882946E+03  0.93180882946E+03  0.00000000000E+00 0. -1.
         -1   -1    0    0    0  501 -0.00000000000E+00 -0.00000000000E+00 -0.18715316203E+02  0.18715316203E+02  0.00000000000E+00 0.  1.
         25    2    1    2    0    0 -0.44745640023E+02 -0.51328362858E+02  0.63859410324E+03  0.65428306180E+03  0.12508846118E+03 0.  0.
          5    1    3    3  502    0  0.23174534786E+02  0.27872857577E+02  0.21042242518E+03  0.21356269494E+03  0.41800000000E+01 0. -1.
         -5    1    3    3    0  502 -0.67920174809E+02 -0.79201220434E+02  0.42817167807E+03  0.44072036686E+03  0.41800000000E+01 0. -1.
        -11    1    1    2    0    0  0.49313001115E+02  0.21800155986E+02  0.25482377309E+03  0.26046530327E+03  0.00000000000E+00 0. -1.
         11    1    1    2    0    0 -0.45673610919E+01  0.29528206872E+02  0.19675636924E+02  0.35775780589E+02  0.00000000000E+00 0.  1.
</event>
<event>
 7    1  0.2564986E-009  0.1943046E+03  0.7561462E-02  0.1154635E+00
          2   -1    0    0  501    0  0.00000000000E+00  0.00000000000E+00  0.22798661951E+04  0.22798661951E+04  0.00000000000E+00 0. -1.
         -2   -1    0    0    0  501 -0.00000000000E+00 -0.00000000000E+00 -0.33707226834E+02  0.33707226834E+02  0.00000000000E+00 0.  1.
         25    2    1    2    0    0  0.91052484875E+02  0.13850057950E+03  0.19582737280E+04  0.19692528745E+04  0.12509166363E+03 0.  0.
          5    1    3    3  502    0  0.40097146886E+02 -0.16818101101E+02  0.46864576230E+03  0.47067712142E+03  0.41800000000E+01 0. -1.
         -5    1    3    3    0  502  0.50955337989E+02  0.15531868060E+03  0.14896279657E+04  0.14985757531E+04  0.41800000000E+01 0. -1.
        -11    1    1    2    0    0 -0.10113872040E+03 -0.10239643299E+03  0.18222066195E+03  0.23220344505E+03  0.00000000000E+00 0.  1.
         11    1    1    2    0    0  0.10086235522E+02 -0.36104146509E+02  0.10566457830E+03  0.11211710239E+03  0.00000000000E+00 0. -1.
</event>
<event>
 7    1  0.2564986E-009  0.1666384E+03  0.7561462E-02  0.1181399E+00
         -1   -1    0    0    0  501 -0.00000000000E+00  0.00000000000E+00  0.15300979102E+03  0.15300979102E+03  0.00000000000E+00 0.  1.
          1   -1    0    0  501    0  0.00000000000E+00 -0.00000000000E+00 -0.21501815981E+03  0.21501815981E+03  0.00000000000E+00 0. -1.
         25    2    1    2    0    0 -0.90141336923E+02  0.10716310758E+03 -0.72268102798E+02  0.20119337433E+03  0.12508678165E+03 0.  0.
          5    1    3    3  502    0 -0.79682324780E+02  0.12744456200E+03 -0.30514265830E+02  0.15342744893E+03  0.41800000000E+01 0.  1.
         -5    1    3    3    0  502 -0.10459012143E+02 -0.20281454412E+02 -0.41753836968E+02  0.47765925403E+02  0.41800000000E+01 0.  1.
        -11    1    1    2    0    0  0.49304815025E+02 -0.48369660907E+01 -0.18642256264E+02  0.52932926844E+02  0.00000000000E+00 0.  1.
         11    1    1    2    0    0  0.40836521898E+02 -0.10232614149E+03  0.28901990265E+02  0.11390164966E+03  0.00000000000E+00 0. -1.
</event>
<event>
 7    1  0.2564986E-009  0.1156590E+03  0.7561462E-02  0.1250435E+00
          2   -1    0    0  501    0  0.00000000000E+00  0.00000000000E+00  0.39364583346E+03  0.39364583346E+03  0.00000000000E+00 0. -1.
         -2   -1    0    0    0  501 -0.00000000000E+00 -0.00000000000E+00 -0.10967311188E+03  0.10967311188E+03  0.00000000000E+00 0.  1.
         25    2    1    2    0    0 -0.26088249087E+02 -0.77817544342E+02 -0.41488934757E+02  0.15525875565E+03  0.12509109701E+03 0.  0.
          5    1    3    3  502    0 -0.56301802716E+02 -0.95638506949E+02 -0.44850366450E+02  0.11977330575E+03  0.41800000000E+01 0.  1.
         -5    1    3    3    0  502  0.30213553630E+02  0.17820962607E+02  0.33614316937E+01  0.35485449894E+02  0.41800000000E+01 0.  1.
        -11    1    1    2    0    0  0.89991421940E+01  0.58304626699E+02  0.31435698919E+03  0.31984485412E+03  0.00000000000E+00 0. -1.
         11    1    1    2    0    0  0.17089106893E+02  0.19512917643E+02  0.11104667143E+02  0.28215335576E+02  0.00000000000E+00 0.  1.
</event>
<event>
 7    1  0.3317155E-009  0.1076261E+03  0.7561462E-02  0.1265030E+00
         -2   -1    0    0    0  501 -0.00000000000E+00  0.00000000000E+00  0.28576242326E+02  0.28576242326E+02  0.00000000000E+00 0. -1.
          2   -1    0    0  501    0  0.00000000000E+00 -0.00000000000E+00 -0.81059141915E+03  0.81059141915E+03  0.00000000000E+00 0.  1.
         25    2    1    2    0    0 -0.55823424333E+02 -0.86386728568E+02 -0.34491127442E+03  0.38103972968E+03  0.12509423167E+03 0.  0.
          5    1    3    3  502    0 -0.89905591552E+01 -0.48067492128E+02 -0.30385955101E+03  0.30779768208E+03  0.41800000000E+01 0.  1.
         -5    1    3    3    0  502 -0.46832865178E+02 -0.38319236441E+02 -0.41051723409E+02  0.73242047602E+02  0.41800000000E+01 0.  1.
        -11    1    1    2    0    0  0.39935139397E+02  0.77813732257E+02 -0.42987225861E+03  0.43867978186E+03  0.00000000000E+00 0.  1.
         11    1    1    2    0    0  0.15888284936E+02  0.85729963108E+01 -0.72316437901E+01  0.19448149934E+02  0.00000000000E+00 0. -1.
</event>
<event>
 7    1  0.2564986E-009  0.1396182E+03  0.7561462E-02  0.1213844E+00
          3   -1    0    0  501    0  0.00000000000E+00  0.00000000000E+00  0.16385866385E+03  0.16385866385E+03  0.00000000000E+00 0. -1.
         -3   -1    0    0    0  501 -0.00000000000E+00 -0.00000000000E+00 -0.15561629276E+03  0.15561629276E+03  0.00000000000E+00 0.  1.
         25    2    1    2    0    0 -0.49953054577E+02  0.96832917196E+02  0.45144748121E+02  0.17192297040E+03  0.12509011932E+03 0.  0.
          5    1    3    3  502    0 -0.36643847601E+02 -0.19419895482E+01 -0.29552228752E+02  0.47300629114E+02  0.41800000000E+01 0. -1.
         -5    1    3    3    0  502 -0.13309206977E+02  0.98774906744E+02  0.74696976873E+02  0.12462234128E+03  0.41800000000E+01 0. -1.
        -11    1    1    2    0    0  0.77269575591E+02 -0.70155935357E+02 -0.22646777905E+02  0.10679568871E+03  0.00000000000E+00 0.  1.
         11    1    1    2    0    0 -0.27316521013E+02 -0.26676981838E+02 -0.14255599126E+02  0.40756297510E+02  0.00000000000E+00 0. -1.
</event>
<event>
 7    1  0.2564986E-009  0.1402722E+03  0.7561462E-02  0.1212963E+00
          4   -1    0    0  501    0  0.00000000000E+00  0.00000000000E+00  0.76172420299E+02  0.76172420299E+02  0.00000000000E+00 0. -1.
         -4   -1    0    0    0  501 -0.00000000000E+00 -0.00000000000E+00 -0.27821440925E+03  0.27821440925E+03  0.00000000000E+00 0.  1.
         25    2    1    2    0    0  0.26736377881E+02 -0.85072656994E+02 -0.15341727479E+03  0.21710959790E+03  0.12509007325E+03 0.  0.
          5    1    3    3  502    0  0.52223001057E+02  0.10889000504E+02 -0.64043946096E+02  0.83456045934E+02  0.41800000000E+01 0. -1.
         -5    1    3    3    0  502 -0.25486623176E+02 -0.95961657497E+02 -0.89373328697E+02  0.13365355197E+03  0.41800000000E+01 0. -1.
        -11    1    1    2    0    0  0.11935282522E+02  0.88065806957E+02 -0.27065374576E+02  0.92900870959E+02  0.00000000000E+00 0.  1.
         11    1    1    2    0    0 -0.38671660403E+02 -0.29931499638E+01 -0.21559339583E+02  0.44376360692E+02  0.00000000000E+00 0. -1.
</event>
<event>
 7    1  0.2564986E-009  0.8371000E+02  0.7561462E-02  0.1318841E+00
         -1   -1    0    0    0  501 -0.00000000000E+00  0.00000000000E+00  0.35638334978E+02  0.35638334978E+02  0.00000000000E+00 0.  1.
          1   -1    0    0  501    0  0.00000000000E+00 -0.00000000000E+00 -0.37668192218E+03  0.37668192218E+03  0.00000000000E+00 0. -1.
         25    2    1    2    0    0 -0.38410831283E+02  0.97340964268E+01 -0.13993752811E+03  0.19183322833E+03  0.12508929261E+03 0.  0.
          5    1    3    3  502    0 -0.29266610437E+02 -0.49257836365E+02 -0.11181994382E+03  0.12571412477E+03  0.41800000000E+01 0. -1.
         -5    1    3    3    0  502 -0.91442208452E+01  0.58991932792E+02 -0.28117584281E+02  0.66119103557E+02  0.41800000000E+01 0. -1.
        -11    1    1    2    0    0  0.54403763574E+01 -0.15706274743E+02 -0.13281753445E-01  0.16621821129E+02  0.00000000000E+00 0.  1.
         11    1    1    2    0    0  0.32970454925E+02  0.59721783166E+01 -0.20109277734E+03  0.20386520770E+03  0.00000000000E+00 0. -1.
</event>
<event>
 7    1  0.2564986E-009  0.7385306E+02  0.7561462E-02  0.1347460E+00
         -2   -1    0    0    0  501 -0.00000000000E+00  0.00000000000E+00  0.17516637857E+02  0.17516637857E+02  0.00000000000E+00 0.  1.
          2   -1    0    0  501    0  0.00000000000E+00 -0.00000000000E+00 -0.78785909371E+03  0.78785909371E+03  0.00000000000E+00 0. -1.
         25    2    1    2    0    0 -0.29782599394E+02  0.53714192653E-02 -0.57907208104E+03  0.59317769171E+03  0.12509314788E+03 0.  0.
          5    1    3    3  502    0 -0.33021525406E+02  0.25924008731E+02 -0.59538382710E+02  0.72970999613E+02  0.41800000000E+01 0.  1.
         -5    1    3    3    0  502  0.32389260118E+01 -0.25918637312E+02 -0.51953369833E+03  0.52020669210E+03  0.41800000000E+01 0.  1.
        -11    1    1    2    0    0  0.35732980434E+02 -0.31120620413E+02 -0.56430257052E+02  0.73686585052E+02  0.00000000000E+00 0. -1.
         11    1    1    2    0    0 -0.59503810397E+01  0.31115248994E+02 -0.13484011776E+03  0.13851145480E+03  0.00000000000E+00 0.  1.
</event>
<event>
 7    1  0.2564986E-009  0.8314932E+02  0.7561462E-02  0.1320344E+00
         -2   -1    0    0    0  501 -0.00000000000E+00  0.00000000000E+00  0.10290347506E+03  0.10290347506E+03  0.00000000000E+00 0.  1.
          2   -1    0    0  501    0  0.00000000000E+00 -0.00000000000E+00 -0.11356957731E+03  0.11356957731E+03  0.00000000000E+00 0. -1.
         25    2    1    2    0    0  0.24777687507E+01  0.21013971985E+02 -0.46681214533E+02  0.13518067412E+03  0.12508777922E+03 0.  0.
          5    1    3    3  502    0 -0.39721448011E+01  0.58538860290E+02 -0.69141201136E+02  0.90777498274E+02  0.41800000000E+01 0.  1.
         -5    1    3    3    0  502  0.64499135517E+01 -0.37524888305E+02  0.22459986603E+02  0.44403175847E+02  0.41800000000E+01 0.  1.
        -11    1    1    2    0    0  0.26029956772E+02 -0.29583297845E+02  0.32952753280E+02  0.51367442117E+02  0.00000000000E+00 0. -1.
         11    1    1    2    0    0 -0.28507725522E+02  0.85693258596E+01  0.30623589976E+01  0.29924936136E+02  0.00000000000E+00 0.  1.
</event>
<event>
 7    1  0.2564986E-009  0.1145039E+03  0.7561462E-02  0.1252450E+00
         -1   -1    0    0    0  501 -0.00000000000E+00  0.00000000000E+00  0.48692069956E+02  0.48692069956E+02  0.00000000000E+00 0.  1.
          1   -1    0    0  501    0  0.00000000000E+00 -0.00000000000E+00 -0.30354149830E+03  0.30354149830E+03  0.00000000000E+00 0. -1.
         25    2    1    2    0    0 -0.47659651780E+02  0.62153928871E+00 -0.12010226126E+03  0.17984238181E+03  0.12508757099E+03 0.  0.
          5    1    3    3  502    0  0.12200191256E+01 -0.57369422619E+02 -0.45207060441E+02  0.73170279567E+02  0.41800000000E+01 0.  1.
         -5    1    3    3    0  502 -0.48879670905E+02  0.57990961908E+02 -0.74895200820E+02  0.10667210224E+03  0.41800000000E+01 0.  1.
        -11    1    1    2    0    0  0.20378819105E+02 -0.41578557452E+02 -0.26182763082E+02  0.53194076649E+02  0.00000000000E+00 0.  1.
         11    1    1    2    0    0  0.27280832675E+02  0.40957018164E+02 -0.10856440401E+03  0.11919710980E+03  0.00000000000E+00 0. -1.
</event>
<event>
 7    1  0.2564986E-009  0.1133608E+03  0.7561462E-02  0.1254470E+00
          1   -1    0    0  501    0  0.00000000000E+00  0.00000000000E+00  0.41417485375E+02  0.41417485375E+02  0.00000000000E+00 0. -1.
         -1   -1    0    0    0  501 -0.00000000000E+00 -0.00000000000E+00 -0.38076933452E+03  0.38076933452E+03  0.00000000000E+00 0.  1.
         25    2    1    2    0    0 -0.42838083782E+02 -0.43245201990E+02 -0.17817325113E+03  0.22604957355E+03  0.12508978123E+03 0.  0.
          5    1    3    3  502    0 -0.84625532075E+02 -0.39443784115E+02 -0.14448362110E+03  0.17207638406E+03  0.41800000000E+01 0. -1.
         -5    1    3    3    0  502  0.41787448293E+02 -0.38014178753E+01 -0.33689630030E+02  0.53973189495E+02  0.41800000000E+01 0. -1.
        -11    1    1    2    0    0  0.60874457034E+02  0.39802354601E+02 -0.16218596052E+03  0.17774760966E+03  0.00000000000E+00 0.  1.
         11    1    1    2    0    0 -0.18036373252E+02  0.34428473886E+01  0.10073624995E+01  0.18389636686E+02  0.00000000000E+00 0. -1.
</event>
<event>
 7    1  0.2564986E-009  0.1189507E+03  0.7561462E-02  0.1244838E+00
         -1   -1    0    0    0  501 -0.00000000000E+00  0.00000000000E+00  0.33700197839E+03  0.33700197839E+03  0.00000000000E+00 0.  1.
          1   -1    0    0  501    0  0.00000000000E+00 -0.00000000000E+00 -0.10391530898E+03  0.10391530898E+03  0.00000000000E+00 0. -1.
         25    2    1    2    0    0  0.61227007222E+02  0.78263124470E+02  0.25811612488E+03  0.30355323497E+03  0.12508704758E+03 0.  0.
          5    1    3    3  502    0 -0.17439695638E+02 -0.31127383970E+01 -0.34433570517E+01  0.18524611523E+02  0.41800000000E+01 0. -1.
         -5    1    3    3    0  502  0.78666702860E+02  0.81375862867E+02  0.26155948194E+03  0.28502862345E+03  0.41800000000E+01 0. -1.
        -11    1    1    2    0    0 -0.10319728915E+01 -0.27997686990E+02  0.30391691966E+02  0.41335098710E+02  0.00000000000E+00 0.  1.
         11    1    1    2    0    0 -0.60195034330E+02 -0.50265437480E+02 -0.55421147438E+02  0.96028953688E+02  0.00000000000E+00 0. -1.
</event>
<event>
 7    1  0.2564986E-009  0.2301272E+03  0.7561462E-02  0.1126550E+00
         -1   -1    0    0    0  501 -0.00000000000E+00  0.00000000000E+00  0.23129879232E+03  0.23129879232E+03  0.00000000000E+00 0.  1.
          1   -1    0    0  501    0  0.00000000000E+00 -0.00000000000E+00 -0.26628786249E+03  0.26628786249E+03  0.00000000000E+00 0. -1.
         25    2    1    2    0    0  0.14674583889E+02 -0.22216896499E+03 -0.11998645679E+02  0.25566337043E+03  0.12508156965E+03 0.  0.
          5    1    3    3  502    0 -0.26183303014E+02 -0.28747545749E+02 -0.40017670866E+02  0.55954205605E+02  0.41800000000E+01 0. -1.
         -5    1    3    3    0  502  0.40857886903E+02 -0.19342141924E+03  0.28019025187E+02  0.19970916483E+03  0.41800000000E+01 0. -1.
        -11    1    1    2    0    0  0.16454797609E+01  0.11463459188E+03  0.33394561732E+02  0.11941102969E+03  0.00000000000E+00 0.  1.
         11    1    1    2    0    0 -0.16320063650E+02  0.10753437311E+03 -0.56384986224E+02  0.12251225469E+03  0.00000000000E+00 0. -1.
</event>
<event>
 7    1  0.2564986E-009  0.1111726E+03  0.7561462E-02  0.1258414E+00
         -2   -1    0    0    0  501 -0.00000000000E+00  0.00000000000E+00  0.12568831280E+03  0.12568831280E+03  0.00000000000E+00 0.  1.
          2   -1    0    0  501    0  0.00000000000E+00 -0.00000000000E+00 -0.24969506302E+03  0.24969506302E+03  0.00000000000E+00 0. -1.
         25    2    1    2    0    0  0.75129730024E+02 -0.87179064018E+01  0.60813131100E+02  0.15832296113E+03  0.12508974730E+03 0.  0.
          5    1    3    3  502    0 -0.15542153269E+01  0.48954673672E+02  0.29380534819E+02  0.57268349774E+02  0.41800000000E+01 0. -1.
         -5    1    3    3    0  502  0.76683945351E+02 -0.57672580073E+02  0.31432596281E+02  0.10105461135E+03  0.41800000000E+01 0. -1.
        -11    1    1    2    0    0 -0.24396753452E+02  0.10074077735E+02 -0.10546828291E+01  0.26415922794E+02  0.00000000000E+00 0.  1.
         11    1    1    2    0    0 -0.50732976572E+02 -0.13561713337E+01 -0.18376519850E+03  0.19064449190E+03  0.00000000000E+00 0. -1.
</event>
<event>
 7    1  0.2564986E-009  0.2499484E+03  0.7561462E-02  0.1113337E+00
          1   -1    0    0  501    0  0.00000000000E+00  0.00000000000E+00  0.14212968878E+04  0.14212968878E+04  0.00000000000E+00 0. -1.
         -1   -1    0    0    0  501 -0.00000000000E+00 -0.00000000000E+00 -0.52121596162E+02  0.52121596162E+02  0.00000000000E+00 0.  1.
         25    2    1    2    0    0  0.18792937108E+03 -0.14164562123E+03  0.86364018032E+03  0.90382737550E+03  0.12509449668E+03 0.  0.
          5    1    3    3  502    0  0.51352837379E+02 -0.66179682046E+02  0.13719181081E+03  0.16079779095E+03  0.41800000000E+01 0. -1.
         -5    1    3    3    0  502  0.13657653370E+03 -0.75465939180E+02  0.72644836952E+03  0.74302958454E+03  0.41800000000E+01 0. -1.
        -11    1    1    2    0    0 -0.63262574326E+02 -0.95361286904E+01  0.92982204291E+02  0.11286621007E+03  0.00000000000E+00 0. -1.
         11    1    1    2    0    0 -0.12466679676E+03  0.15118174992E+03  0.41255290703E+03  0.45672489840E+03  0.00000000000E+00 0.  1.
</event>
<event>
 7    1  0.2564986E-009  0.1214462E+03  0.7561462E-02  0.1240730E+00
          1   -1    0    0  501    0  0.00000000000E+00  0.00000000000E+00  0.23981845683E+03  0.23981845683E+03  0.00000000000E+00 0. -1.
         -1   -1    0    0    0  501 -0.00000000000E+00 -0.00000000000E+00 -0.11679970747E+03  0.11679970747E+03  0.00000000000E+00 0.  1.
         25    2    1    2    0    0 -0.10183686569E+03 -0.12670595229E+02 -0.15236191330E+02  0.16251514115E+03  0.12509092046E+03 0.  0.
          5    1    3    3  502    0 -0.64101366370E+02 -0.53255531779E+02 -0.49699414138E+02  0.97121784380E+02  0.41800000000E+01 0. -1.
         -5    1    3    3    0  502 -0.37735499325E+02  0.40584936550E+02  0.34463222808E+02  0.65393356775E+02  0.41800000000E+01 0. -1.
        -11    1    1    2    0    0  0.62318333801E+02  0.15622257053E+02  0.14041557747E+03  0.15441555634E+03  0.00000000000E+00 0. -1.
         11    1    1    2    0    0  0.39518531893E+02 -0.29516618235E+01 -0.21606367847E+01  0.39687466811E+02  0.00000000000E+00 0.  1.
</event>
<event>
 7    1  0.2564986E-009  0.1272628E+03  0.7561462E-02  0.1231575E+00
          2   -1    0    0  501    0  0.00000000000E+00  0.00000000000E+00  0.13382816344E+04  0.13382816344E+04  0.00000000000E+00 0. -1.
         -2   -1    0    0    0  501 -0.00000000000E+00 -0.00000000000E+00 -0.44511654426E+02  0.44511654426E+02  0.00000000000E+00 0.  1.
         25    2    1    2    0    0 -0.10704936595E+03  0.31513465834E+01  0.12052910946E+04  0.12164871956E+04  0.12507988081E+03 0.  0.
          5    1    3    3  502    0 -0.11947079072E+03  0.19809549754E+02  0.67617387979E+03  0.68694561372E+03  0.41800000000E+01 0.  1.
         -5    1    3    3    0  502  0.12421424766E+02 -0.16658203170E+02  0.52911721484E+03  0.52954158190E+03  0.41800000000E+01 0.  1.
        -11    1    1    2    0    0  0.37327979882E+02  0.14808950611E+02 -0.12706248729E+02  0.42120444644E+02  0.00000000000E+00 0.  1.
         11    1    1    2    0    0  0.69721386068E+02 -0.17960297194E+02  0.10118513407E+03  0.12418564856E+03  0.00000000000E+00 0. -1.
</event>
<event>
 7    1  0.2564986E-009  0.5055512E+02  0.7561462E-02  0.1442370E+00
          2   -1    0    0  501    0  0.00000000000E+00  0.00000000000E+00  0.42361746354E+03  0.42361746354E+03  0.00000000000E+00 0. -1.
         -2   -1    0    0    0  501 -0.00000000000E+00 -0.00000000000E+00 -0.35804348479E+02  0.35804348479E+02  0.00000000000E+00 0.  1.
         25    2    1    2    0    0 -0.10357168548E+02 -0.37449214449E+02  0.34351073025E+03  0.36763732509E+03  0.12509143214E+03 0.  0.
          5    1    3    3  502    0 -0.12284865873E+02 -0.36276868627E+02  0.18761191299E+02  0.42853049201E+02  0.41800000000E+01 0.  1.
         -5    1    3    3    0  502  0.19276973247E+01 -0.11723458220E+01  0.32474953895E+03  0.32478427589E+03  0.41800000000E+01 0.  1.
        -11    1    1    2    0    0  0.36494755255E+01 -0.96192446124E+01 -0.13479281901E+02  0.16956992041E+02  0.00000000000E+00 0.  1.
         11    1    1    2    0    0  0.67076930229E+01  0.47068459061E+02  0.57781666712E+02  0.74827494894E+02  0.00000000000E+00 0. -1.
</event>
<event>
 7    1  0.2564986E-009  0.1141125E+03  0.7561462E-02  0.1253138E+00
         -2   -1    0    0    0  501 -0.00000000000E+00  0.00000000000E+00  0.31056153900E+02  0.31056153900E+02  0.00000000000E+00 0.  1.
          2   -1    0    0  501    0  0.00000000000E+00 -0.00000000000E+00 -0.46039211713E+03  0.46039211713E+03  0.00000000000E+00 0. -1.
         25    2    1    2    0    0 -0.47270466335E+02 -0.19043636431E+02 -0.20699151177E+03  0.24716538179E+03  0.12509229767E+03 0.  0.
          5    1    3    3  502    0 -0.69181089516E+02  0.29708014404E+02 -0.15555769170E+03  0.17287063693E+03  0.41800000000E+01 0.  1.
         -5    1    3    3    0  502  0.21910623181E+02 -0.48751650834E+02 -0.51433820068E+02  0.74294744862E+02  0.41800000000E+01 0.  1.
        -11    1    1    2    0    0  0.81670064028E+01 -0.33064500745E+02 -0.10051074422E+03  0.10612431817E+03  0.00000000000E+00 0.  1.
         11    1    1    2    0    0  0.39103459933E+02  0.52108137176E+02 -0.12183370724E+03  0.13815857106E+03  0.00000000000E+00 0. -1.
</event>
<event>
 7    1  0.2564986E-009  0.8875717E+02  0.7561462E-02  0.1305890E+00
          2   -1    0    0  501    0  0.00000000000E+00  0.00000000000E+00  0.88296701131E+02  0.88296701131E+02  0.00000000000E+00 0. -1.
         -2   -1    0    0    0  501 -0.00000000000E+00 -0.00000000000E+00 -0.18433752160E+03  0.18433752160E+03  0.00000000000E+00 0.  1.
         25    2    1    2    0    0 -0.52162692512E+02  0.26204383842E+02 -0.14746689093E+02  0.13882374760E+03  0.12508777652E+03 0.  0.
          5    1    3    3  502    0 -0.35090821070E+02  0.57738151723E+02 -0.53186658320E+02  0.86089214835E+02  0.41800000000E+01 0.  1.
         -5    1    3    3    0  502 -0.17071871442E+02 -0.31533767880E+02  0.38439969227E+02  0.52734532760E+02  0.41800000000E+01 0.  1.
        -11    1    1    2    0    0  0.51579614558E+02 -0.42476576017E+01 -0.94813366290E+02  0.10801885789E+03  0.00000000000E+00 0.  1.
         11    1    1    2    0    0  0.58307795368E+00 -0.21956726241E+02  0.13519234918E+02  0.25791617240E+02  0.00000000000E+00 0. -1.
</event>
<event>
 7    1  0.2564986E-009  0.1033103E+03  0.7561462E-02  0.1273485E+00
          1   -1    0    0  501    0  0.00000000000E+00  0.00000000000E+00  0.15245119746E+03  0.15245119746E+03  0.00000000000E+00 0. -1.
         -1   -1    0    0    0  501 -0.00000000000E+00 -0.00000000000E+00 -0.87401155057E+02  0.87401155057E+02  0.00000000000E+00 0.  1.
         25    2    1    2    0    0  0.83219377564E+01  0.34329284701E+02  0.51721131091E+02  0.13988015391E+03  0.12507448828E+03 0.  0.
          5    1    3    3  502    0  0.34633426149E+02 -0.26608487836E+02 -0.14321731521E+02  0.46152683839E+02  0.41800000000E+01 0. -1.
         -5    1    3    3    0  502 -0.26311488392E+02  0.60937772537E+02  0.66042862613E+02  0.93727470068E+02  0.41800000000E+01 0. -1.
        -11    1    1    2    0    0 -0.43644007982E+02 -0.41468212236E+02 -0.32805208668E+01  0.60292403137E+02  0.00000000000E+00 0.  1.
         11    1    1    2    0    0  0.35322070226E+02  0.71389275353E+01  0.16609432175E+02  0.39679795471E+02  0.00000000000E+00 0. -1.
</event>
<event>
 7    1  0.2564986E-009  0.1043076E+03  0.7561462E-02  0.1271490E+00
         -2   -1    0    0    0  501 -0.00000000000E+00  0.00000000000E+00  0.22205459334E+02  0.22205459334E+02  0.00000000000E+00 0.  1.
          2   -1    0    0  501    0  0.00000000000E+00 -0.00000000000E+00 -0.52792042129E+03  0.52792042129E+03  0.00000000000E+00 0. -1.
         25    2    1    2    0    0 -0.85848802000E+01 -0.49994815099E+01 -0.31213245316E+03  0.33641065971E+03  0.12508704434E+03 0.  0.
          5    1    3    3  502    0  0.32308363914E+02  0.45981426268E+02 -0.10492060719E+03  0.11909629782E+03  0.41800000000E+01 0. -1.
         -5    1    3    3    0  502 -0.40893244114E+02 -0.50980907778E+02 -0.20721184597E+03  0.21731436189E+03  0.41800000000E+01 0. -1.
        -11    1    1    2    0    0  0.31459882434E+02 -0.30970611918E+02 -0.67800055424E+02  0.80905812652E+02  0.00000000000E+00 0.  1.
         11    1    1    2    0    0 -0.22875002234E+02  0.35970093428E+02 -0.12578245336E+03  0.13280940826E+03  0.00000000000E+00 0. -1.
</event>
<event>
 7    1  0.2564986E-009  0.4169583E+03  0.7561462E-02  0.1038061E+00
         -1   -1    0    0    0  501 -0.00000000000E+00  0.00000000000E+00  0.20363111781E+03  0.20363111781E+03  0.00000000000E+00 0.  1.
          1   -1    0    0  501    0  0.00000000000E+00 -0.00000000000E+00 -0.17234022335E+04  0.17234022335E+04  0.00000000000E+00 0. -1.
         25    2    1    2    0    0 -0.69457265169E+02 -0.40165200041E+03 -0.87847396456E+02  0.43533179758E+03  0.12509183748E+03 0.  0.
          5    1    3    3  502    0  0.33746796624E+02 -0.55684039798E+02 -0.16354171485E+02  0.67264328552E+02  0.41800000000E+01 0.  1.
         -5    1    3    3    0  502 -0.10320406179E+03 -0.34596796061E+03 -0.71493224971E+02  0.36806746903E+03  0.41800000000E+01 0.  1.
        -11    1    1    2    0    0  0.14888180940E+02  0.86460376144E+02 -0.46606231561E+03  0.47424796954E+03  0.00000000000E+00 0. -1.
         11    1    1    2    0    0  0.54569084229E+02  0.31519162427E+03 -0.96586140365E+03  0.10174535842E+04  0.00000000000E+00 0.  1.
</event>
<event>
 7    1  0.2564986E-009  0.2206137E+03  0.7561462E-02  0.1133426E+00
          1   -1    0    0  501    0  0.00000000000E+00  0.00000000000E+00  0.41523118480E+03  0.41523118480E+03  0.00000000000E+00 0. -1.
         -1   -1    0    0    0  501 -0.00000000000E+00 -0.00000000000E+00 -0.14994201943E+03  0.14994201943E+03  0.00000000000E+00 0.  1.
         25    2    1    2    0    0  0.18766764388E+03  0.85604583653E+02  0.23508319583E+03  0.33683597040E+03  0.12508825961E+03 0.  0.
          5    1    3    3  502    0  0.10263523384E+03  0.10551970348E+03  0.18363687112E+03  0.23538982961E+03  0.41800000000E+01 0.  1.
         -5    1    3    3    0  502  0.85032410044E+02 -0.19915119826E+02  0.51446324704E+02  0.10144614079E+03  0.41800000000E+01 0.  1.
        -11    1    1    2    0    0 -0.16291813736E+03 -0.78098863722E+02  0.58594461164E+02  0.18993436465E+03  0.00000000000E+00 0. -1.
         11    1    1    2    0    0 -0.24749506522E+02 -0.75057199307E+01 -0.28388491621E+02  0.38402869180E+02  0.00000000000E+00 0.  1.
</event>
<event>
 7    1  0.2564986E-009  0.1579717E+03  0.7561462E-02  0.1191006E+00
          2   -1    0    0  501    0  0.00000000000E+00  0.00000000000E+00  0.56528299787E+02  0.56528299787E+02  0.00000000000E+00 0. -1.
         -2   -1    0    0    0  501 -0.00000000000E+00 -0.00000000000E+00 -0.53643400217E+03  0.53643400217E+03  0.00000000000E+00 0.  1.
         25    2    1    2    0    0  0.11617103618E+03  0.68863003952E+02 -0.25073086473E+03  0.31104770241E+03  0.12508750412E+03 0.  0.
          5    1    3    3  502    0 -0.23745200452E+02  0.23694325802E+02 -0.72267123571E+02  0.79782611947E+02  0.41800000000E+01 0.  1.
         -5    1    3    3    0  502  0.13991623663E+03  0.45168678149E+02 -0.17846374116E+03  0.23126509046E+03  0.41800000000E+01 0.  1.
        -11    1    1    2    0    0 -0.31047962082E+02 -0.17760129911E+02 -0.15203175796E+03  0.15618275703E+03  0.00000000000E+00 0.  1.
         11    1    1    2    0    0 -0.85123074095E+02 -0.51102874040E+02 -0.77143079686E+02  0.12573184251E+03  0.00000000000E+00 0. -1.
</event>
<event>
 7    1  0.2564986E-009  0.1024415E+03  0.7561462E-02  0.1275244E+00
         -1   -1    0    0    0  501 -0.00000000000E+00  0.00000000000E+00  0.21654978093E+03  0.21654978093E+03  0.00000000000E+00 0.  1.
          1   -1    0    0  501    0  0.00000000000E+00 -0.00000000000E+00 -0.63995657846E+02  0.63995657846E+02  0.00000000000E+00 0. -1.
         25    2    1    2    0    0  0.46253363644E+01  0.23605665264E+02  0.40614576566E+02  0.13370032560E+03  0.12509041556E+03 0.  0.
          5    1    3    3  502    0 -0.40419352905E+02  0.48191613285E+02  0.51110795692E+02  0.81153813937E+02  0.41800000000E+01 0.  1.
         -5    1    3    3    0  502  0.45044689270E+02 -0.24585948021E+02 -0.10496219125E+02  0.52546511658E+02  0.41800000000E+01 0.  1.
        -11    1    1    2    0    0 -0.26477080692E+02  0.25407059247E+02  0.24071266236E+02  0.43885992295E+02  0.00000000000E+00 0. -1.
         11    1    1    2    0    0  0.21851744328E+02 -0.49012724511E+02  0.87868280282E+02  0.10295912089E+03  0.00000000000E+00 0.  1.
</event>
<event>
 7    1  0.2564986E-009  0.1224916E+03  0.7561462E-02  0.1239042E+00
         -4   -1    0    0    0  501 -0.00000000000E+00  0.00000000000E+00  0.54363987904E+02  0.54363987904E+02  0.00000000000E+00 0.  1.
          4   -1    0    0  501    0  0.00000000000E+00 -0.00000000000E+00 -0.29856106804E+03  0.29856106804E+03  0.00000000000E+00 0. -1.
         25    2    1    2    0    0 -0.36500211904E+02  0.51966909369E+02 -0.10937942453E+03  0.17788719925E+03  0.12508865659E+03 0.  0.
          5    1    3    3  502    0  0.14721124311E+02  0.76018313286E+02 -0.37001295554E+02  0.85918936961E+02  0.41800000000E+01 0. -1.
         -5    1    3    3    0  502 -0.51221336215E+02 -0.24051403917E+02 -0.72378128978E+02  0.91968262288E+02  0.41800000000E+01 0. -1.
        -11    1    1    2    0    0 -0.18861063590E+02  0.14793311874E+02 -0.20475424648E+02  0.31524987081E+02  0.00000000000E+00 0.  1.
         11    1    1    2    0    0  0.55361275495E+02 -0.66760221243E+02 -0.11434223095E+03  0.14351286961E+03  0.00000000000E+00 0. -1.
</event>
<event>
 7    1  0.2564986E-009  0.1041477E+03  0.7561462E-02  0.1271808E+00
          1   -1    0    0  501    0  0.00000000000E+00  0.00000000000E+00  0.24361803892E+02  0.24361803892E+02  0.00000000000E+00 0. -1.
         -1   -1    0    0    0  501 -0.00000000000E+00 -0.00000000000E+00 -0.54111235473E+03  0.54111235473E+03  0.00000000000E+00 0.  1.
         25    2    1    2    0    0 -0.11900196220E+02  0.13378525447E+02 -0.20850310524E+03  0.24380574845E+03  0.12508836264E+03 0.  0.
          5    1    3    3  502    0 -0.62532645237E+00  0.68790001668E+02 -0.12740589189E+03  0.14485230082E+03  0.41800000000E+01 0. -1.
         -5    1    3    3    0  502 -0.11274869768E+02 -0.55411476222E+02 -0.81097213350E+02  0.98953447633E+02  0.41800000000E+01 0. -1.
        -11    1    1    2    0    0  0.32232258255E+02 -0.38593751863E+02 -0.25012827722E+03  0.25513241899E+03  0.00000000000E+00 0.  1.
         11    1    1    2    0    0 -0.20332062035E+02  0.25215226416E+02 -0.58119168374E+02  0.66535991180E+02  0.00000000000E+00 0. -1.
</event>
<event>
 7    1  0.2564986E-009  0.1445140E+03  0.7561462E-02  0.1207381E+00
         -1   -1    0    0    0  501 -0.00000000000E+00  0.00000000000E+00  0.16689595955E+03  0.16689595955E+03  0.00000000000E+00 0.  1.
          1   -1    0    0  501    0  0.00000000000E+00 -0.00000000000E+00 -0.13946748804E+03  0.13946748804E+03  0.00000000000E+00 0. -1.
         25    2    1    2    0    0  0.25898830075E+02  0.97985452425E+02 -0.16188697376E+02  0.16180430531E+03  0.12508661402E+03 0.  0.
          5    1    3    3  502    0  0.30267062143E+02 -0.20024717323E+02 -0.23460150366E+02  0.43415842844E+02  0.41800000000E+01 0.  1.
         -5    1    3    3    0  502 -0.43682320686E+01  0.11801016975E+03  0.72714529895E+01  0.11838846246E+03  0.41800000000E+01 0.  1.
        -11    1    1    2    0    0 -0.52443163521E+02 -0.27932357160E+02  0.33575059852E+01  0.59512812260E+02  0.00000000000E+00 0. -1.
         11    1    1    2    0    0  0.26544333446E+02 -0.70053095265E+02  0.40259662899E+02  0.85046330027E+02  0.00000000000E+00 0.  1.
</event>
<event>
 7    1  0.2564986E-009  0.1163246E+03  0.7561462E-02  0.1249287E+00
          1   -1    0    0  501    0  0.00000000000E+00  0.00000000000E+00  0.72581342096E+02  0.72581342096E+02  0.00000000000E+00 0. -1.
         -1   -1    0    0    0  501 -0.00000000000E+00 -0.00000000000E+00 -0.37552705995E+03  0.37552705995E+03  0.00000000000E+00 0.  1.
         25    2    1    2    0    0 -0.76088886556E+02  0.20817531347E+02 -0.28921835082E+03  0.32483338429E+03  0.12508630954E+03 0.  0.
          5    1    3    3  502    0 -0.42735642158E+02 -0.37339808454E+02 -0.48026168953E+02  0.74461948070E+02  0.41800000000E+01 0. -1.
         -5    1    3    3    0  502 -0.33353244398E+02  0.58157339801E+02 -0.24119218186E+03  0.25037143622E+03  0.41800000000E+01 0. -1.
        -11    1    1    2    0    0  0.12547727628E+02  0.26518529591E+02 -0.30462155835E+02  0.42292089312E+02  0.00000000000E+00 0.  1.
         11    1    1    2    0    0  0.63541158928E+02 -0.47336060938E+02  0.16734788795E+02  0.80982928442E+02  0.00000000000E+00 0. -1.
</event>
<event>
 7    1  0.2564986E-009  0.1367581E+03  0.7561462E-02  0.1217759E+00
          2   -1    0    0  501    0  0.00000000000E+00  0.00000000000E+00  0.68017112991E+02  0.68017112991E+02  0.00000000000E+00 0.  1.
         -2   -1    0    0    0  501 -0.00000000000E+00 -0.00000000000E+00 -0.36374536300E+03  0.36374536300E+03  0.00000000000E+00 0. -1.
         25    2    1    2    0    0  0.73346791322E+02 -0.83444358330E+02 -0.12616265743E+03  0.20954070727E+03  0.12509028395E+03 0.  0.
          5    1    3    3  502    0 -0.10771469325E+02 -0.76858160273E+02 -0.34955541791E+02  0.85220676211E+02  0.41800000000E+01 0.  1.
         -5    1    3    3    0  502  0.84118260647E+02 -0.65861980567E+01 -0.91207115643E+02  0.12432003106E+03  0.41800000000E+01 0.  1.
        -11    1    1    2    0    0 -0.27085850294E+02  0.35984595799E+02 -0.56223491858E+01  0.45388822758E+02  0.00000000000E+00 0.  1.
         11    1    1    2    0    0 -0.46260941028E+02  0.47459762531E+02 -0.16394324339E+03  0.17683294596E+03  0.00000000000E+00 0. -1.
</event>
<event>
 7    1  0.2564986E-009  0.2064272E+03  0.7561462E-02  0.1144427E+00
          2   -1    0    0  501    0  0.00000000000E+00  0.00000000000E+00  0.38178400404E+03  0.38178400404E+03  0.00000000000E+00 0. -1.
         -2   -1    0    0    0  501 -0.00000000000E+00 -0.00000000000E+00 -0.12881439073E+03  0.12881439073E+03  0.00000000000E+00 0.  1.
         25    2    1    2    0    0 -0.76348366047E+02 -0.17253900638E+03  0.17612118244E+03  0.28681873292E+03  0.12509009925E+03 0.  0.
          5    1    3    3  502    0  0.11350681010E+02  0.70676118110E+01  0.46481177242E+02  0.48546486318E+02  0.41800000000E+01 0. -1.
         -5    1    3    3    0  502 -0.87699047057E+02 -0.17960661820E+03  0.12964000520E+03  0.23827224660E+03  0.41800000000E+01 0. -1.
        -11    1    1    2    0    0  0.17309522432E+02  0.11565542478E+03  0.80076736942E+02  0.14173242623E+03  0.00000000000E+00 0. -1.
         11    1    1    2    0    0  0.59038843615E+02  0.56883581609E+02 -0.32283060716E+01  0.82047235615E+02  0.00000000000E+00 0.  1.
</event>
<event>
 7    1  0.2564986E-009  0.1039628E+03  0.7561462E-02  0.1272177E+00
         -1   -1    0    0    0  501 -0.00000000000E+00  0.00000000000E+00  0.15517209000E+03  0.15517209000E+03  0.00000000000E+00 0.  1.
          1   -1    0    0  501    0  0.00000000000E+00 -0.00000000000E+00 -0.85953216770E+02  0.85953216770E+02  0.00000000000E+00 0. -1.
         25    2    1    2    0    0 -0.31157904844E+02  0.14096003021E+01  0.86070318817E+02  0.15501094389E+03  0.12508993139E+03 0.  0.
          5    1    3    3  502    0  0.42638338428E+02 -0.18893687201E+02  0.11819023574E+02  0.48292453222E+02  0.41800000000E+01 0. -1.
         -5    1    3    3    0  502 -0.73796243272E+02  0.20303287503E+02  0.74251295243E+02  0.10671849066E+03  0.41800000000E+01 0. -1.
        -11    1    1    2    0    0 -0.24212972757E+02 -0.13573705873E+02 -0.54851089587E+01  0.28294875174E+02  0.00000000000E+00 0.  1.
         11    1    1    2    0    0  0.55370877601E+02  0.12164105571E+02 -0.11366336628E+02  0.57819487709E+02  0.00000000000E+00 0. -1.
</event>
<event>
 7    1  0.2564986E-009  0.3798647E+03  0.7561462E-02  0.1050984E+00
          2   -1    0    0  501    0  0.00000000000E+00  0.00000000000E+00  0.20987274495E+04  0.20987274495E+04  0.00000000000E+00 0.  1.
         -2   -1    0    0    0  501 -0.00000000000E+00 -0.00000000000E+00 -0.82612136291E+02  0.82612136291E+02  0.00000000000E+00 0. -1.
         25    2    1    2    0    0 -0.15381970804E+03  0.33484119893E+03  0.14396896780E+04  0.14913528026E+04  0.12509069500E+03 0.  0.
          5    1    3    3  502    0 -0.14004178244E+02  0.14809108515E+03  0.42888874196E+03  0.45397148797E+03  0.41800000000E+01 0. -1.
         -5    1    3    3    0  502 -0.13981552979E+03  0.18675011379E+03  0.10108009360E+04  0.10373813147E+04  0.41800000000E+01 0. -1.
        -11    1    1    2    0    0  0.82278479306E+02 -0.26551606796E+03  0.45143915874E+03  0.53015643403E+03  0.00000000000E+00 0.  1.
         11    1    1    2    0    0  0.71541228731E+02 -0.69325130975E+02  0.12498647648E+03  0.15983034911E+03  0.00000000000E+00 0. -1.
</event>
<event>
 7    1  0.2564986E-009  0.1641250E+03  0.7561462E-02  0.1184117E+00
         -1   -1    0    0    0  501 -0.00000000000E+00  0.00000000000E+00  0.87501269032E+03  0.87501269032E+03  0.00000000000E+00 0.  1.
          1   -1    0    0  501    0  0.00000000000E+00 -0.00000000000E+00 -0.36829300382E+02  0.36829300382E+02  0.00000000000E+00 0. -1.
         25    2    1    2    0    0  0.40908913842E+02  0.12817001760E+03  0.32218671223E+03  0.37088139352E+03  0.12509051875E+03 0.  0.
          5    1    3    3  502    0  0.79919906431E+02  0.77243447247E+02  0.25336874632E+03  0.27670731035E+03  0.41800000000E+01 0. -1.
         -5    1    3    3    0  502 -0.39010992589E+02  0.50926570349E+02  0.68817965910E+02  0.94174083177E+02  0.41800000000E+01 0. -1.
        -11    1    1    2    0    0  0.14998304391E+02 -0.71779333728E+02  0.15691652645E+03  0.17320513317E+03  0.00000000000E+00 0. -1.
         11    1    1    2    0    0 -0.55907218233E+02 -0.56390683868E+02  0.35908015126E+03  0.36775546401E+03  0.00000000000E+00 0.  1.
</event>
<event>
 7    1  0.2678058E-009  0.8533973E+02  0.7561462E-02  0.1314546E+00
         -1   -1    0    0    0  501 -0.00000000000E+00  0.00000000000E+00  0.27884482624E+03  0.27884482624E+03  0.00000000000E+00 0.  1.
          1   -1    0    0  501    0  0.00000000000E+00 -0.00000000000E+00 -0.50523052231E+02  0.50523052231E+02  0.00000000000E+00 0. -1.
         25    2    1    2    0    0 -0.18958865957E+02 -0.34950026472E+02  0.16555786400E+03  0.21128081267E+03  0.12509689254E+03 0.  0.
          5    1    3    3  502    0  0.17489063433E+02  0.18195902520E+02  0.13919837439E+03  0.14152956596E+03  0.41800000000E+01 0. -1.
         -5    1    3    3    0  502 -0.36447929390E+02 -0.53145928992E+02  0.26359489610E+02  0.69751246711E+02  0.41800000000E+01 0. -1.
        -11    1    1    2    0    0 -0.16559591007E+02 -0.12854724371E+02  0.53954014309E+02  0.57883500698E+02  0.00000000000E+00 0. -1.
         11    1    1    2    0    0  0.35518456965E+02  0.47804750843E+02  0.88098956965E+01  0.60203565098E+02  0.00000000000E+00 0.  1.
</event>
<event>
 7    1  0.2564986E-009  0.9434911E+02  0.7561462E-02  0.1292649E+00
          1   -1    0    0  501    0  0.00000000000E+00  0.00000000000E+00  0.28061435249E+03  0.28061435249E+03  0.00000000000E+00 0. -1.
         -1   -1    0    0    0  501 -0.00000000000E+00 -0.00000000000E+00 -0.72017677551E+02  0.72017677551E+02  0.00000000000E+00 0.  1.
         25    2    1    2    0    0 -0.49577171309E+02  0.68843887615E+01  0.21226215006E+03  0.25141107679E+03  0.12508804284E+03 0.  0.
          5    1    3    3  502    0 -0.88903378863E+02  0.12704987426E+01  0.10921470839E+03  0.14089268920E+03  0.41800000000E+01 0.  1.
         -5    1    3    3    0  502  0.39326207554E+02  0.56138900189E+01  0.10304744167E+03  0.11051838760E+03  0.41800000000E+01 0.  1.
        -11    1    1    2    0    0  0.39859182254E+02  0.92407076609E+01 -0.41923771721E+02  0.58581120878E+02  0.00000000000E+00 0.  1.
         11    1    1    2    0    0  0.97179890546E+01 -0.16125096422E+02  0.38258296594E+02  0.42639832366E+02  0.00000000000E+00 0. -1.
</event>
<event>
 7    1  0.2564986E-009  0.7620944E+02  0.7561462E-02  0.1340166E+00
         -2   -1    0    0    0  501 -0.00000000000E+00  0.00000000000E+00  0.37206282127E+02  0.37206282127E+02  0.00000000000E+00 0.  1.
          2   -1    0    0  501    0  0.00000000000E+00 -0.00000000000E+00 -0.25793146771E+03  0.25793146771E+03  0.00000000000E+00 0. -1.
         25    2    1    2    0    0  0.16116724949E+02  0.99511424398E+01 -0.16087977379E+03  0.20466716361E+03  0.12509025616E+03 0.  0.
          5    1    3    3  502    0 -0.36939815829E+02  0.56806141898E+01 -0.14376012830E+03  0.14859766572E+03  0.41800000000E+01 0. -1.
         -5    1    3    3    0  502  0.53056540779E+02  0.42705282500E+01 -0.17119645491E+02  0.56069497881E+02  0.41800000000E+01 0. -1.
        -11    1    1    2    0    0 -0.37358378162E+02 -0.13812445158E+02 -0.55717197085E+02  0.68489693467E+02  0.00000000000E+00 0. -1.
         11    1    1    2    0    0  0.21241653213E+02  0.38613027182E+01 -0.41282147084E+01  0.21980892761E+02  0.00000000000E+00 0.  1.
</event>
<event>
 7    1  0.2564986E-009  0.1040054E+03  0.7561462E-02  0.1272092E+00
         -1   -1    0    0    0  501 -0.00000000000E+00  0.00000000000E+00  0.20314493363E+02  0.20314493363E+02  0.00000000000E+00 0.  1.
          1   -1    0    0  501    0  0.00000000000E+00 -0.00000000000E+00 -0.92045123600E+03  0.92045123600E+03  0.00000000000E+00 0. -1.
         25    2    1    2    0    0  0.81902122765E+02  0.40033595314E+01 -0.55116534643E+03  0.57110256801E+03  0.12510363497E+03 0.  0.
          5    1    3    3  502    0  0.26925474234E+02 -0.14800471726E+02 -0.47093216297E+03  0.47195191455E+03  0.41800000000E+01 0. -1.
         -5    1    3    3    0  502  0.54976648532E+02  0.18803831257E+02 -0.80233183457E+02  0.99150653459E+02  0.41800000000E+01 0. -1.
        -11    1    1    2    0    0 -0.97371019740E+02 -0.16630069799E+02 -0.25224212902E+03  0.27089438230E+03  0.00000000000E+00 0.  1.
         11    1    1    2    0    0  0.15468896975E+02  0.12626710267E+02 -0.96729267177E+02  0.98768779046E+02  0.00000000000E+00 0. -1.
</event>
<event>
 7    1  0.2564986E-009  0.2463301E+03  0.7561462E-02  0.1115646E+00
         -2   -1    0    0    0  501 -0.00000000000E+00  0.00000000000E+00  0.34602169420E+03  0.34602169420E+03  0.00000000000E+00 0.  1.
          2   -1    0    0  501    0  0.00000000000E+00 -0.00000000000E+00 -0.22864550369E+03  0.22864550369E+03  0.00000000000E+00 0. -1.
         25    2    1    2    0    0  0.19321497212E+03  0.12616944882E+03 -0.60390687281E+02  0.26934344336E+03  0.12509236629E+03 0.  0.
          5    1    3    3  502    0  0.10449133946E+03  0.13471258055E+03 -0.57822583069E+02  0.18007454816E+03  0.41800000000E+01 0.  1.
         -5    1    3    3    0  502  0.88723632657E+02 -0.85431317302E+01 -0.25681042127E+01  0.89268895203E+02  0.41800000000E+01 0.  1.
        -11    1    1    2    0    0 -0.99102291855E+02 -0.83352713306E+02  0.15020370146E+03  0.19831815600E+03  0.00000000000E+00 0.  1.
         11    1    1    2    0    0 -0.94112680263E+02 -0.42816735515E+02  0.27563176331E+02  0.10700559853E+03  0.00000000000E+00 0. -1.
</event>
<event>
 7    1  0.2564986E-009  0.9133049E+02  0.7561462E-02  0.1299661E+00
          3   -1    0    0  501    0  0.00000000000E+00  0.00000000000E+00  0.34682614173E+02  0.34682614173E+02  0.00000000000E+00 0.  1.
         -3   -1    0    0    0  501 -0.00000000000E+00 -0.00000000000E+00 -0.48998843996E+03  0.48998843996E+03  0.00000000000E+00 0. -1.
         25    2    1    2    0    0  0.48461360435E+02  0.47499650767E+02 -0.20860718338E+03  0.25252547690E+03  0.12508972478E+03 0.  0.
          5    1    3    3  502    0  0.71649708015E+01  0.12159234282E+01  0.16760302954E+02  0.18740208949E+02  0.41800000000E+01 0.  1.
         -5    1    3    3    0  502  0.41296389633E+02  0.46283727339E+02 -0.22536748633E+03  0.23378526795E+03  0.41800000000E+01 0.  1.
        -11    1    1    2    0    0 -0.38355888557E+02  0.20411450029E+02 -0.12605643311E+03  0.13333426344E+03  0.00000000000E+00 0.  1.
         11    1    1    2    0    0 -0.10105471878E+02 -0.67911100796E+02 -0.12064220930E+03  0.13881131380E+03  0.00000000000E+00 0. -1.
</event>
<event>
 7    1  0.2564986E-009  0.1066170E+03  0.7561462E-02  0.1266966E+00
         -1   -1    0    0    0  501 -0.00000000000E+00  0.00000000000E+00  0.21371304699E+02  0.21371304699E+02  0.00000000000E+00 0.  1.
          1   -1    0    0  501    0  0.00000000000E+00 -0.00000000000E+00 -0.58897259806E+03  0.58897259806E+03  0.00000000000E+00 0. -1.
         25    2    1    2    0    0 -0.21553680206E+02 -0.20312444576E+02 -0.30761253269E+03  0.33339237682E+03  0.12509136708E+03 0.  0.
          5    1    3    3  502    0 -0.52350522542E+02  0.28738480922E+02 -0.22210433919E+03  0.23003105743E+03  0.41800000000E+01 0.  1.
         -5    1    3    3    0  502  0.30796842336E+02 -0.49050925497E+02 -0.85508193503E+02  0.10336131939E+03  0.41800000000E+01 0.  1.
        -11    1    1    2    0    0 -0.12180846323E+02  0.49324133054E+02 -0.13120378872E+03  0.14069711189E+03  0.00000000000E+00 0.  1.
         11    1    1    2    0    0  0.33734526529E+02 -0.29011688478E+02 -0.12878497195E+03  0.13625441405E+03  0.00000000000E+00 0. -1.
</event>
<event>
 7    1  0.2564986E-009  0.1272636E+03  0.7561462E-02  0.1231574E+00
          1   -1    0    0  501    0  0.00000000000E+00  0.00000000000E+00  0.26234756247E+03  0.26234756247E+03  0.00000000000E+00 0. -1.
         -1   -1    0    0    0  501 -0.00000000000E+00 -0.00000000000E+00 -0.80007421073E+02  0.80007421073E+02  0.00000000000E+00 0.  1.
         25    2    1    2    0    0  0.36116079310E+02  0.69824353467E+02  0.33279709361E+02  0.15144588435E+03  0.12509398590E+03 0.  0.
          5    1    3    3  502    0 -0.42984791288E+02  0.16645683528E+01  0.11002333532E+02  0.44598058400E+02  0.41800000000E+01 0. -1.
         -5    1    3    3    0  502  0.79100870598E+02  0.68159785114E+02  0.22277375828E+02  0.10684782595E+03  0.41800000000E+01 0. -1.
        -11    1    1    2    0    0 -0.16786677447E+02 -0.82173373662E+02  0.14515276279E+03  0.16764122532E+03  0.00000000000E+00 0. -1.
         11    1    1    2    0    0 -0.19329401862E+02  0.12349020195E+02  0.39076692471E+01  0.23267873884E+02  0.00000000000E+00 0.  1.
</event>
<event>
 7    1  0.2564986E-009  0.3323228E+03  0.7561462E-02  0.1070114E+00
         -2   -1    0    0    0  501 -0.00000000000E+00  0.00000000000E+00  0.14972499552E+03  0.14972499552E+03  0.00000000000E+00 0.  1.
          2   -1    0    0  501    0  0.00000000000E+00 -0.00000000000E+00 -0.77618005785E+03  0.77618005785E+03  0.00000000000E+00 0. -1.
         25    2    1    2    0    0  0.12935195984E+03 -0.28860433415E+03 -0.23098062891E+03  0.41112483832E+03  0.12508873071E+03 0.  0.
          5    1    3    3  502    0  0.44314743981E+02 -0.75091440585E+01 -0.43456349741E+02  0.62658682650E+02  0.41800000000E+01 0. -1.
         -5    1    3    3    0  502  0.85037215857E+02 -0.28109519009E+03 -0.18752427917E+03  0.34846615567E+03  0.41800000000E+01 0. -1.
        -11    1    1    2    0    0 -0.21693021156E+02  0.47398805371E+01 -0.10675738618E+02  0.24637877941E+02  0.00000000000E+00 0.  1.
         11    1    1    2    0    0 -0.10765893868E+03  0.28386445361E+03 -0.38479869480E+03  0.49014233710E+03  0.00000000000E+00 0. -1.
</event>
<event>
 7    1  0.2564986E-009  0.1300672E+03  0.7561462E-02  0.1227356E+00
         -1   -1    0    0    0  501 -0.00000000000E+00  0.00000000000E+00  0.82629442469E+02  0.82629442469E+02  0.00000000000E+00 0.  1.
          1   -1    0    0  501    0  0.00000000000E+00 -0.00000000000E+00 -0.37124416867E+03  0.37124416867E+03  0.00000000000E+00 0. -1.
         25    2    1    2    0    0  0.47702884093E+02 -0.98437649551E+02 -0.41547913157E+02  0.17128653339E+03  0.12508921389E+03 0.  0.
          5    1    3    3  502    0  0.74414579979E+02 -0.41815765111E+02  0.15061875439E+02  0.86777995005E+02  0.41800000000E+01 0.  1.
         -5    1    3    3    0  502 -0.26711695886E+02 -0.56621884440E+02 -0.56609788597E+02  0.84508538383E+02  0.41800000000E+01 0.  1.
        -11    1    1    2    0    0 -0.24313406475E+02  0.25075806217E+02 -0.14879463039E+02  0.37964933981E+02  0.00000000000E+00 0.  1.
         11    1    1    2    0    0 -0.23389477618E+02  0.73361843334E+02 -0.23218735001E+03  0.24462214377E+03  0.00000000000E+00 0. -1.
</event>
<event>
 7    1  0.2564986E-009  0.1647513E+03  0.7561462E-02  0.1183435E+00
         -1   -1    0    0    0  501 -0.00000000000E+00  0.00000000000E+00  0.43461612189E+03  0.43461612189E+03  0.00000000000E+00 0.  1.
          1   -1    0    0  501    0  0.00000000000E+00 -0.00000000000E+00 -0.10953040480E+03  0.10953040480E+03  0.00000000000E+00 0. -1.
         25    2    1    2    0    0 -0.10713135094E+03  0.10234246126E+03  0.31344405437E+03  0.36857308963E+03  0.12509133243E+03 0.  0.
          5    1    3    3  502    0 -0.82349869905E+01  0.70057590696E+02  0.21095794045E+03  0.22247832718E+03  0.41800000000E+01 0.  1.
         -5    1    3    3    0  502 -0.98896363947E+02  0.32284870559E+02  0.10248611392E+03  0.14609476245E+03  0.41800000000E+01 0.  1.
        -11    1    1    2    0    0  0.97719335303E+02 -0.67840904937E+02  0.44497292001E+02  0.12700970778E+03  0.00000000000E+00 0.  1.
         11    1    1    2    0    0  0.94120156345E+01 -0.34501556319E+02 -0.32855629275E+02  0.48563729282E+02  0.00000000000E+00 0. -1.
</event>
<event>
 7    1  0.2564986E-009  0.9622892E+02  0.7561462E-02  0.1288432E+00
         -1   -1    0    0    0  501 -0.00000000000E+00  0.00000000000E+00  0.73266824446E+02  0.73266824446E+02  0.00000000000E+00 0.  1.
          1   -1    0    0  501    0  0.00000000000E+00 -0.00000000000E+00 -0.21373808508E+03  0.21373808508E+03  0.00000000000E+00 0. -1.
         25    2    1    2    0    0 -0.30912960599E+02  0.54665001553E+02 -0.88421467589E+02  0.16555788625E+03  0.12508870550E+03 0.  0.
          5    1    3    3  502    0  0.49362940715E+01  0.54936079227E+02 -0.11027035740E+03  0.12336678613E+03  0.41800000000E+01 0.  1.
         -5    1    3    3    0  502 -0.35849254670E+02 -0.27107767469E+00  0.21848889810E+02  0.42191100121E+02  0.41800000000E+01 0.  1.
        -11    1    1    2    0    0  0.54911092676E+02 -0.54040516312E+02 -0.16888555620E+02  0.78872230938E+02  0.00000000000E+00 0.  1.
         11    1    1    2    0    0 -0.23998132077E+02 -0.62448524050E+00 -0.35161237429E+02  0.42574792337E+02  0.00000000000E+00 0. -1.
</event>
<event>
 7    1  0.2564986E-009  0.3718507E+03  0.7561462E-02  0.1053988E+00
          2   -1    0    0  501    0  0.00000000000E+00  0.00000000000E+00  0.67740634446E+03  0.67740634446E+03  0.00000000000E+00 0. -1.
         -2   -1    0    0    0  501 -0.00000000000E+00 -0.00000000000E+00 -0.21225634449E+03  0.21225634449E+03  0.00000000000E+00 0.  1.
         25    2    1    2    0    0 -0.16385171364E+03  0.32342145270E+03  0.25757412955E+03  0.46199662913E+03  0.12509049919E+03 0.  0.
          5    1    3    3  502    0 -0.10590245074E+03  0.87163536065E+02  0.65685697607E+02  0.15213446146E+03  0.41800000000E+01 0.  1.
         -5    1    3    3    0  502 -0.57949262899E+02  0.23625791664E+03  0.19188843194E+03  0.30986216768E+03  0.41800000000E+01 0.  1.
        -11    1    1    2    0    0  0.35685265825E+02 -0.52594371227E+02  0.69907291876E+00  0.63561739944E+02  0.00000000000E+00 0.  1.
         11    1    1    2    0    0  0.12816644782E+03 -0.27082708147E+03  0.20687679750E+03  0.36410431987E+03  0.00000000000E+00 0. -1.
</event>
<event>
 7    1  0.2564986E-009  0.9161107E+02  0.7561462E-02  0.1298997E+00
          3   -1    0    0  501    0  0.00000000000E+00  0.00000000000E+00  0.73264978988E+02  0.73264978988E+02  0.00000000000E+00 0. -1.
         -3   -1    0    0    0  501 -0.00000000000E+00 -0.00000000000E+00 -0.16841999350E+03  0.16841999350E+03  0.00000000000E+00 0.  1.
         25    2    1    2    0    0 -0.25658882356E+02  0.30118854468E+01 -0.48682384217E+02  0.13669076777E+03  0.12508773626E+03 0.  0.
          5    1    3    3  502    0  0.24005520098E+02  0.29524201556E+02  0.23603633475E+02  0.44972740476E+02  0.41800000000E+01 0. -1.
         -5    1    3    3    0  502 -0.49664402454E+02 -0.26512316109E+02 -0.72286017692E+02  0.91718027292E+02  0.41800000000E+01 0. -1.
        -11    1    1    2    0    0 -0.18229131602E+02 -0.31337243882E+02 -0.18606573037E+01  0.36301324200E+02  0.00000000000E+00 0. -1.
         11    1    1    2    0    0  0.43888013958E+02  0.28325358435E+02 -0.44611972987E+02  0.68692880515E+02  0.00000000000E+00 0.  1.
</event>
<event>
 7    1  0.2564986E-009  0.1222259E+03  0.7561462E-02  0.1239470E+00
         -1   -1    0    0    0  501 -0.00000000000E+00  0.00000000000E+00  0.91299711924E+02  0.91299711924E+02  0.00000000000E+00 0.  1.
          1   -1    0    0  501    0  0.00000000000E+00 -0.00000000000E+00 -0.22826051544E+03  0.22826051544E+03  0.00000000000E+00 0. -1.
         25    2    1    2    0    0 -0.76096789367E+02  0.13024904422E+02 -0.26846645438E+02  0.14942610417E+03  0.12508816390E+03 0.  0.
          5    1    3    3  502    0 -0.10568981183E+03  0.15077345319E+02  0.33452187358E+01  0.10689399213E+03  0.41800000000E+01 0.  1.
         -5    1    3    3    0  502  0.29593022460E+02 -0.20524408975E+01 -0.30191864173E+02  0.42532112036E+02  0.41800000000E+01 0.  1.
        -11    1    1    2    0    0  0.33119925563E+02 -0.43713794920E+02 -0.10320853211E+03  0.11687526015E+03  0.00000000000E+00 0. -1.
         11    1    1    2    0    0  0.42976863804E+02  0.30688890498E+02 -0.69056259691E+01  0.53258863041E+02  0.00000000000E+00 0.  1.
</event>
<event>
 7    1  0.2564986E-009  0.1156398E+03  0.7561462E-02  0.1250468E+00
         -2   -1    0    0    0  501 -0.00000000000E+00  0.00000000000E+00  0.53441094065E+03  0.53441094065E+03  0.00000000000E+00 0.  1.
          2   -1    0    0  501    0  0.00000000000E+00 -0.00000000000E+00 -0.29693739341E+02  0.29693739341E+02  0.00000000000E+00 0. -1.
         25    2    1    2    0    0  0.22238768050E+02 -0.54943442291E+02  0.22805722873E+03  0.26677858794E+03  0.12508945101E+03 0.  0.
          5    1    3    3  502    0  0.27576511433E+02  0.31655550985E+02  0.34061985566E+02  0.54223879902E+02  0.41800000000E+01 0.  1.
         -5    1    3    3    0  502 -0.53377433830E+01 -0.86598993276E+02  0.19399524316E+03  0.21255470804E+03  0.41800000000E+01 0.  1.
        -11    1    1    2    0    0 -0.42936061468E+02 -0.61145810752E+00  0.68135216357E+02  0.80537487938E+02  0.00000000000E+00 0. -1.
         11    1    1    2    0    0  0.20697293419E+02  0.55554900399E+02  0.20852475623E+03  0.21678860411E+03  0.00000000000E+00 0.  1.
</event>
<event>
 7    1  0.2564986E-009  0.1086294E+03  0.7561462E-02  0.1263129E+00
         -1   -1    0    0    0  501 -0.00000000000E+00  0.00000000000E+00  0.25853312612E+03  0.25853312612E+03  0.00000000000E+00 0.  1.
          1   -1    0    0  501    0  0.00000000000E+00 -0.00000000000E+00 -0.51977907524E+02  0.51977907524E+02  0.00000000000E+00 0. -1.
         25    2    1    2    0    0 -0.24521655925E+02  0.66775077498E+01  0.81969854860E+02  0.15169765787E+03  0.12508885473E+03 0.  0.
          5    1    3    3  502    0 -0.33398542759E+02 -0.53733122399E+02  0.58120809948E+02  0.86012859796E+02  0.41800000000E+01 0.  1.
         -5    1    3    3    0  502  0.88768868343E+01  0.60410630149E+02  0.23849044911E+02  0.65684798074E+02  0.41800000000E+01 0.  1.
        -11    1    1    2    0    0 -0.14509412116E+02  0.33579252389E+02  0.77094831264E+02  0.85332890720E+02  0.00000000000E+00 0.  1.
         11    1    1    2    0    0  0.39031068041E+02 -0.40256760139E+02  0.47490532469E+02  0.73480485052E+02  0.00000000000E+00 0. -1.
</event>
<event>
 7    1  0.2564986E-009  0.1037142E+03  0.7561462E-02  0.1272674E+00
          2   -1    0    0  501    0  0.00000000000E+00  0.00000000000E+00  0.11657596282E+04  0.11657596282E+04  0.00000000000E+00 0.  1.
         -2   -1    0    0    0  501 -0.00000000000E+00 -0.00000000000E+00 -0.14560987549E+02  0.14560987549E+02  0.00000000000E+00 0. -1.
         25    2    1    2    0    0  0.39810925906E+01 -0.47520022329E+02  0.87979161681E+03  0.88991845092E+03  0.12509020208E+03 0.  0.
          5    1    3    3  502    0 -0.13272213874E+02 -0.73077713800E+02  0.29279154615E+03  0.30209413402E+03  0.41800000000E+01 0.  1.
         -5    1    3    3    0  502  0.17253306465E+02  0.25557691470E+02  0.58700007066E+03  0.58782431690E+03  0.41800000000E+01 0.  1.
        -11    1    1    2    0    0  0.30925682486E+02  0.57780331424E+02  0.19621342994E+03  0.20686873767E+03  0.00000000000E+00 0.  1.
         11    1    1    2    0    0 -0.34906775077E+02 -0.10260309095E+02  0.75193593888E+02  0.83533427146E+02  0.00000000000E+00 0. -1.
</event>
<event>
 7    1  0.2564986E-009  0.1109607E+03  0.7561462E-02  0.1258801E+00
         -3   -1    0    0    0  501 -0.00000000000E+00  0.00000000000E+00  0.73531015590E+02  0.73531015590E+02  0.00000000000E+00 0.  1.
          3   -1    0    0  501    0  0.00000000000E+00 -0.00000000000E+00 -0.18072905353E+03  0.18072905353E+03  0.00000000000E+00 0. -1.
         25    2    1    2    0    0  0.41041029010E+01  0.14782880129E+02 -0.47912245632E+02  0.13482766774E+03  0.12509012552E+03 0.  0.
          5    1    3    3  502    0  0.52745575693E+02  0.40747559037E+02 -0.42744765102E+02  0.79290899013E+02  0.41800000000E+01 0. -1.
         -5    1    3    3    0  502 -0.48641472792E+02 -0.25964678909E+02 -0.51674805304E+01  0.55536768732E+02  0.41800000000E+01 0. -1.
        -11    1    1    2    0    0 -0.12683244065E+02 -0.56165758402E+02 -0.17943472413E+02  0.60311071115E+02  0.00000000000E+00 0. -1.
         11    1    1    2    0    0  0.85791411643E+01  0.41382878273E+02 -0.41342319893E+02  0.59121330257E+02  0.00000000000E+00 0.  1.
</event>
<event>
 7    1  0.2564986E-009  0.1076866E+03  0.7561462E-02  0.1264915E+00
          2   -1    0    0  501    0  0.00000000000E+00  0.00000000000E+00  0.71435611515E+03  0.71435611515E+03  0.00000000000E+00 0. -1.
         -2   -1    0    0    0  501 -0.00000000000E+00 -0.00000000000E+00 -0.16547088294E+02  0.16547088294E+02  0.00000000000E+00 0.  1.
         25    2    1    2    0    0 -0.11035041464E+02 -0.86608873546E+01  0.43181536280E+03  0.44978743479E+03  0.12508975110E+03 0.  0.
          5    1    3    3  502    0 -0.28281830403E+02  0.53803008802E+02  0.20605529213E+03  0.21487410617E+03  0.41800000000E+01 0. -1.
         -5    1    3    3    0  502  0.17246788940E+02 -0.62463896157E+02  0.22576007067E+03  0.23491332862E+03  0.41800000000E+01 0. -1.
        -11    1    1    2    0    0  0.44956172759E+02  0.25451764126E+02  0.17756224780E+03  0.18492485396E+03  0.00000000000E+00 0. -1.
         11    1    1    2    0    0 -0.33921131295E+02 -0.16790876772E+02  0.88431416250E+02  0.96190914702E+02  0.00000000000E+00 0.  1.
</event>
<event>
 7    1  0.2564986E-009  0.1200704E+03  0.7561462E-02  0.1242981E+00
         -4   -1    0    0    0  501 -0.00000000000E+00  0.00000000000E+00  0.26468844905E+02  0.26468844905E+02  0.00000000000E+00 0.  1.
          4   -1    0    0  501    0  0.00000000000E+00 -0.00000000000E+00 -0.10409996439E+04  0.10409996439E+04  0.00000000000E+00 0. -1.
         25    2    1    2    0    0  0.47660563363E+02  0.40325709499E+02 -0.82685819789E+03  0.83859365721E+03  0.12508856998E+03 0.  0.
          5    1    3    3  502    0  0.50538050542E+02 -0.33063930855E+02 -0.25847899146E+03  0.26547350056E+03  0.41800000000E+01 0. -1.
         -5    1    3    3    0  502 -0.28774871795E+01  0.73389640355E+02 -0.56837920643E+03  0.57312015664E+03  0.41800000000E+01 0. -1.
        -11    1    1    2    0    0  0.22970749328E+02 -0.24639428285E+02 -0.13562767257E+03  0.13974842510E+03  0.00000000000E+00 0. -1.
         11    1    1    2    0    0 -0.70631312691E+02 -0.15686281215E+02 -0.52044928552E+02  0.89126406518E+02  0.00000000000E+00 0.  1.
</event>
<event>
 7    1  0.2564986E-009  0.2161048E+03  0.7561462E-02  0.1136821E+00
          3   -1    0    0  501    0  0.00000000000E+00  0.00000000000E+00  0.11423815118E+03  0.11423815118E+03  0.00000000000E+00 0. -1.
         -3   -1    0    0    0  501 -0.00000000000E+00 -0.00000000000E+00 -0.47675519163E+03  0.47675519163E+03  0.00000000000E+00 0.  1.
         25    2    1    2    0    0  0.15856971246E+03 -0.11639820901E+03 -0.26708249435E+03  0.35450493971E+03  0.12509115365E+03 0.  0.
          5    1    3    3  502    0  0.81043605753E+02 -0.12873901024E+03 -0.19891640125E+03  0.25045360025E+03  0.41800000000E+01 0.  1.
         -5    1    3    3    0  502  0.77526106707E+02  0.12340801228E+02 -0.68166093103E+02  0.10405133947E+03  0.41800000000E+01 0.  1.
        -11    1    1    2    0    0 -0.14715246006E+03  0.11952302292E+03 -0.10884421801E+03  0.21860160865E+03  0.00000000000E+00 0.  1.
         11    1    1    2    0    0 -0.11417252396E+02 -0.31248139104E+01  0.13409671919E+02  0.17886794437E+02  0.00000000000E+00 0. -1.
</event>
<event>
 7    1  0.2564986E-009  0.1163696E+03  0.7561462E-02  0.1249209E+00
         -1   -1    0    0    0  501 -0.00000000000E+00  0.00000000000E+00  0.54552201323E+02  0.54552201323E+02  0.00000000000E+00 0.  1.
          1   -1    0    0  501    0  0.00000000000E+00 -0.00000000000E+00 -0.35146817561E+03  0.35146817561E+03  0.00000000000E+00 0. -1.
         25    2    1    2    0    0 -0.54396618776E+02 -0.33307475394E+01 -0.71718233605E+02  0.15414467810E+03  0.12508793204E+03 0.  0.
          5    1    3    3  502    0 -0.62544059897E+02  0.43173743094E+02 -0.10670766747E+02  0.76857460172E+02  0.41800000000E+01 0.  1.
         -5    1    3    3    0  502  0.81474411214E+01 -0.46504490633E+02 -0.61047466858E+02  0.77287217932E+02  0.41800000000E+01 0.  1.
        -11    1    1    2    0    0  0.40331852138E+02  0.47826937421E+02 -0.15914979908E+03  0.17100506655E+03  0.00000000000E+00 0. -1.
         11    1    1    2    0    0  0.14064766637E+02 -0.44496189882E+02 -0.66047941600E+02  0.80870632272E+02  0.00000000000E+00 0.  1.
</event>
<event>
 7    1  0.2564986E-009  0.1480180E+03  0.7561462E-02  0.1202930E+00
          1   -1    0    0  501    0  0.00000000000E+00  0.00000000000E+00  0.10992824454E+03  0.10992824454E+03  0.00000000000E+00 0.  1.
         -1   -1    0    0    0  501 -0.00000000000E+00 -0.00000000000E+00 -0.20637157401E+03  0.20637157401E+03  0.00000000000E+00 0. -1.
         25    2    1    2    0    0 -0.10532400902E+02 -0.10024544539E+03 -0.40718185128E+02  0.16572848205E+03  0.12509148002E+03 0.  0.
          5    1    3    3  502    0 -0.66531103885E+01  0.28396862043E+02 -0.19217619824E+02  0.35177193797E+02  0.41800000000E+01 0.  1.
         -5    1    3    3    0  502 -0.38792905138E+01 -0.12864230744E+03 -0.21500565305E+02  0.13055128826E+03  0.41800000000E+01 0.  1.
        -11    1    1    2    0    0  0.37046212063E+02  0.10457084465E+03 -0.34031277849E+02  0.11604142041E+03  0.00000000000E+00 0.  1.
         11    1    1    2    0    0 -0.26513811161E+02 -0.43253992615E+01 -0.21693866488E+02  0.34529916076E+02  0.00000000000E+00 0. -1.
</event>
<event>
 7    1  0.2564986E-009  0.1095434E+03  0.7561462E-02  0.1261418E+00
          1   -1    0    0  501    0  0.00000000000E+00  0.00000000000E+00  0.19371539490E+03  0.19371539490E+03  0.00000000000E+00 0. -1.
         -1   -1    0    0    0  501 -0.00000000000E+00 -0.00000000000E+00 -0.69577412413E+02  0.69577412413E+02  0.00000000000E+00 0.  1.
         25    2    1    2    0    0  0.18000615495E+02  0.30128111544E+02  0.96788779838E+02  0.16200957588E+03  0.12508920621E+03 0.  0.
          5    1    3    3  502    0  0.32019351873E+02  0.74531277950E+02  0.47588149995E+02  0.94139549113E+02  0.41800000000E+01 0.  1.
         -5    1    3    3    0  502 -0.14018736379E+02 -0.44403166407E+02  0.49200629843E+02  0.67870026768E+02  0.41800000000E+01 0.  1.
        -11    1    1    2    0    0  0.16953771076E+02  0.22352357643E+02 -0.77655067077E+01  0.29109471660E+02  0.00000000000E+00 0.  1.
         11    1    1    2    0    0 -0.34954386571E+02 -0.52480469186E+02  0.35114709359E+02  0.72173759774E+02  0.00000000000E+00 0. -1.
</event>
<event>
 7    1  0.2564986E-009  0.1110955E+03  0.7561462E-02  0.1258554E+00
         -2   -1    0    0    0  501 -0.00000000000E+00  0.00000000000E+00  0.10916800904E+03  0.10916800904E+03  0.00000000000E+00 0. -1.
          2   -1    0    0  501    0  0.00000000000E+00 -0.00000000000E+00 -0.12133285558E+03  0.12133285558E+03  0.00000000000E+00 0.  1.
         25    2    1    2    0    0  0.92529678065E+01 -0.32762623931E+02 -0.22557637395E+02  0.13158931547E+03  0.12509154249E+03 0.  0.
          5    1    3    3  502    0  0.31665854105E+02 -0.75063387301E+02 -0.13357571177E+02  0.82662782055E+02  0.41800000000E+01 0.  1.
         -5    1    3    3    0  502 -0.22412886299E+02  0.42300763370E+02 -0.92000662186E+01  0.48926533419E+02  0.41800000000E+01 0.  1.
        -11    1    1    2    0    0  0.25912159276E+02 -0.17463912747E+02 -0.12232947024E+02  0.33557014761E+02  0.00000000000E+00 0.  1.
         11    1    1    2    0    0 -0.35165127083E+02  0.50226536678E+02  0.22625737880E+02  0.65354534381E+02  0.00000000000E+00 0. -1.
</event>
<event>
 7    1  0.2564986E-009  0.1314725E+03  0.7561462E-02  0.1225287E+00
         -1   -1    0    0    0  501 -0.00000000000E+00  0.00000000000E+00  0.23846106234E+03  0.23846106234E+03  0.00000000000E+00 0.  1.
          1   -1    0    0  501    0  0.00000000000E+00 -0.00000000000E+00 -0.83065837320E+02  0.83065837320E+02  0.00000000000E+00 0. -1.
         25    2    1    2    0    0 -0.21429237033E+02 -0.80072193748E+02  0.12074491944E+03  0.19260531320E+03  0.12508678064E+03 0.  0.
          5    1    3    3  502    0 -0.63031858765E+02 -0.48654582351E+01  0.42414754975E+02  0.76244158745E+02  0.41800000000E+01 0. -1.
         -5    1    3    3    0  502  0.41602621732E+02 -0.75206735513E+02  0.78330164468E+02  0.11636115446E+03  0.41800000000E+01 0. -1.
        -11    1    1    2    0    0  0.34206476110E+02  0.90689765370E+02  0.47480443499E+02  0.10793103847E+03  0.00000000000E+00 0.  1.
         11    1    1    2    0    0 -0.12777239077E+02 -0.10617571621E+02 -0.12830137923E+02  0.20990547984E+02  0.00000000000E+00 0. -1.
</event>
<event>
 7    1  0.2564986E-009  0.9052475E+02  0.7561462E-02  0.1301586E+00
          2   -1    0    0  501    0  0.00000000000E+00  0.00000000000E+00  0.37577614880E+03  0.37577614880E+03  0.00000000000E+00 0. -1.
         -2   -1    0    0    0  501 -0.00000000000E+00 -0.00000000000E+00 -0.36400803157E+02  0.36400803157E+02  0.00000000000E+00 0.  1.
         25    2    1    2    0    0  0.25845264949E+02 -0.14509351941E+02  0.13316964439E+03  0.18509245284E+03  0.12508622185E+03 0.  0.
          5    1    3    3  502    0 -0.24276323556E+02 -0.28361533249E+02 -0.45337670397E+01  0.37838391842E+02  0.41800000000E+01 0. -1.
         -5    1    3    3    0  502  0.50121588505E+02  0.13852181308E+02  0.13770341143E+03  0.14725406100E+03  0.41800000000E+01 0. -1.
        -11    1    1    2    0    0 -0.29665878093E+02  0.48639287004E+02  0.95800104429E+02  0.11146077593E+03  0.00000000000E+00 0.  1.
         11    1    1    2    0    0  0.38206131442E+01 -0.34129935062E+02  0.11040559682E+03  0.11562372318E+03  0.00000000000E+00 0. -1.
</event>
<event>
 7    1  0.2564986E-009  0.1071765E+03  0.7561462E-02  0.1265890E+00
          2   -1    0    0  501    0  0.00000000000E+00  0.00000000000E+00  0.40807360409E+03  0.40807360409E+03  0.00000000000E+00 0. -1.
         -2   -1    0    0    0  501 -0.00000000000E+00 -0.00000000000E+00 -0.57176515849E+02  0.57176515849E+02  0.00000000000E+00 0.  1.
         25    2    1    2    0    0  0.72735836149E-01 -0.40050030168E+02  0.38516324630E+02  0.13687478376E+03  0.12508872435E+03 0.  0.
          5    1    3    3  502    0  0.25064706468E+02 -0.70299812023E+02 -0.87952953052E+01  0.75267075805E+02  0.41800000000E+01 0. -1.
         -5    1    3    3    0  502 -0.24991970632E+02  0.30249781854E+02  0.47311619935E+02  0.61607707953E+02  0.41800000000E+01 0. -1.
        -11    1    1    2    0    0 -0.25971770574E+02  0.61341951800E+02  0.22943769223E+03  0.23891216489E+03  0.00000000000E+00 0.  1.
         11    1    1    2    0    0  0.25899034737E+02 -0.21291921632E+02  0.82943071383E+02  0.89463171291E+02  0.00000000000E+00 0. -1.
</event>
<event>
 7    1  0.2564986E-009  0.1382823E+03  0.7561462E-02  0.1215659E+00
         -2   -1    0    0    0  501 -0.00000000000E+00  0.00000000000E+00  0.43610498656E+02  0.43610498656E+02  0.00000000000E+00 0.  1.
          2   -1    0    0  501    0  0.00000000000E+00 -0.00000000000E+00 -0.66622357446E+03  0.66622357446E+03  0.00000000000E+00 0. -1.
         25    2    1    2    0    0 -0.55460991606E+02  0.87569330623E+02 -0.16491793379E+03  0.23149214004E+03  0.12508547780E+03 0.  0.
          5    1    3    3  502    0 -0.90239315499E+02  0.87452085112E+02 -0.11419834664E+03  0.16985210045E+03  0.41800000000E+01 0. -1.
         -5    1    3    3    0  502  0.34778323893E+02  0.11724551128E+00 -0.50719587152E+02  0.61640039586E+02  0.41800000000E+01 0. -1.
        -11    1    1    2    0    0  0.65601218302E+02 -0.74604377901E+02 -0.44873770765E+03  0.45960294093E+03  0.00000000000E+00 0. -1.
         11    1    1    2    0    0 -0.10140226696E+02 -0.12964952722E+02 -0.89574343656E+01  0.18738992154E+02  0.00000000000E+00 0.  1.
</event>
<event>
 7    1  0.2564986E-009  0.1169845E+03  0.7561462E-02  0.1248156E+00
         -2   -1    0    0    0  501 -0.00000000000E+00  0.00000000000E+00  0.41385551696E+02  0.41385551696E+02  0.00000000000E+00 0.  1.
          2   -1    0    0  501    0  0.00000000000E+00 -0.00000000000E+00 -0.45432550726E+03  0.45432550726E+03  0.00000000000E+00 0. -1.
         25    2    1    2    0    0 -0.31750194095E+02  0.76969671718E+02 -0.22870073835E+03  0.27364825635E+03  0.12508771040E+03 0.  0.
          5    1    3    3  502    0  0.46729764096E+01  0.88317330924E+02 -0.21563894049E+03  0.23310815666E+03  0.41800000000E+01 0. -1.
         -5    1    3    3    0  502 -0.36423170505E+02 -0.11347659206E+02 -0.13061797865E+02  0.40540099686E+02  0.41800000000E+01 0. -1.
        -11    1    1    2    0    0 -0.21277490845E+02 -0.19619121423E+02 -0.91712486704E+01  0.30360391042E+02  0.00000000000E+00 0.  1.
         11    1    1    2    0    0  0.53027684940E+02 -0.57350550295E+02 -0.17506796854E+03  0.19170241156E+03  0.00000000000E+00 0. -1.
</event>
<event>
 7    1  0.2564986E-009  0.1108810E+03  0.7561462E-02  0.1258947E+00
          2   -1    0    0  501    0  0.00000000000E+00  0.00000000000E+00  0.64070075701E+02  0.64070075701E+02  0.00000000000E+00 0. -1.
         -2   -1    0    0    0  501 -0.00000000000E+00 -0.00000000000E+00 -0.36021115676E+03  0.36021115676E+03  0.00000000000E+00 0.  1.
         25    2    1    2    0    0  0.65354983895E+02  0.57640904874E+02 -0.24331538552E+03  0.28712748224E+03  0.12508423718E+03 0.  0.
          5    1    3    3  502    0  0.50829007474E+01 -0.27457130498E+02 -0.13018145392E+03  0.13320815756E+03  0.41800000000E+01 0. -1.
         -5    1    3    3    0  502  0.60272083148E+02  0.85098035372E+02 -0.11313393160E+03  0.15391932468E+03  0.41800000000E+01 0. -1.
        -11    1    1    2    0    0 -0.32004747239E+02 -0.15904346787E+02 -0.72008631401E+02  0.80389645408E+02  0.00000000000E+00 0.  1.
         11    1    1    2    0    0 -0.33350236656E+02 -0.41736558087E+02  0.19182935870E+02  0.56764104807E+02  0.00000000000E+00 0. -1.
</event>
<event>
 7    1  0.2564986E-009  0.1146125E+03  0.7561462E-02  0.1252259E+00
          1   -1    0    0  501    0  0.00000000000E+00  0.00000000000E+00  0.19265435521E+03  0.19265435521E+03  0.00000000000E+00 0. -1.
         -1   -1    0    0    0  501 -0.00000000000E+00 -0.00000000000E+00 -0.69300304822E+02  0.69300304822E+02  0.00000000000E+00 0.  1.
         25    2    1    2    0    0 -0.26396796892E+02  0.33296085165E+02  0.72427257669E+02  0.15066179626E+03  0.12509136271E+03 0.  0.
          5    1    3    3  502    0  0.41147558954E+02 -0.19742477980E+02  0.20400693804E+02  0.50165204598E+02  0.41800000000E+01 0.  1.
         -5    1    3    3    0  502 -0.67544355847E+02  0.53038563145E+02  0.52026563865E+02  0.10049659166E+03  0.41800000000E+01 0.  1.
        -11    1    1    2    0    0 -0.16185895014E+02  0.22193213769E+02  0.58617066476E+01  0.28087035081E+02  0.00000000000E+00 0. -1.
         11    1    1    2    0    0  0.42582691907E+02 -0.55489298935E+02  0.45065086074E+02  0.83205828697E+02  0.00000000000E+00 0.  1.
</event>
<event>
 7    1  0.2564986E-009  0.8781751E+02  0.7561462E-02  0.1308225E+00
         -1   -1    0    0    0  501 -0.00000000000E+00  0.00000000000E+00  0.81443229562E+02  0.81443229562E+02  0.00000000000E+00 0.  1.
          1   -1    0    0  501    0  0.00000000000E+00 -0.00000000000E+00 -0.18036084035E+03  0.18036084035E+03  0.00000000000E+00 0. -1.
         25    2    1    2    0    0 -0.43866141754E+02 -0.29247219665E+02 -0.75873319045E+02  0.15551236210E+03  0.12509075095E+03 0.  0.
          5    1    3    3  502    0 -0.29434655190E+02 -0.63417752306E+02  0.10085330056E+01  0.70047839171E+02  0.41800000000E+01 0. -1.
         -5    1    3    3    0  502 -0.14431486564E+02  0.34170532641E+02 -0.76881852051E+02  0.85464522933E+02  0.41800000000E+01 0. -1.
        -11    1    1    2    0    0  0.26562270377E+02  0.39910054386E+02  0.25041013698E+02  0.54087142795E+02  0.00000000000E+00 0.  1.
         11    1    1    2    0    0  0.17303871377E+02 -0.10662834722E+02 -0.48085305436E+02  0.52204565009E+02  0.00000000000E+00 0. -1.
</event>
<event>
 7    1  0.2564986E-009  0.1295541E+03  0.7561462E-02  0.1228119E+00
          1   -1    0    0  501    0  0.00000000000E+00  0.00000000000E+00  0.22315493404E+03  0.22315493404E+03  0.00000000000E+00 0. -1.
         -1   -1    0    0    0  501 -0.00000000000E+00 -0.00000000000E+00 -0.96937768895E+02  0.96937768895E+02  0.00000000000E+00 0.  1.
         25    2    1    2    0    0  0.28437095488E+02 -0.95799128703E+02  0.67655209800E+02  0.17381152226E+03  0.12508827441E+03 0.  0.
          5    1    3    3  502    0  0.18579064146E+02 -0.12547942121E+03  0.63721127132E+02  0.14201451058E+03  0.41800000000E+01 0.  1.
         -5    1    3    3    0  502  0.98580313426E+01  0.29680292507E+02  0.39340826686E+01  0.31797011679E+02  0.41800000000E+01 0.  1.
        -11    1    1    2    0    0 -0.11595432633E+02  0.59555018652E+02  0.80410640247E+02  0.10073294084E+03  0.00000000000E+00 0. -1.
         11    1    1    2    0    0 -0.16841662855E+02  0.36244110051E+02 -0.21848684899E+02  0.45548239844E+02  0.00000000000E+00 0.  1.
</event>
<event>
 7    1  0.2564986E-009  0.1416397E+03  0.7561462E-02  0.1211139E+00
         -1   -1    0    0    0  501 -0.00000000000E+00  0.00000000000E+00  0.37197834540E+02  0.37197834540E+02  0.00000000000E+00 0.  1.
          1   -1    0    0  501    0  0.00000000000E+00 -0.00000000000E+00 -0.81108845141E+03  0.81108845141E+03  0.00000000000E+00 0. -1.
         25    2    1    2    0    0 -0.30634986305E+02 -0.13177607263E+03 -0.39073744460E+03  0.43200278349E+03  0.12508884292E+03 0.  0.
          5    1    3    3  502    0 -0.37602857005E+00 -0.63464076152E+02 -0.44138143571E+02  0.77417559230E+02  0.41800000000E+01 0.  1.
         -5    1    3    3    0  502 -0.30258957735E+02 -0.68311996477E+02 -0.34659930103E+03  0.35458522425E+03  0.41800000000E+01 0.  1.
        -11    1    1    2    0    0 -0.13597701678E+02  0.50668661361E+02 -0.24174322914E+03  0.24737016710E+03  0.00000000000E+00 0.  1.
         11    1    1    2    0    0  0.44232687983E+02  0.81107411268E+02 -0.14140994313E+03  0.16891333537E+03  0.00000000000E+00 0. -1.
</event>
<event>
 7    1  0.2564986E-009  0.1127127E+03  0.7561462E-02  0.1255627E+00
         -2   -1    0    0    0  501 -0.00000000000E+00  0.00000000000E+00  0.71960081504E+02  0.71960081504E+02  0.00000000000E+00 0. -1.
          2   -1    0    0  501    0  0.00000000000E+00 -0.00000000000E+00 -0.24392638604E+03  0.24392638604E+03  0.00000000000E+00 0.  1.
         25    2    1    2    0    0  0.72247033039E+02  0.24323536125E+02 -0.10806884219E+03  0.18203771667E+03  0.12509031716E+03 0.  0.
          5    1    3    3  502    0  0.15827049472E+02 -0.26934575821E+02  0.16773004221E+02  0.35703962529E+02  0.41800000000E+01 0. -1.
         -5    1    3    3    0  502  0.56419983567E+02  0.51258111946E+02 -0.12484184641E+03  0.14633375414E+03  0.41800000000E+01 0. -1.
        -11    1    1    2    0    0  0.13955949055E+02 -0.27997857667E+02 -0.18695459642E+02  0.36444049709E+02  0.00000000000E+00 0.  1.
         11    1    1    2    0    0 -0.86202982094E+02  0.36743215417E+01 -0.45202002708E+02  0.97404701168E+02  0.00000000000E+00 0. -1.
</event>
<event>
 7    1  0.2564986E-009  0.1078806E+03  0.7561462E-02  0.1264546E+00
         -1   -1    0    0    0  501 -0.00000000000E+00  0.00000000000E+00  0.15378357847E+02  0.15378357847E+02  0.00000000000E+00 0.  1.
          1   -1    0    0  501    0  0.00000000000E+00 -0.00000000000E+00 -0.88622087105E+03  0.88622087105E+03  0.00000000000E+00 0. -1.
         25    2    1    2    0    0 -0.28540515867E+02  0.63859656583E+02 -0.51651125721E+03  0.53602651656E+03  0.12509168974E+03 0.  0.
          5    1    3    3  502    0 -0.61813498384E+02  0.98594971451E+01 -0.13025880137E+03  0.14457851155E+03  0.41800000000E+01 0.  1.
         -5    1    3    3    0  502  0.33272982517E+02  0.54000159438E+02 -0.38625245584E+03  0.39144800501E+03  0.41800000000E+01 0.  1.
        -11    1    1    2    0    0  0.15501169551E+02 -0.72290569497E+02 -0.30616710009E+03  0.31496746796E+03  0.00000000000E+00 0. -1.
         11    1    1    2    0    0  0.13039346316E+02  0.84309129138E+01 -0.48164155910E+02  0.50605244387E+02  0.00000000000E+00 0.  1.
</event>
<event>
 7    1  0.2564986E-009  0.3287971E+03  0.7561462E-02  0.1071670E+00
          1   -1    0    0  501    0  0.00000000000E+00  0.00000000000E+00  0.18791081564E+03  0.18791081564E+03  0.00000000000E+00 0. -1.
         -1   -1    0    0    0  501 -0.00000000000E+00 -0.00000000000E+00 -0.88050576863E+03  0.88050576863E+03  0.00000000000E+00 0.  1.
         25    2    1    2    0    0  0.80994006153E+01  0.32507854581E+03 -0.63109053820E+03  0.72087777212E+03  0.12509130139E+03 0.  0.
          5    1    3    3  502    0  0.32155934061E+02  0.27271753263E+03 -0.41843522799E+03  0.50051410482E+03  0.41800000000E+01 0. -1.
         -5    1    3    3    0  502 -0.24056533446E+02  0.52361013180E+02 -0.21265531021E+03  0.22036366730E+03  0.41800000000E+01 0. -1.
        -11    1    1    2    0    0 -0.36203615367E+01 -0.12282577693E+03 -0.76392034253E+02  0.14468939627E+03  0.00000000000E+00 0.  1.
         11    1    1    2    0    0 -0.44790390785E+01 -0.20225276888E+03  0.14887619463E+02  0.20284941589E+03  0.00000000000E+00 0. -1.
</event>
<event>
 7    1  0.2564986E-009  0.2610676E+03  0.7561462E-02  0.1106503E+00
         -2   -1    0    0    0  501 -0.00000000000E+00  0.00000000000E+00  0.20361341197E+03  0.20361341197E+03  0.00000000000E+00 0.  1.
          2   -1    0    0  501    0  0.00000000000E+00 -0.00000000000E+00 -0.43679328523E+03  0.43679328523E+03  0.00000000000E+00 0. -1.
         25    2    1    2    0    0  0.21042359351E+03  0.12120251505E+03  0.24657862951E+02  0.27427515296E+03  0.12510280159E+03 0.  0.
          5    1    3    3  502    0  0.10454081236E+02  0.61245760784E+02  0.20042065810E+02  0.65417794448E+02  0.41800000000E+01 0. -1.
         -5    1    3    3    0  502  0.19996951228E+03  0.59956754266E+02  0.46157971410E+01  0.20885735851E+03  0.41800000000E+01 0. -1.
        -11    1    1    2    0    0 -0.24439486321E+02  0.66958078799E+01 -0.63177707305E+02  0.68070147900E+02  0.00000000000E+00 0.  1.
         11    1    1    2    0    0 -0.18598410719E+03 -0.12789832293E+03 -0.19466002891E+03  0.29806139634E+03  0.00000000000E+00 0. -1.
</event>
<event>
 7    1  0.2716902E-009  0.1088011E+03  0.7561462E-02  0.1262806E+00
          2   -1    0    0  501    0  0.00000000000E+00  0.00000000000E+00  0.54172368761E+03  0.54172368761E+03  0.00000000000E+00 0. -1.
         -2   -1    0    0    0  501 -0.00000000000E+00 -0.00000000000E+00 -0.35578825519E+02  0.35578825519E+02  0.00000000000E+00 0.  1.
         25    2    1    2    0    0 -0.68730266360E+02  0.52047298298E+02  0.26840782115E+03  0.30842792820E+03  0.12510898315E+03 0.  0.
          5    1    3    3  502    0 -0.88313298987E+02  0.17298443644E+02  0.96963010767E+02  0.13235472333E+03  0.41800000000E+01 0. -1.
         -5    1    3    3    0  502  0.19583032627E+02  0.34748854654E+02  0.17144481038E+03  0.17607320487E+03  0.41800000000E+01 0. -1.
        -11    1    1    2    0    0  0.47320700244E+02 -0.27090927470E+02  0.22822017855E+03  0.23464359552E+03  0.00000000000E+00 0. -1.
         11    1    1    2    0    0  0.21409566116E+02 -0.24956370828E+02  0.95168623986E+01  0.34230989412E+02  0.00000000000E+00 0.  1.
</event>
<event>
 7    1  0.2564986E-009  0.2046574E+03  0.7561462E-02  0.1145868E+00
         -2   -1    0    0    0  501 -0.00000000000E+00  0.00000000000E+00  0.19194910646E+03  0.19194910646E+03  0.00000000000E+00 0.  1.
          2   -1    0    0  501    0  0.00000000000E+00 -0.00000000000E+00 -0.35558736924E+03  0.35558736924E+03  0.00000000000E+00 0. -1.
         25    2    1    2    0    0  0.16165875659E+03  0.87948479278E+02  0.73148702097E+02  0.23423706510E+03  0.12509109266E+03 0.  0.
          5    1    3    3  502    0  0.85538072526E+02 -0.14543032902E+02 -0.34708676244E+00  0.86866878191E+02  0.41800000000E+01 0. -1.
         -5    1    3    3    0  502  0.76120684060E+02  0.10249151218E+03  0.73495788859E+02  0.14737018691E+03  0.41800000000E+01 0. -1.
        -11    1    1    2    0    0 -0.42846315248E+02  0.59738939532E+01 -0.17214334649E+02  0.46559934028E+02  0.00000000000E+00 0.  1.
         11    1    1    2    0    0 -0.11881244134E+03 -0.93922373231E+02 -0.21957263023E+03  0.26673947656E+03  0.00000000000E+00 0. -1.
</event>
<event>
 7    1  0.2564986E-009  0.1426654E+03  0.7561462E-02  0.1209787E+00
         -1   -1    0    0    0  501 -0.00000000000E+00  0.00000000000E+00  0.34475623703E+02  0.34475623703E+02  0.00000000000E+00 0.  1.
          1   -1    0    0  501    0  0.00000000000E+00 -0.00000000000E+00 -0.11266399965E+04  0.11266399965E+04  0.00000000000E+00 0. -1.
         25    2    1    2    0    0 -0.91262924438E+02  0.74606000717E+02 -0.90885123773E+03  0.92496133453E+03  0.12509165167E+03 0.  0.
          5    1    3    3  502    0 -0.34224695136E+02 -0.14519678895E+02 -0.53765510684E+03  0.53895513463E+03  0.41800000000E+01 0.  1.
         -5    1    3    3    0  502 -0.57038229302E+02  0.89125679612E+02 -0.37119613089E+03  0.38600619989E+03  0.41800000000E+01 0.  1.
        -11    1    1    2    0    0 -0.11603076352E+02 -0.25542246025E+02 -0.70130911880E+02  0.75533982511E+02  0.00000000000E+00 0.  1.
         11    1    1    2    0    0  0.10286600079E+03 -0.49063754692E+02 -0.11318222317E+03  0.16062030315E+03  0.00000000000E+00 0. -1.
</event>
<event>
 7    1  0.2564986E-009  0.1751901E+03  0.7561462E-02  0.1172541E+00
          1   -1    0    0  501    0  0.00000000000E+00  0.00000000000E+00  0.18672459536E+03  0.18672459536E+03  0.00000000000E+00 0. -1.
         -1   -1    0    0    0  501 -0.00000000000E+00 -0.00000000000E+00 -0.19248067835E+03  0.19248067835E+03  0.00000000000E+00 0.  1.
         25    2    1    2    0    0  0.14989783156E+03  0.33221615090E+02  0.22541317857E+02  0.19933062069E+03  0.12510615380E+03 0.  0.
          5    1    3    3  502    0  0.12574567671E+03 -0.29308445062E+02  0.27165486507E+02  0.13200907628E+03  0.41800000000E+01 0.  1.
         -5    1    3    3    0  502  0.24152154853E+02  0.62530060152E+02 -0.46241686499E+01  0.67321544414E+02  0.41800000000E+01 0.  1.
        -11    1    1    2    0    0 -0.12799548949E+03 -0.32783808844E+02 -0.56890184970E+02  0.14385449801E+03  0.00000000000E+00 0.  1.
         11    1    1    2    0    0 -0.21902342073E+02 -0.43780624666E+00  0.28592784126E+02  0.36020155006E+02  0.00000000000E+00 0. -1.
</event>
<event>
 7    1  0.2564986E-009  0.1135437E+03  0.7561462E-02  0.1254145E+00
          2   -1    0    0  501    0  0.00000000000E+00  0.00000000000E+00  0.10155213709E+03  0.10155213709E+03  0.00000000000E+00 0. -1.
         -2   -1    0    0    0  501 -0.00000000000E+00 -0.00000000000E+00 -0.13431876574E+03  0.13431876574E+03  0.00000000000E+00 0.  1.
         25    2    1    2    0    0  0.77550307354E+01 -0.43370651557E+02 -0.24184171202E+02  0.13481215198E+03  0.12509311838E+03 0.  0.
          5    1    3    3  502    0  0.29532240641E+02 -0.79532026799E+02 -0.33626781686E+02  0.91354963580E+02  0.41800000000E+01 0.  1.
         -5    1    3    3    0  502 -0.21777209905E+02  0.36161375242E+02  0.94426104847E+01  0.43457188397E+02  0.41800000000E+01 0.  1.
        -11    1    1    2    0    0  0.27009574821E+02  0.56453994742E+02 -0.12121255323E+02  0.63745552668E+02  0.00000000000E+00 0.  1.
         11    1    1    2    0    0 -0.34764605556E+02 -0.13083343185E+02  0.35387978699E+01  0.37313198184E+02  0.00000000000E+00 0. -1.
</event>
<event>
 7    1  0.2564986E-009  0.1343159E+03  0.7561462E-02  0.1221189E+00
          2   -1    0    0  501    0  0.00000000000E+00  0.00000000000E+00  0.79751312042E+02  0.79751312042E+02  0.00000000000E+00 0. -1.
         -2   -1    0    0    0  501 -0.00000000000E+00 -0.00000000000E+00 -0.28632290555E+03  0.28632290555E+03  0.00000000000E+00 0.  1.
         25    2    1    2    0    0  0.84305597868E+02  0.22585014231E+02 -0.41218180808E+02  0.15799940351E+03  0.12508939355E+03 0.  0.
          5    1    3    3  502    0  0.76890975826E+02  0.70145272769E+02 -0.30011447932E+02  0.10840083423E+03  0.41800000000E+01 0. -1.
         -5    1    3    3    0  502  0.74146220423E+01 -0.47560258538E+02 -0.11206732876E+02  0.49598569274E+02  0.41800000000E+01 0. -1.
        -11    1    1    2    0    0 -0.81713723638E+02  0.11014634058E+02 -0.14972679067E+03  0.17092854250E+03  0.00000000000E+00 0.  1.
         11    1    1    2    0    0 -0.25918742301E+01 -0.33599648288E+02 -0.15626622027E+02  0.37146271591E+02  0.00000000000E+00 0. -1.
</event>
<event>
 7    1  0.2564986E-009  0.1094765E+03  0.7561462E-02  0.1261542E+00
         -1   -1    0    0    0  501 -0.00000000000E+00  0.00000000000E+00  0.42590193579E+03  0.42590193579E+03  0.00000000000E+00 0.  1.
          1   -1    0    0  501    0  0.00000000000E+00 -0.00000000000E+00 -0.28648818360E+02  0.28648818360E+02  0.00000000000E+00 0. -1.
         25    2    1    2    0    0 -0.18089123498E+02  0.76907953516E+01  0.20073007813E+03  0.23733514721E+03  0.12509613548E+03 0.  0.
          5    1    3    3  502    0 -0.52698949704E+02 -0.40814125628E+02  0.11091844411E+03  0.12947334010E+03  0.41800000000E+01 0. -1.
         -5    1    3    3    0  502  0.34609826206E+02  0.48504920980E+02  0.89811634017E+02  0.10786180711E+03  0.41800000000E+01 0. -1.
        -11    1    1    2    0    0 -0.37004626816E+02 -0.22880130600E+01  0.74066343521E+02  0.82827535591E+02  0.00000000000E+00 0.  1.
         11    1    1    2    0    0  0.55093750314E+02 -0.54027822916E+01  0.12245669578E+03  0.13438807135E+03  0.00000000000E+00 0. -1.
</event>
<event>
 7    1  0.2564986E-009  0.1263022E+03  0.7561462E-02  0.1233048E+00
          2   -1    0    0  501    0  0.00000000000E+00  0.00000000000E+00  0.17677987603E+03  0.17677987603E+03  0.00000000000E+00 0. -1.
         -2   -1    0    0    0  501 -0.00000000000E+00 -0.00000000000E+00 -0.16326273894E+03  0.16326273894E+03  0.00000000000E+00 0.  1.
         25    2    1    2    0    0  0.82598900082E+02 -0.90146855427E+02 -0.35226544509E+02  0.17842992212E+03  0.12508914355E+03 0.  0.
          5    1    3    3  502    0  0.51797115065E+02 -0.30450638384E+02  0.43914687324E+02  0.74539618122E+02  0.41800000000E+01 0. -1.
         -5    1    3    3    0  502  0.30801785017E+02 -0.59696217043E+02 -0.79141231833E+02  0.10389030400E+03  0.41800000000E+01 0. -1.
        -11    1    1    2    0    0 -0.10901053244E+02  0.14164515489E+01  0.46217988723E+02  0.47507281320E+02  0.00000000000E+00 0. -1.
         11    1    1    2    0    0 -0.71697846838E+02  0.88730403878E+02  0.25256928780E+01  0.11410541152E+03  0.00000000000E+00 0.  1.
</event>
<event>
 7    1  0.3004562E-009  0.9884820E+02  0.7561462E-02  0.1282737E+00
          2   -1    0    0  501    0  0.00000000000E+00  0.00000000000E+00  0.17604028116E+03  0.17604028116E+03  0.00000000000E+00 0. -1.
         -2   -1    0    0    0  501 -0.00000000000E+00 -0.00000000000E+00 -0.13964528118E+03  0.13964528118E+03  0.00000000000E+00 0.  1.
         25    2    1    2    0    0  0.52422173627E+02  0.26020448464E+02 -0.77536347451E+02  0.15838130047E+03  0.12509037987E+03 0.  0.
          5    1    3    3  502    0 -0.25016691385E+02  0.60086077919E+01 -0.73726782122E+02  0.78198778875E+02  0.41800000000E+01 0.  1.
         -5    1    3    3    0  502  0.77438865012E+02  0.20011840673E+02 -0.38095653287E+01  0.80182521596E+02  0.41800000000E+01 0.  1.
        -11    1    1    2    0    0 -0.93727754535E+01  0.23869116377E+02 -0.52645457935E-01  0.25643447659E+02  0.00000000000E+00 0.  1.
         11    1    1    2    0    0 -0.43049398173E+02 -0.49889564841E+02  0.11398399289E+03  0.13166081421E+03  0.00000000000E+00 0. -1.
</event>
<event>
 7    1  0.2564986E-009  0.1513868E+03  0.7561462E-02  0.1198779E+00
          3   -1    0    0  501    0  0.00000000000E+00  0.00000000000E+00  0.21947770481E+02  0.21947770481E+02  0.00000000000E+00 0. -1.
         -3   -1    0    0    0  501 -0.00000000000E+00 -0.00000000000E+00 -0.10962534576E+04  0.10962534576E+04  0.00000000000E+00 0.  1.
         25    2    1    2    0    0  0.48615618052E+02  0.87124246366E+01 -0.53633988665E+03  0.55294452352E+03  0.12509111643E+03 0.  0.
          5    1    3    3  502    0  0.71514327638E+02  0.49293323023E+02 -0.32003870204E+03  0.33164193637E+03  0.41800000000E+01 0.  1.
         -5    1    3    3    0  502 -0.22898709586E+02 -0.40580898386E+02 -0.21630118461E+03  0.22130258715E+03  0.41800000000E+01 0.  1.
        -11    1    1    2    0    0  0.27828408279E+02 -0.67230614243E+02 -0.29672401221E+03  0.30551516365E+03  0.00000000000E+00 0.  1.
         11    1    1    2    0    0 -0.76444026332E+02  0.58518189606E+02 -0.24124178826E+03  0.25974154092E+03  0.00000000000E+00 0. -1.
</event>
<event>
 7    1  0.2564986E-009  0.1627131E+03  0.7561462E-02  0.1185667E+00
         -1   -1    0    0    0  501 -0.00000000000E+00  0.00000000000E+00  0.57069439483E+02  0.57069439483E+02  0.00000000000E+00 0.  1.
          1   -1    0    0  501    0  0.00000000000E+00 -0.00000000000E+00 -0.50182753094E+03  0.50182753094E+03  0.00000000000E+00 0. -1.
         25    2    1    2    0    0  0.12380105171E+03  0.18811791208E+01 -0.16951360897E+03  0.24436359808E+03  0.12509382559E+03 0.  0.
          5    1    3    3  502    0  0.43011133170E+02 -0.58255298976E+02 -0.50413702762E+02  0.88332617201E+02  0.41800000000E+01 0. -1.
         -5    1    3    3    0  502  0.80789918538E+02  0.60136478097E+02 -0.11909990620E+03  0.15603098088E+03  0.41800000000E+01 0. -1.
        -11    1    1    2    0    0 -0.74608826701E+02 -0.44614097684E+02 -0.16374322384E+03  0.18538807429E+03  0.00000000000E+00 0.  1.
         11    1    1    2    0    0 -0.49192225008E+02  0.42732918563E+02 -0.11150125865E+03  0.12914529806E+03  0.00000000000E+00 0. -1.
</event>
<event>
 7    1  0.2564986E-009  0.1241905E+03  0.7561462E-02  0.1236340E+00
          1   -1    0    0  501    0  0.00000000000E+00  0.00000000000E+00  0.11247509010E+04  0.11247509010E+04  0.00000000000E+00 0. -1.
         -1   -1    0    0    0  501 -0.00000000000E+00 -0.00000000000E+00 -0.23568281742E+02  0.23568281742E+02  0.00000000000E+00 0.  1.
         25    2    1    2    0    0  0.40010834231E+02 -0.87465333858E+02  0.85212816694E+03  0.86661494050E+03  0.12509192910E+03 0.  0.
          5    1    3    3  502    0  0.17486410740E+02  0.13116289910E+02  0.47822217874E+03  0.47873973750E+03  0.41800000000E+01 0. -1.
         -5    1    3    3    0  502  0.22524423492E+02 -0.10058162377E+03  0.37390598820E+03  0.38787520300E+03  0.41800000000E+01 0. -1.
        -11    1    1    2    0    0  0.59850519839E+01 -0.11985118530E+02  0.73871389231E+02  0.75076268290E+02  0.00000000000E+00 0. -1.
         11    1    1    2    0    0 -0.45995886215E+02  0.99450452387E+02  0.17518306313E+03  0.20662797400E+03  0.00000000000E+00 0.  1.
</event>
<event>
 7    1  0.2564986E-009  0.9130339E+02  0.7561462E-02  0.1299726E+00
          4   -1    0    0  501    0  0.00000000000E+00  0.00000000000E+00  0.28665557329E+02  0.28665557329E+02  0.00000000000E+00 0. -1.
         -4   -1    0    0    0  501 -0.00000000000E+00 -0.00000000000E+00 -0.46388654207E+03  0.46388654207E+03  0.00000000000E+00 0.  1.
         25    2    1    2    0    0  0.69053596727E+00  0.22041374930E+02 -0.17687132361E+03  0.21775452817E+03  0.12508904977E+03 0.  0.
          5    1    3    3  502    0  0.47861584748E+02  0.12286124384E+02 -0.15842516201E+03  0.16600507374E+03  0.41800000000E+01 0. -1.
         -5    1    3    3    0  502 -0.47171048781E+02  0.97552505461E+01 -0.18446161598E+02  0.51749454432E+02  0.41800000000E+01 0. -1.
        -11    1    1    2    0    0 -0.37038072742E+02  0.75463725866E+01 -0.17629156590E+03  0.18029831607E+03  0.00000000000E+00 0.  1.
         11    1    1    2    0    0  0.36347536774E+02 -0.29587747516E+02 -0.82058095232E+02  0.94499255159E+02  0.00000000000E+00 0. -1.
</event>
<event>
 7    1  0.2564986E-009  0.1543283E+03  0.7561462E-02  0.1195253E+00
         -3   -1    0    0    0  501 -0.00000000000E+00  0.00000000000E+00  0.80675400783E+02  0.80675400783E+02  0.00000000000E+00 0.  1.
          3   -1    0    0  501    0  0.00000000000E+00 -0.00000000000E+00 -0.34706384922E+03  0.34706384922E+03  0.00000000000E+00 0. -1.
         25    2    1    2    0    0 -0.92206182019E+02  0.63103742658E+02 -0.22004990859E+03  0.27668343861E+03  0.12509076941E+03 0.  0.
          5    1    3    3  502    0  0.12550040169E+02  0.58664448267E+02 -0.10472881978E+03  0.12076679631E+03  0.41800000000E+01 0.  1.
         -5    1    3    3    0  502 -0.10475622219E+03  0.44392943911E+01 -0.11532108882E+03  0.15591664230E+03  0.41800000000E+01 0.  1.
        -11    1    1    2    0    0  0.88366080438E+02 -0.84187453637E+01 -0.24892067967E+02  0.92190316700E+02  0.00000000000E+00 0. -1.
         11    1    1    2    0    0  0.38401015808E+01 -0.54684997295E+02 -0.21446471878E+02  0.58865494692E+02  0.00000000000E+00 0.  1.
</event>
<event>
 7    1  0.2564986E-009  0.3069573E+03  0.7561462E-02  0.1081814E+00
          2   -1    0    0  501    0  0.00000000000E+00  0.00000000000E+00  0.77263321899E+03  0.77263321899E+03  0.00000000000E+00 0. -1.
         -2   -1    0    0    0  501 -0.00000000000E+00 -0.00000000000E+00 -0.13982785881E+03  0.13982785881E+03  0.00000000000E+00 0.  1.
         25    2    1    2    0    0 -0.26652341751E+03 -0.12138718336E+03  0.18834337874E+03  0.36998631771E+03  0.12508823531E+03 0.  0.
          5    1    3    3  502    0 -0.40850976066E+02  0.13501844266E+02  0.68542983917E+02  0.81035270644E+02  0.41800000000E+01 0.  1.
         -5    1    3    3    0  502 -0.22567244145E+03 -0.13488902762E+03  0.11980039482E+03  0.28895104707E+03  0.41800000000E+01 0.  1.
        -11    1    1    2    0    0  0.20201340564E+03  0.13345180758E+03  0.31467155653E+03  0.39703524969E+03  0.00000000000E+00 0.  1.
         11    1    1    2    0    0  0.64510011871E+02 -0.12064624225E+02  0.12979042491E+03  0.14543951041E+03  0.00000000000E+00 0. -1.
</event>
<event>
 7    1  0.2564986E-009  0.1271933E+03  0.7561462E-02  0.1231681E+00
         -1   -1    0    0    0  501 -0.00000000000E+00  0.00000000000E+00  0.10953845162E+03  0.10953845162E+03  0.00000000000E+00 0.  1.
          1   -1    0    0  501    0  0.00000000000E+00 -0.00000000000E+00 -0.18887642878E+03  0.18887642878E+03  0.00000000000E+00 0. -1.
         25    2    1    2    0    0 -0.69760231208E+02 -0.57212216507E+02 -0.20344381045E+02  0.15557461304E+03  0.12509931577E+03 0.  0.
          5    1    3    3  502    0 -0.20562372554E+02  0.32286026439E+02  0.22663968386E+02  0.44680270045E+02  0.41800000000E+01 0.  1.
         -5    1    3    3    0  502 -0.49197858654E+02 -0.89498242946E+02 -0.43008349431E+02  0.11089434299E+03  0.41800000000E+01 0.  1.
        -11    1    1    2    0    0  0.74183107566E+02  0.20879532265E+02 -0.45010511380E+01  0.77196811962E+02  0.00000000000E+00 0.  1.
         11    1    1    2    0    0 -0.44228763577E+01  0.36332684243E+02 -0.54492544977E+02  0.65643455406E+02  0.00000000000E+00 0. -1.
</event>
<event>
 7    1  0.2564986E-009  0.1344070E+03  0.7561462E-02  0.1221059E+00
         -2   -1    0    0    0  501 -0.00000000000E+00  0.00000000000E+00  0.26539931980E+03  0.26539931980E+03  0.00000000000E+00 0.  1.
          2   -1    0    0  501    0  0.00000000000E+00 -0.00000000000E+00 -0.77179086222E+02  0.77179086222E+02  0.00000000000E+00 0. -1.
         25    2    1    2    0    0 -0.20977824878E+02 -0.89875222238E+02  0.11005669974E+03  0.19046628935E+03  0.12508919023E+03 0.  0.
          5    1    3    3  502    0  0.36659689828E+02  0.61235398445E+01  0.52603870699E+02  0.64545102146E+02  0.41800000000E+01 0. -1.
         -5    1    3    3    0  502 -0.57637514706E+02 -0.95998762082E+02  0.57452829042E+02  0.12592118721E+03  0.41800000000E+01 0. -1.
        -11    1    1    2    0    0 -0.28777122708E+02  0.31814248760E+02  0.59590524978E+02  0.73425471620E+02  0.00000000000E+00 0.  1.
         11    1    1    2    0    0  0.49754947586E+02  0.58060973478E+02  0.18573008856E+02  0.78686645045E+02  0.00000000000E+00 0. -1.
</event>
<event>
 7    1  0.2564986E-009  0.1150425E+03  0.7561462E-02  0.1251507E+00
          2   -1    0    0  501    0  0.00000000000E+00  0.00000000000E+00  0.40162814275E+03  0.40162814275E+03  0.00000000000E+00 0. -1.
         -2   -1    0    0    0  501 -0.00000000000E+00 -0.00000000000E+00 -0.17717625089E+03  0.17717625089E+03  0.00000000000E+00 0.  1.
         25    2    1    2    0    0  0.22493117599E+02  0.84684894365E+02  0.36169720359E+03  0.39261903177E+03  0.12508942940E+03 0.  0.
          5    1    3    3  502    0  0.41834724101E+02  0.59068626871E+02  0.75788491670E+02  0.10488381520E+03  0.41800000000E+01 0.  1.
         -5    1    3    3    0  502 -0.19341606502E+02  0.25616267495E+02  0.28590871192E+03  0.28773521657E+03  0.41800000000E+01 0.  1.
        -11    1    1    2    0    0 -0.46325909387E+02 -0.10785124674E+02 -0.43477623189E+02  0.64441543378E+02  0.00000000000E+00 0.  1.
         11    1    1    2    0    0  0.23832791788E+02 -0.73899769691E+02 -0.93767688541E+02  0.12174381848E+03  0.00000000000E+00 0. -1.
</event>
<event>
 7    1  0.2564986E-009  0.1485265E+03  0.7561462E-02  0.1202295E+00
          2   -1    0    0  501    0  0.00000000000E+00  0.00000000000E+00  0.14770872036E+03  0.14770872036E+03  0.00000000000E+00 0. -1.
         -2   -1    0    0    0  501 -0.00000000000E+00 -0.00000000000E+00 -0.21348627386E+03  0.21348627386E+03  0.00000000000E+00 0.  1.
         25    2    1    2    0    0  0.75290354964E+01 -0.13474886320E+03  0.74087615786E+01  0.18416005573E+03  0.12508434701E+03 0.  0.
          5    1    3    3  502    0 -0.96104436661E+01 -0.10760914209E+03 -0.49327548903E+02  0.11883925096E+03  0.41800000000E+01 0.  1.
         -5    1    3    3    0  502  0.17139479163E+02 -0.27139721115E+02  0.56736310482E+02  0.65320804766E+02  0.41800000000E+01 0.  1.
        -11    1    1    2    0    0  0.35011892386E+02  0.43135508110E+02 -0.46788700977E+02  0.72633926009E+02  0.00000000000E+00 0.  1.
         11    1    1    2    0    0 -0.42540927883E+02  0.91613355092E+02 -0.26397614103E+02  0.10440101248E+03  0.00000000000E+00 0. -1.
</event>
<event>
 7    1  0.2564986E-009  0.1076434E+03  0.7561462E-02  0.1264997E+00
          2   -1    0    0  501    0  0.00000000000E+00  0.00000000000E+00  0.17971181327E+04  0.17971181327E+04  0.00000000000E+00 0.  1.
         -2   -1    0    0    0  501 -0.00000000000E+00 -0.00000000000E+00 -0.95820369430E+01  0.95820369430E+01  0.00000000000E+00 0. -1.
         25    2    1    2    0    0  0.27601290184E+02 -0.57972659507E+02  0.12492482388E+04  0.12571361772E+04  0.12509014867E+03 0.  0.
          5    1    3    3  502    0 -0.83370038310E+01 -0.67386109923E+02  0.32071058247E+03  0.32784621937E+03  0.41800000000E+01 0.  1.
         -5    1    3    3    0  502  0.35938294015E+02  0.94134504159E+01  0.92853765637E+03  0.92928995783E+03  0.41800000000E+01 0.  1.
        -11    1    1    2    0    0  0.30880033959E+02  0.35927887249E+02  0.19839832810E+03  0.20397619021E+03  0.00000000000E+00 0. -1.
         11    1    1    2    0    0 -0.58481324143E+02  0.22044772258E+02  0.33988952882E+03  0.34558780224E+03  0.00000000000E+00 0.  1.
</event>
<event>
 7    1  0.2564986E-009  0.1215147E+03  0.7561462E-02  0.1240619E+00
          2   -1    0    0  501    0  0.00000000000E+00  0.00000000000E+00  0.10598985573E+04  0.10598985573E+04  0.00000000000E+00 0. -1.
         -2   -1    0    0    0  501 -0.00000000000E+00 -0.00000000000E+00 -0.20956366035E+02  0.20956366035E+02  0.00000000000E+00 0.  1.
         25    2    1    2    0    0  0.25378843269E-01  0.99638098776E+02  0.52293382907E+03  0.54684073596E+03  0.12508896656E+03 0.  0.
          5    1    3    3  502    0  0.32885217843E+02  0.15222517135E+02  0.35004929654E+02  0.50556701639E+02  0.41800000000E+01 0.  1.
         -5    1    3    3    0  502 -0.32859839000E+02  0.84415581641E+02  0.48792889941E+03  0.49628403433E+03  0.41800000000E+01 0.  1.
        -11    1    1    2    0    0 -0.19476231319E+02 -0.93450076409E+02  0.49712690890E+03  0.50620885405E+03  0.00000000000E+00 0. -1.
         11    1    1    2    0    0  0.19450852476E+02 -0.61880223668E+01  0.18881453321E+02  0.27805333344E+02  0.00000000000E+00 0.  1.
</event>
<event>
 7    1  0.2564986E-009  0.1106967E+03  0.7561462E-02  0.1259285E+00
          3   -1    0    0  501    0  0.00000000000E+00  0.00000000000E+00  0.12122761202E+03  0.12122761202E+03  0.00000000000E+00 0. -1.
         -3   -1    0    0    0  501 -0.00000000000E+00 -0.00000000000E+00 -0.13700533039E+03  0.13700533039E+03  0.00000000000E+00 0.  1.
         25    2    1    2    0    0 -0.67328453122E+02 -0.23723528535E+01  0.11822098098E+02  0.14255523260E+03  0.12507391286E+03 0.  0.
          5    1    3    3  502    0 -0.12784761826E+02 -0.47781225292E+02 -0.31981968187E+02  0.59049253293E+02  0.41800000000E+01 0.  1.
         -5    1    3    3    0  502 -0.54543691296E+02  0.45408872438E+02  0.43804066285E+02  0.83505979303E+02  0.41800000000E+01 0.  1.
        -11    1    1    2    0    0  0.58100537181E+02  0.34270146576E+02  0.68846149646E+01  0.67804965086E+02  0.00000000000E+00 0. -1.
         11    1    1    2    0    0  0.92279159410E+01 -0.31897793723E+02 -0.34484431426E+02  0.47872744728E+02  0.00000000000E+00 0.  1.
</event>
<event>
 7    1  0.2564986E-009  0.1040541E+03  0.7561462E-02  0.1271995E+00
         -1   -1    0    0    0  501 -0.00000000000E+00  0.00000000000E+00  0.30321277708E+02  0.30321277708E+02  0.00000000000E+00 0.  1.
          1   -1    0    0  501    0  0.00000000000E+00 -0.00000000000E+00 -0.51459545829E+03  0.51459545829E+03  0.00000000000E+00 0. -1.
         25    2    1    2    0    0 -0.11846999816E+02  0.52105939148E+02 -0.20223136717E+03  0.24372109238E+03  0.12508822768E+03 0.  0.
          5    1    3    3  502    0 -0.50908523067E+02 -0.54703472200E+01 -0.33952248617E+02  0.61577836968E+02  0.41800000000E+01 0. -1.
         -5    1    3    3    0  502  0.39061523251E+02  0.57576286368E+02 -0.16827911856E+03  0.18214325542E+03  0.41800000000E+01 0. -1.
        -11    1    1    2    0    0  0.11993746387E+01  0.17035807521E+02 -0.89423112431E+01  0.19277504190E+02  0.00000000000E+00 0.  1.
         11    1    1    2    0    0  0.10647625177E+02 -0.69141746669E+02 -0.27310050217E+03  0.28191813943E+03  0.00000000000E+00 0. -1.
</event>
<event>
 7    1  0.2564986E-009  0.7019766E+02  0.7561462E-02  0.1359422E+00
          3   -1    0    0  501    0  0.00000000000E+00  0.00000000000E+00  0.12633189383E+03  0.12633189383E+03  0.00000000000E+00 0. -1.
         -3   -1    0    0    0  501 -0.00000000000E+00 -0.00000000000E+00 -0.10663185303E+03  0.10663185303E+03  0.00000000000E+00 0.  1.
         25    2    1    2    0    0 -0.26435186105E+02 -0.19385848433E+02  0.37804403717E+02  0.13472697858E+03  0.12509018999E+03 0.  0.
          5    1    3    3  502    0  0.25488064546E+02  0.27968053224E+01 -0.34313960998E+02  0.43039329382E+02  0.41800000000E+01 0.  1.
         -5    1    3    3    0  502 -0.51923250651E+02 -0.22182653755E+02  0.72118364715E+02  0.91687649196E+02  0.41800000000E+01 0.  1.
        -11    1    1    2    0    0  0.75549774298E+01  0.33426292902E+02 -0.48756651570E+02  0.59595350603E+02  0.00000000000E+00 0.  1.
         11    1    1    2    0    0  0.18880208675E+02 -0.14040444469E+02  0.30652288648E+02  0.38641417674E+02  0.00000000000E+00 0. -1.
</event>
<event>
 7    1  0.2564986E-009  0.1923470E+03  0.7561462E-02  0.1156361E+00
          1   -1    0    0  501    0  0.00000000000E+00  0.00000000000E+00  0.10022558750E+04  0.10022558750E+04  0.00000000000E+00 0. -1.
         -1   -1    0    0    0  501 -0.00000000000E+00 -0.00000000000E+00 -0.42836871804E+02  0.42836871804E+02  0.00000000000E+00 0.  1.
         25    2    1    2    0    0 -0.11290699208E+03  0.13373454311E+03  0.53920348968E+03  0.58053417767E+03  0.12508641523E+03 0.  0.
          5    1    3    3  502    0 -0.13561823852E+02  0.75237606686E+02  0.97253434771E+02  0.12377529439E+03  0.41800000000E+01 0. -1.
         -5    1    3    3    0  502 -0.99345168229E+02  0.58496936424E+02  0.44195005491E+03  0.45675888328E+03  0.41800000000E+01 0. -1.
        -11    1    1    2    0    0 -0.31266376431E+01 -0.48967583449E+02  0.65491064092E+02  0.81833242437E+02  0.00000000000E+00 0.  1.
         11    1    1    2    0    0  0.11603362972E+03 -0.84766959661E+02  0.35472444941E+03  0.38272532669E+03  0.00000000000E+00 0. -1.
</event>
<event>
 7    1  0.2564986E-009  0.1363845E+03  0.7561462E-02  0.1218278E+00
         -3   -1    0    0    0  501 -0.00000000000E+00  0.00000000000E+00  0.29298262191E+03  0.29298262191E+03  0.00000000000E+00 0.  1.
          3   -1    0    0  501    0  0.00000000000E+00 -0.00000000000E+00 -0.10098739227E+03  0.10098739227E+03  0.00000000000E+00 0. -1.
         25    2    1    2    0    0 -0.11357721520E+03 -0.22826873281E+02  0.18036253543E+03  0.24819127497E+03  0.12508962719E+03 0.  0.
          5    1    3    3  502    0  0.83156169962E+01 -0.21659996226E+02  0.98534314497E+02  0.10131529231E+03  0.41800000000E+01 0.  1.
         -5    1    3    3    0  502 -0.12189283219E+03 -0.11668770550E+01  0.81828220929E+02  0.14687598266E+03  0.41800000000E+01 0.  1.
        -11    1    1    2    0    0  0.56050206834E+02 -0.15432821761E+02  0.40552206470E+02  0.70882149538E+02  0.00000000000E+00 0.  1.
         11    1    1    2    0    0  0.57527008363E+02  0.38259695042E+02 -0.28919512256E+02  0.74896589676E+02  0.00000000000E+00 0. -1.
</event>
<event>
 7    1  0.2564986E-009  0.9663258E+02  0.7561462E-02  0.1287541E+00
          3   -1    0    0  501    0  0.00000000000E+00  0.00000000000E+00  0.53609888558E+03  0.53609888558E+03  0.00000000000E+00 0. -1.
         -3   -1    0    0    0  501 -0.00000000000E+00 -0.00000000000E+00 -0.19012910248E+02  0.19012910248E+02  0.00000000000E+00 0.  1.
         25    2    1    2    0    0  0.12839779281E+02 -0.18832674863E+02  0.31340238952E+03  0.33821176057E+03  0.12508640075E+03 0.  0.
          5    1    3    3  502    0  0.52755275589E+02  0.32054349108E+02  0.13863775559E+03  0.15181732468E+03  0.41800000000E+01 0.  1.
         -5    1    3    3    0  502 -0.39915496307E+02 -0.50887023971E+02  0.17476463394E+03  0.18639443589E+03  0.41800000000E+01 0.  1.
        -11    1    1    2    0    0  0.24530794848E+02  0.15608069755E+02  0.43074775931E+02  0.51969299196E+02  0.00000000000E+00 0.  1.
         11    1    1    2    0    0 -0.37370574130E+02  0.32246051081E+01  0.16060880987E+03  0.16493073606E+03  0.00000000000E+00 0. -1.
</event>
<event>
 7    1  0.2564986E-009  0.1248584E+03  0.7561462E-02  0.1235291E+00
          2   -1    0    0  501    0  0.00000000000E+00  0.00000000000E+00  0.99498326709E+03  0.99498326709E+03  0.00000000000E+00 0.  1.
         -2   -1    0    0    0  501 -0.00000000000E+00 -0.00000000000E+00 -0.21119141486E+02  0.21119141486E+02  0.00000000000E+00 0. -1.
         25    2    1    2    0    0  0.52427897616E+02 -0.69012969272E+02  0.61689439731E+03  0.63538710837E+03  0.12508639281E+03 0.  0.
          5    1    3    3  502    0 -0.14425100357E+02  0.25292436062E+02  0.22071007247E+03  0.22266162519E+03  0.41800000000E+01 0. -1.
         -5    1    3    3    0  502  0.66852997974E+02 -0.94305405334E+02  0.39618432484E+03  0.41272548318E+03  0.41800000000E+01 0. -1.
        -11    1    1    2    0    0 -0.27891181198E+02  0.74444208681E+02  0.34273339066E+03  0.35183239655E+03  0.00000000000E+00 0.  1.
         11    1    1    2    0    0 -0.24536716418E+02 -0.54312394089E+01  0.14236337632E+02  0.28882903651E+02  0.00000000000E+00 0. -1.
</event>
<event>
 7    1  0.2564986E-009  0.7338483E+02  0.7561462E-02  0.1348947E+00
          1   -1    0    0  501    0  0.00000000000E+00  0.00000000000E+00  0.13201660417E+03  0.13201660417E+03  0.00000000000E+00 0. -1.
         -1   -1    0    0    0  501 -0.00000000000E+00 -0.00000000000E+00 -0.10653490182E+03  0.10653490182E+03  0.00000000000E+00 0.  1.
         25    2    1    2    0    0 -0.15425979382E+02  0.37324442563E+02 -0.11459097166E+02  0.13194630681E+03  0.12508973627E+03 0.  0.
          5    1    3    3  502    0  0.29403420525E+02  0.38852802220E+02 -0.51969467300E+02  0.71361048972E+02  0.41800000000E+01 0. -1.
         -5    1    3    3    0  502 -0.44829399907E+02 -0.15283596569E+01  0.40510370134E+02  0.60585257841E+02  0.41800000000E+01 0. -1.
        -11    1    1    2    0    0  0.15822682736E+01 -0.38855801595E+02 -0.22923756313E+02  0.45141726750E+02  0.00000000000E+00 0.  1.
         11    1    1    2    0    0  0.13843711108E+02  0.15313590321E+01  0.59864555827E+02  0.61463472421E+02  0.00000000000E+00 0. -1.
</event>
<event>
 7    1  0.2564986E-009  0.1079520E+03  0.7561462E-02  0.1264410E+00
          1   -1    0    0  501    0  0.00000000000E+00  0.00000000000E+00  0.67969451214E+02  0.67969451214E+02  0.00000000000E+00 0. -1.
         -1   -1    0    0    0  501 -0.00000000000E+00 -0.00000000000E+00 -0.25784805032E+03  0.25784805032E+03  0.00000000000E+00 0.  1.
         25    2    1    2    0    0  0.14241956177E+02 -0.60143133161E+02 -0.15247105863E+03  0.20667522532E+03  0.12508874952E+03 0.  0.
          5    1    3    3  502    0  0.51773597355E+02 -0.49036574109E+02 -0.29022707214E+02  0.77103053879E+02  0.41800000000E+01 0.  1.
         -5    1    3    3    0  502 -0.37531641178E+02 -0.11106559052E+02 -0.12344835142E+03  0.12957217144E+03  0.41800000000E+01 0.  1.
        -11    1    1    2    0    0 -0.38381014663E+02 -0.20089749502E+01  0.69542546961E+01  0.39057648742E+02  0.00000000000E+00 0. -1.
         11    1    1    2    0    0  0.24139058486E+02  0.62152108111E+02 -0.44361795175E+02  0.80084627479E+02  0.00000000000E+00 0.  1.
</event>
<event>
 7    1  0.2564986E-009  0.1244761E+03  0.7561462E-02  0.1235890E+00
          1   -1    0    0  501    0  0.00000000000E+00  0.00000000000E+00  0.11138943732E+03  0.11138943732E+03  0.00000000000E+00 0. -1.
         -1   -1    0    0    0  501 -0.00000000000E+00 -0.00000000000E+00 -0.21175350694E+03  0.21175350694E+03  0.00000000000E+00 0.  1.
         25    2    1    2    0    0  0.10282346854E+03 -0.20376615328E+02 -0.79158293600E+02  0.18138914861E+03  0.12509242844E+03 0.  0.
          5    1    3    3  502    0  0.56616294797E+02  0.37688813160E+02 -0.82483606324E+02  0.10699004246E+03  0.41800000000E+01 0. -1.
         -5    1    3    3    0  502  0.46207173742E+02 -0.58065428488E+02  0.33253127231E+01  0.74399106146E+02  0.41800000000E+01 0. -1.
        -11    1    1    2    0    0 -0.71383293439E+02  0.51957989502E+01  0.31771194344E+02  0.78306958178E+02  0.00000000000E+00 0. -1.
         11    1    1    2    0    0 -0.31440175100E+02  0.15180816378E+02 -0.52976970365E+02  0.63446837473E+02  0.00000000000E+00 0.  1.
</event>
<event>
 7    1  0.2647838E-009  0.4313002E+02  0.7561462E-02  0.1486365E+00
          2   -1    0    0  501    0  0.00000000000E+00  0.00000000000E+00  0.23143352278E+03  0.23143352278E+03  0.00000000000E+00 0. -1.
         -2   -1    0    0    0  501 -0.00000000000E+00 -0.00000000000E+00 -0.56323444446E+02  0.56323444446E+02  0.00000000000E+00 0.  1.
         25    2    1    2    0    0 -0.26582213291E+02 -0.18409086618E+02  0.11943430583E+03  0.17594795086E+03  0.12509044515E+03 0.  0.
          5    1    3    3  502    0 -0.80371244622E+01 -0.35758321656E+01  0.14235021505E+03  0.14268299854E+03  0.41800000000E+01 0.  1.
         -5    1    3    3    0  502 -0.18545088829E+02 -0.14833254452E+02 -0.22915909224E+02  0.33264952320E+02  0.41800000000E+01 0.  1.
        -11    1    1    2    0    0 -0.10503449083E+02 -0.99921730010E+00 -0.21535863925E+02  0.23981541086E+02  0.00000000000E+00 0.  1.
         11    1    1    2    0    0  0.37085662373E+02  0.19408303918E+02  0.77211636431E+02  0.87827475285E+02  0.00000000000E+00 0. -1.
</event>
<event>
 7    1  0.2564986E-009  0.8425813E+02  0.7561462E-02  0.1317384E+00
          2   -1    0    0  501    0  0.00000000000E+00  0.00000000000E+00  0.50693181794E+02  0.50693181794E+02  0.00000000000E+00 0. -1.
         -2   -1    0    0    0  501 -0.00000000000E+00 -0.00000000000E+00 -0.36222658796E+03  0.36222658796E+03  0.00000000000E+00 0.  1.
         25    2    1    2    0    0 -0.73665512211E+02 -0.66037602202E+01 -0.19956181803E+03  0.24686531640E+03  0.12508935962E+03 0.  0.
          5    1    3    3  502    0 -0.67845384774E+02  0.13831276007E+02 -0.29414952348E+02  0.75345950474E+02  0.41800000000E+01 0.  1.
         -5    1    3    3    0  502 -0.58201274371E+01 -0.20435036227E+02 -0.17014686568E+03  0.17151936593E+03  0.41800000000E+01 0.  1.
        -11    1    1    2    0    0  0.35850360997E+02 -0.83834918302E+01 -0.11918577656E+03  0.12474285813E+03  0.00000000000E+00 0.  1.
         11    1    1    2    0    0  0.37815151214E+02  0.14987252050E+02  0.72141884224E+01  0.41311595224E+02  0.00000000000E+00 0. -1.
</event>
<event>
 7    1  0.2564986E-009  0.1225246E+03  0.7561462E-02  0.1238989E+00
          1   -1    0    0  501    0  0.00000000000E+00  0.00000000000E+00  0.59445690182E+02  0.59445690182E+02  0.00000000000E+00 0. -1.
         -1   -1    0    0    0  501 -0.00000000000E+00 -0.00000000000E+00 -0.28053593476E+03  0.28053593476E+03  0.00000000000E+00 0.  1.
         25    2    1    2    0    0  0.57983809329E+02 -0.39801053292E+02 -0.14414697882E+03  0.20340100389E+03  0.12508945157E+03 0.  0.
          5    1    3    3  502    0 -0.37034463094E+02 -0.10110245888E+02 -0.67221524902E+02  0.77524024268E+02  0.41800000000E+01 0.  1.
         -5    1    3    3    0  502  0.95018272423E+02 -0.29690807404E+02 -0.76925453923E+02  0.12587697963E+03  0.41800000000E+01 0.  1.
        -11    1    1    2    0    0  0.83526524324E+00 -0.21688118213E+02 -0.36269397401E+02  0.42267497294E+02  0.00000000000E+00 0.  1.
         11    1    1    2    0    0 -0.58819074572E+02  0.61489171505E+02 -0.40673868356E+02  0.94313123758E+02  0.00000000000E+00 0. -1.
</event>
<event>
 7    1  0.2564986E-009  0.8588214E+02  0.7561462E-02  0.1313142E+00
          4   -1    0    0  501    0  0.00000000000E+00  0.00000000000E+00  0.13659788763E+03  0.13659788763E+03  0.00000000000E+00 0. -1.
         -4   -1    0    0    0  501 -0.00000000000E+00 -0.00000000000E+00 -0.87271399841E+02  0.87271399841E+02  0.00000000000E+00 0.  1.
         25    2    1    2    0    0 -0.33929857856E+01 -0.50967117497E+01  0.40454270622E+02  0.13160443547E+03  0.12508273502E+03 0.  0.
          5    1    3    3  502    0  0.55036716721E+02 -0.16508734326E+02  0.42969891839E+02  0.71871152079E+02  0.41800000000E+01 0. -1.
         -5    1    3    3    0  502 -0.58429702507E+02  0.11412022577E+02 -0.25156212173E+01  0.59733283389E+02  0.41800000000E+01 0. -1.
        -11    1    1    2    0    0 -0.24957517880E+02  0.73928942590E+01 -0.32761247273E+02  0.41842943337E+02  0.00000000000E+00 0.  1.
         11    1    1    2    0    0  0.28350503666E+02 -0.22961825093E+01  0.41633464441E+02  0.50421908666E+02  0.00000000000E+00 0. -1.
</event>
<event>
 7    1  0.2564986E-009  0.1221366E+03  0.7561462E-02  0.1239613E+00
          1   -1    0    0  501    0  0.00000000000E+00  0.00000000000E+00  0.29153160268E+02  0.29153160268E+02  0.00000000000E+00 0. -1.
         -1   -1    0    0    0  501 -0.00000000000E+00 -0.00000000000E+00 -0.61627356126E+03  0.61627356126E+03  0.00000000000E+00 0.  1.
         25    2    1    2    0    0  0.16334566373E+02 -0.70957370966E+02 -0.38339973640E+03  0.40981040305E+03  0.12508973587E+03 0.  0.
          5    1    3    3  502    0 -0.23999611210E+02  0.28057827762E+02 -0.11567800158E+03  0.12149936414E+03  0.41800000000E+01 0. -1.
         -5    1    3    3    0  502  0.40334177583E+02 -0.99015198728E+02 -0.26772173482E+03  0.28831103891E+03  0.41800000000E+01 0. -1.
        -11    1    1    2    0    0  0.24146153678E+02  0.83208049061E+01 -0.12338086022E+03  0.12599646503E+03  0.00000000000E+00 0.  1.
         11    1    1    2    0    0 -0.40480720052E+02  0.62636566060E+02 -0.80339804375E+02  0.10961985345E+03  0.00000000000E+00 0. -1.
</event>
<event>
 7    1  0.2564986E-009  0.2829308E+03  0.7561462E-02  0.1094099E+00
          1   -1    0    0  501    0  0.00000000000E+00  0.00000000000E+00  0.48615427784E+04  0.48615427784E+04  0.00000000000E+00 0. -1.
         -1   -1    0    0    0  501 -0.00000000000E+00 -0.00000000000E+00 -0.26470080602E+02  0.26470080602E+02  0.00000000000E+00 0.  1.
         25    2    1    2    0    0 -0.26586187107E+03 -0.45143439883E+02  0.38733936657E+04  0.38847839739E+04  0.12509024671E+03 0.  0.
          5    1    3    3  502    0 -0.65393462707E+02 -0.54764002218E+02  0.16985614243E+04  0.17007068488E+04  0.41800000000E+01 0.  1.
         -5    1    3    3    0  502 -0.20046840837E+03  0.96205623347E+01  0.21748322414E+04  0.21840771252E+04  0.41800000000E+01 0.  1.
        -11    1    1    2    0    0  0.20800715372E+03  0.65991479887E+02  0.82460738511E+03  0.85299425027E+03  0.00000000000E+00 0.  1.
         11    1    1    2    0    0  0.57854717356E+02 -0.20848040004E+02  0.13707164701E+03  0.15023463485E+03  0.00000000000E+00 0. -1.
</event>
<event>
 7    1  0.2564986E-009  0.1952447E+03  0.7561462E-02  0.1153814E+00
         -2   -1    0    0    0  501 -0.00000000000E+00  0.00000000000E+00  0.42809907192E+03  0.42809907192E+03  0.00000000000E+00 0.  1.
          2   -1    0    0  501    0  0.00000000000E+00 -0.00000000000E+00 -0.26064451383E+03  0.26064451383E+03  0.00000000000E+00 0. -1.
         25    2    1    2    0    0 -0.12375431400E+03 -0.14330604796E+03  0.34602505894E+03  0.41380452714E+03  0.12509632949E+03 0.  0.
          5    1    3    3  502    0 -0.74707369410E+02 -0.54892417251E+02  0.60252486395E+02  0.11064448939E+03  0.41800000000E+01 0. -1.
         -5    1    3    3    0  502 -0.49046944587E+02 -0.88413630707E+02  0.28577257254E+03  0.30316003775E+03  0.41800000000E+01 0. -1.
        -11    1    1    2    0    0  0.29682245145E+02  0.73759883326E+02 -0.28070781786E+02  0.84317998406E+02  0.00000000000E+00 0.  1.
         11    1    1    2    0    0  0.94072068851E+02  0.69546164632E+02 -0.15049971906E+03  0.19062106020E+03  0.00000000000E+00 0. -1.
</event>
<event>
 7    1  0.2564986E-009  0.1498843E+03  0.7561462E-02  0.1200615E+00
         -2   -1    0    0    0  501 -0.00000000000E+00  0.00000000000E+00  0.21788503706E+02  0.21788503706E+02  0.00000000000E+00 0.  1.
          2   -1    0    0  501    0  0.00000000000E+00 -0.00000000000E+00 -0.10533078461E+04  0.10533078461E+04  0.00000000000E+00 0. -1.
         25    2    1    2    0    0  0.91855308242E+02  0.48313191813E+02 -0.62716879098E+03  0.64788899775E+03  0.12509156198E+03 0.  0.
          5    1    3    3  502    0 -0.31124486499E+02  0.72580626859E+01 -0.10412455518E+03  0.10899912167E+03  0.41800000000E+01 0.  1.
         -5    1    3    3    0  502  0.12297979474E+03  0.41055129127E+02 -0.52304423580E+03  0.53888987608E+03  0.41800000000E+01 0.  1.
        -11    1    1    2    0    0  0.12826644250E+02 -0.28533038797E+02 -0.96539960873E+02  0.10148212232E+03  0.00000000000E+00 0. -1.
         11    1    1    2    0    0 -0.10468195249E+03 -0.19780153016E+02 -0.30781059051E+03  0.32572522970E+03  0.00000000000E+00 0.  1.
</event>
<event>
 7    1  0.2564986E-009  0.3657330E+03  0.7561462E-02  0.1056337E+00
         -2   -1    0    0    0  501 -0.00000000000E+00  0.00000000000E+00  0.22195252397E+03  0.22195252397E+03  0.00000000000E+00 0.  1.
          2   -1    0    0  501    0  0.00000000000E+00 -0.00000000000E+00 -0.93540565719E+03  0.93540565719E+03  0.00000000000E+00 0. -1.
         25    2    1    2    0    0  0.19406584816E+02  0.35644347896E+03 -0.27333805648E+02  0.37923983625E+03  0.12508855760E+03 0.  0.
          5    1    3    3  502    0  0.33635061311E+02  0.67695612638E+02  0.35099563180E+02  0.83447378960E+02  0.41800000000E+01 0.  1.
         -5    1    3    3    0  502 -0.14228476496E+02  0.28874786632E+03 -0.62433368828E+02  0.29579245729E+03  0.41800000000E+01 0.  1.
        -11    1    1    2    0    0 -0.39600218360E+02 -0.33439870567E+03 -0.61964683342E+03  0.70523249345E+03  0.00000000000E+00 0. -1.
         11    1    1    2    0    0  0.20193633544E+02 -0.22044773287E+02 -0.66472494145E+02  0.72885851458E+02  0.00000000000E+00 0.  1.
</event>
<event>
 7    1  0.2564986E-009  0.9747020E+02  0.7561462E-02  0.1285708E+00
         -1   -1    0    0    0  501 -0.00000000000E+00  0.00000000000E+00  0.40531011311E+02  0.40531011311E+02  0.00000000000E+00 0.  1.
          1   -1    0    0  501    0  0.00000000000E+00 -0.00000000000E+00 -0.43617497080E+03  0.43617497080E+03  0.00000000000E+00 0. -1.
         25    2    1    2    0    0  0.72404265306E+02  0.21326254977E+02 -0.20388729132E+03  0.25082797098E+03  0.12508979445E+03 0.  0.
          5    1    3    3  502    0  0.20131202912E+02  0.29886452167E+01  0.14596828181E+02  0.25391674302E+02  0.41800000000E+01 0.  1.
         -5    1    3    3    0  502  0.52273062394E+02  0.18337609760E+02 -0.21848411950E+03  0.22543629668E+03  0.41800000000E+01 0.  1.
        -11    1    1    2    0    0 -0.21655746805E+02 -0.54049237840E+02 -0.10691495699E+03  0.12174193816E+03  0.00000000000E+00 0. -1.
         11    1    1    2    0    0 -0.50748518501E+02  0.32722982863E+02 -0.84841711186E+02  0.10413607297E+03  0.00000000000E+00 0.  1.
</event>
<event>
 7    1  0.2564986E-009  0.1070806E+03  0.7561462E-02  0.1266074E+00
          1   -1    0    0  501    0  0.00000000000E+00  0.00000000000E+00  0.22950067523E+03  0.22950067523E+03  0.00000000000E+00 0. -1.
         -1   -1    0    0    0  501 -0.00000000000E+00 -0.00000000000E+00 -0.55832563728E+02  0.55832563728E+02  0.00000000000E+00 0.  1.
         25    2    1    2    0    0 -0.80453816802E+01 -0.18548429653E+02  0.66270797725E+02  0.14300032762E+03  0.12509397532E+03 0.  0.
          5    1    3    3  502    0  0.66509238173E+01  0.52071773821E+02  0.39956070030E+02  0.66103436739E+02  0.41800000000E+01 0. -1.
         -5    1    3    3    0  502 -0.14696305497E+02 -0.70620203474E+02  0.26314727695E+02  0.76896890884E+02  0.41800000000E+01 0. -1.
        -11    1    1    2    0    0 -0.34973877581E+02 -0.11449752988E+02  0.24402113243E+02  0.44155770713E+02  0.00000000000E+00 0.  1.
         11    1    1    2    0    0  0.43019259261E+02  0.29998182641E+02  0.82995200532E+02  0.98177140620E+02  0.00000000000E+00 0. -1.
</event>
<event>
 7    1  0.2564986E-009  0.1181114E+03  0.7561462E-02  0.1246246E+00
          1   -1    0    0  501    0  0.00000000000E+00  0.00000000000E+00  0.14629045917E+03  0.14629045917E+03  0.00000000000E+00 0. -1.
         -1   -1    0    0    0  501 -0.00000000000E+00 -0.00000000000E+00 -0.97029332240E+02  0.97029332240E+02  0.00000000000E+00 0.  1.
         25    2    1    2    0    0 -0.31697121695E+02 -0.35775528374E+02  0.21942460175E+02  0.13569783931E+03  0.12509131097E+03 0.  0.
          5    1    3    3  502    0  0.37193405211E+01  0.45120798793E+02  0.89732257795E+01  0.46343404693E+02  0.41800000000E+01 0.  1.
         -5    1    3    3    0  502 -0.35416462216E+02 -0.80896327167E+02  0.12969234396E+02  0.89354434618E+02  0.41800000000E+01 0.  1.
        -11    1    1    2    0    0 -0.26552223378E+02 -0.98880616937E+01 -0.10599615338E+01  0.28353445096E+02  0.00000000000E+00 0. -1.
         11    1    1    2    0    0  0.58249345072E+02  0.45663590068E+02  0.28378628290E+02  0.79268507005E+02  0.00000000000E+00 0.  1.
</event>
<event>
 7    1  0.2564986E-009  0.1061186E+03  0.7561462E-02  0.1267931E+00
         -2   -1    0    0    0  501 -0.00000000000E+00  0.00000000000E+00  0.12260220070E+03  0.12260220070E+03  0.00000000000E+00 0. -1.
          2   -1    0    0  501    0  0.00000000000E+00 -0.00000000000E+00 -0.13672172211E+03  0.13672172211E+03  0.00000000000E+00 0.  1.
         25    2    1    2    0    0 -0.55157512167E+02 -0.44186448062E+02 -0.14238071704E+02  0.14437757618E+03  0.12508944191E+03 0.  0.
          5    1    3    3  502    0  0.38505403443E+02 -0.11632930384E+02 -0.19693052782E+02  0.44980883623E+02  0.41800000000E+01 0.  1.
         -5    1    3    3    0  502 -0.93662915610E+02 -0.32553517678E+02  0.54549810785E+01  0.99396692562E+02  0.41800000000E+01 0.  1.
        -11    1    1    2    0    0  0.14630973405E+02  0.21789498205E+02 -0.43842526323E+02  0.51098089291E+02  0.00000000000E+00 0.  1.
         11    1    1    2    0    0  0.40526538762E+02  0.22396949856E+02  0.43961076617E+02  0.63848257331E+02  0.00000000000E+00 0. -1.
</event>
<event>
 7    1  0.3149389E-009  0.1230696E+03  0.7561462E-02  0.1238117E+00
         -2   -1    0    0    0  501 -0.00000000000E+00  0.00000000000E+00  0.24702549940E+02  0.24702549940E+02  0.00000000000E+00 0.  1.
          2   -1    0    0  501    0  0.00000000000E+00 -0.00000000000E+00 -0.83348619188E+03  0.83348619188E+03  0.00000000000E+00 0. -1.
         25    2    1    2    0    0 -0.73014992867E+02 -0.54658582777E+02 -0.38232187689E+03  0.41247707842E+03  0.12509425575E+03 0.  0.
          5    1    3    3  502    0 -0.79300096423E+02  0.18104244441E+02 -0.21218192459E+03  0.22727716665E+03  0.41800000000E+01 0. -1.
         -5    1    3    3    0  502  0.62851035554E+01 -0.72762827218E+02 -0.17013995230E+03  0.18519991177E+03  0.41800000000E+01 0. -1.
        -11    1    1    2    0    0  0.12114186410E+02  0.56505655016E+01 -0.13078622170E+01  0.13431042641E+02  0.00000000000E+00 0.  1.
         11    1    1    2    0    0  0.60900806458E+02  0.49008017275E+02 -0.42515390283E+03  0.43228062075E+03  0.00000000000E+00 0. -1.
</event>
<event>
 7    1  0.2564986E-009  0.1029323E+03  0.7561462E-02  0.1274248E+00
         -1   -1    0    0    0  501 -0.00000000000E+00  0.00000000000E+00  0.83333138710E+02  0.83333138710E+02  0.00000000000E+00 0.  1.
          1   -1    0    0  501    0  0.00000000000E+00 -0.00000000000E+00 -0.15857933140E+03  0.15857933140E+03  0.00000000000E+00 0. -1.
         25    2    1    2    0    0  0.10512884667E+02  0.63353417425E+01 -0.81959339406E+02  0.15005129081E+03  0.12508956495E+03 0.  0.
          5    1    3    3  502    0 -0.59983668456E+01  0.58907263677E+02 -0.72967186637E+02  0.94062366781E+02  0.41800000000E+01 0. -1.
         -5    1    3    3    0  502  0.16511251513E+02 -0.52571921934E+02 -0.89921527694E+01  0.55988924028E+02  0.41800000000E+01 0. -1.
        -11    1    1    2    0    0 -0.86290483842E+01 -0.48386468685E+02 -0.51058704823E+00  0.49152533271E+02  0.00000000000E+00 0. -1.
         11    1    1    2    0    0 -0.18838362831E+01  0.42051126942E+02  0.72237337646E+01  0.42708646030E+02  0.00000000000E+00 0.  1.
</event>
<event>
 7    1  0.2564986E-009  0.7542964E+02  0.7561462E-02  0.1342546E+00
          3   -1    0    0  501    0  0.00000000000E+00  0.00000000000E+00  0.19077512170E+02  0.19077512170E+02  0.00000000000E+00 0. -1.
         -3   -1    0    0    0  501 -0.00000000000E+00 -0.00000000000E+00 -0.72672046834E+03  0.72672046834E+03  0.00000000000E+00 0.  1.
         25    2    1    2    0    0 -0.49838725935E+01 -0.15892972489E+02 -0.54258310062E+03  0.55706720625E+03  0.12510006255E+03 0.  0.
          5    1    3    3  502    0  0.29927755198E+02 -0.13755968761E+02 -0.34925013892E+02  0.48188444706E+02  0.41800000000E+01 0.  1.
         -5    1    3    3    0  502 -0.34911627792E+02 -0.21370037283E+01 -0.50765808672E+03  0.50887876155E+03  0.41800000000E+01 0.  1.
        -11    1    1    2    0    0 -0.31866706055E+02 -0.14168553448E+02 -0.31639703993E+02  0.47088275933E+02  0.00000000000E+00 0.  1.
         11    1    1    2    0    0  0.36850578648E+02  0.30061525937E+02 -0.13342015156E+03  0.14164249832E+03  0.00000000000E+00 0. -1.
</event>
<event>
 7    1  0.2564986E-009  0.8124702E+02  0.7561462E-02  0.1325549E+00
         -1   -1    0    0    0  501 -0.00000000000E+00  0.00000000000E+00  0.12230721956E+03  0.12230721956E+03  0.00000000000E+00 0.  1.
          1   -1    0    0  501    0  0.00000000000E+00 -0.00000000000E+00 -0.35103073995E+03  0.35103073995E+03  0.00000000000E+00 0. -1.
         25    2    1    2    0    0 -0.11769401364E+01  0.28415064854E+02 -0.31866217178E+03  0.34351387319E+03  0.12508956891E+03 0.  0.
          5    1    3    3  502    0 -0.34545984893E+02  0.94455795003E+01 -0.29712013844E+03  0.29930000520E+03  0.41800000000E+01 0. -1.
         -5    1    3    3    0  502  0.33369044757E+02  0.18969485353E+02 -0.21542033345E+02  0.44213867996E+02  0.41800000000E+01 0. -1.
        -11    1    1    2    0    0  0.39505010461E+02 -0.29782233103E+02  0.27652234632E+02  0.56676920702E+02  0.00000000000E+00 0. -1.
         11    1    1    2    0    0 -0.38328070325E+02  0.13671682497E+01  0.62286416768E+02  0.73147165616E+02  0.00000000000E+00 0.  1.
</event>
<event>
 7    1  0.2564986E-009  0.1079247E+03  0.7561462E-02  0.1264462E+00
          3   -1    0    0  501    0  0.00000000000E+00  0.00000000000E+00  0.15119043861E+02  0.15119043861E+02  0.00000000000E+00 0. -1.
         -3   -1    0    0    0  501 -0.00000000000E+00 -0.00000000000E+00 -0.79311535941E+03  0.79311535941E+03  0.00000000000E+00 0.  1.
         25    2    1    2    0    0  0.13761417492E+02  0.11948814930E+02 -0.48374910299E+03  0.49999271631E+03  0.12508945170E+03 0.  0.
          5    1    3    3  502    0  0.49570962452E+02 -0.38029340173E+02 -0.19764577413E+03  0.20732784537E+03  0.41800000000E+01 0.  1.
         -5    1    3    3    0  502 -0.35809544960E+02  0.49978155103E+02 -0.28610332886E+03  0.29266487094E+03  0.41800000000E+01 0.  1.
        -11    1    1    2    0    0  0.39237992395E+01 -0.49733571378E+02 -0.14964900810E+03  0.15774552275E+03  0.00000000000E+00 0.  1.
         11    1    1    2    0    0 -0.17685216732E+02  0.37784756448E+02 -0.14459820447E+03  0.15049616422E+03  0.00000000000E+00 0. -1.
</event>
<event>
 7    1  0.2564986E-009  0.2236514E+03  0.7561462E-02  0.1131190E+00
          1   -1    0    0  501    0  0.00000000000E+00  0.00000000000E+00  0.18289452705E+04  0.18289452705E+04  0.00000000000E+00 0. -1.
         -1   -1    0    0    0  501 -0.00000000000E+00 -0.00000000000E+00 -0.45043517997E+02  0.45043517997E+02  0.00000000000E+00 0.  1.
         25    2    1    2    0    0 -0.20135462107E+03 -0.80000104395E+01  0.14739818634E+04  0.14929427617E+04  0.12509145622E+03 0.  0.
          5    1    3    3  502    0 -0.50259571377E+02 -0.58382529579E+02  0.53633358322E+03  0.54185397402E+03  0.41800000000E+01 0.  1.
         -5    1    3    3    0  502 -0.15109504970E+03  0.50382519139E+02  0.93764828022E+03  0.95108878770E+03  0.41800000000E+01 0.  1.
        -11    1    1    2    0    0  0.39567190243E+02  0.27035235257E+02  0.12889305480E+03  0.13751322142E+03  0.00000000000E+00 0. -1.
         11    1    1    2    0    0  0.16178743083E+03 -0.19035224818E+02  0.18102683422E+03  0.24353280532E+03  0.00000000000E+00 0.  1.
</event>
<event>
 7    1  0.2564986E-009  0.1598936E+03  0.7561462E-02  0.1188817E+00
         -1   -1    0    0    0  501 -0.00000000000E+00  0.00000000000E+00  0.25422645204E+03  0.25422645204E+03  0.00000000000E+00 0.  1.
          1   -1    0    0  501    0  0.00000000000E+00 -0.00000000000E+00 -0.11864588339E+03  0.11864588339E+03  0.00000000000E+00 0. -1.
         25    2    1    2    0    0 -0.11299810593E+03  0.72065914515E+02  0.87331085855E+02  0.20307207580E+03  0.12509788742E+03 0.  0.
          5    1    3    3  502    0 -0.11541176693E+01  0.40525987403E+02  0.76001439814E+02  0.86240239427E+02  0.41800000000E+01 0.  1.
         -5    1    3    3    0  502 -0.11184398826E+03  0.31539927112E+02  0.11329646040E+02  0.11683183638E+03  0.41800000000E+01 0.  1.
        -11    1    1    2    0    0  0.23342755961E+02 -0.69218127214E+02  0.23794789814E+02  0.76825942319E+02  0.00000000000E+00 0.  1.
         11    1    1    2    0    0  0.89655349967E+02 -0.28477873012E+01  0.24454692984E+02  0.92974317309E+02  0.00000000000E+00 0. -1.
</event>
<event>
 7    1  0.2564986E-009  0.1316548E+03  0.7561462E-02  0.1225021E+00
          2   -1    0    0  501    0  0.00000000000E+00  0.00000000000E+00  0.12173103229E+03  0.12173103229E+03  0.00000000000E+00 0. -1.
         -2   -1    0    0    0  501 -0.00000000000E+00 -0.00000000000E+00 -0.20271075597E+03  0.20271075597E+03  0.00000000000E+00 0.  1.
         25    2    1    2    0    0 -0.85343021206E+02  0.55952766662E+02 -0.92453620062E+02  0.18603450804E+03  0.12508806080E+03 0.  0.
          5    1    3    3  502    0 -0.51113740114E+02 -0.35362913901E+02 -0.23742481420E+02  0.66665792818E+02  0.41800000000E+01 0.  1.
         -5    1    3    3    0  502 -0.34229281091E+02  0.91315680563E+02 -0.68711138643E+02  0.11936871522E+03  0.41800000000E+01 0.  1.
        -11    1    1    2    0    0  0.33149450717E+02 -0.31644706184E+02 -0.40261270783E+02  0.61001995355E+02  0.00000000000E+00 0.  1.
         11    1    1    2    0    0  0.52193570489E+02 -0.24308060479E+02  0.51735167163E+02  0.77405284871E+02  0.00000000000E+00 0. -1.
</event>
<event>
 7    1  0.2564986E-009  0.1547047E+03  0.7561462E-02  0.1194808E+00
          2   -1    0    0  501    0  0.00000000000E+00  0.00000000000E+00  0.10501340333E+03  0.10501340333E+03  0.00000000000E+00 0. -1.
         -2   -1    0    0    0  501 -0.00000000000E+00 -0.00000000000E+00 -0.32241277741E+03  0.32241277741E+03  0.00000000000E+00 0.  1.
         25    2    1    2    0    0  0.14363370822E+02  0.13372370934E+03 -0.42953895714E+02  0.18862888521E+03  0.12508989695E+03 0.  0.
          5    1    3    3  502    0 -0.56524667140E+01  0.14887497863E+03 -0.13421617958E+02  0.14964398374E+03  0.41800000000E+01 0.  1.
         -5    1    3    3    0  502  0.20015837536E+02 -0.15151269288E+02 -0.29532277756E+02  0.38984901472E+02  0.41800000000E+01 0.  1.
        -11    1    1    2    0    0  0.50493933900E+00 -0.41627767592E+02 -0.12797332022E+03  0.13457450236E+03  0.00000000000E+00 0.  1.
         11    1    1    2    0    0 -0.14868310161E+02 -0.92095941746E+02 -0.46472158142E+02  0.10422279317E+03  0.00000000000E+00 0. -1.
</event>
<event>
 7    1  0.2564986E-009  0.1366631E+03  0.7561462E-02  0.1217891E+00
          1   -1    0    0  501    0  0.00000000000E+00  0.00000000000E+00  0.24568615632E+03  0.24568615632E+03  0.00000000000E+00 0. -1.
         -1   -1    0    0    0  501 -0.00000000000E+00 -0.00000000000E+00 -0.93900620092E+02  0.93900620092E+02  0.00000000000E+00 0.  1.
         25    2    1    2    0    0 -0.88303338768E+01 -0.99358519520E+02  0.12389166625E+03  0.20235283061E+03  0.12508969940E+03 0.  0.
          5    1    3    3  502    0 -0.60334361024E+02 -0.67221161487E+02  0.10514454468E+03  0.13867864777E+03  0.41800000000E+01 0.  1.
         -5    1    3    3    0  502  0.51504027147E+02 -0.32137358033E+02  0.18747121568E+02  0.63674182844E+02  0.41800000000E+01 0.  1.
        -11    1    1    2    0    0  0.38429744788E+02  0.38611930268E+02  0.41275395184E+02  0.68347528786E+02  0.00000000000E+00 0.  1.
         11    1    1    2    0    0 -0.29599410912E+02  0.60746589252E+02 -0.13381525201E+02  0.68886417012E+02  0.00000000000E+00 0. -1.
</event>
<event>
 7    1  0.2564986E-009  0.1666567E+03  0.7561462E-02  0.1181380E+00
         -2   -1    0    0    0  501 -0.00000000000E+00  0.00000000000E+00  0.34046204869E+02  0.34046204869E+02  0.00000000000E+00 0.  1.
          2   -1    0    0  501    0  0.00000000000E+00 -0.00000000000E+00 -0.19531288029E+04  0.19531288029E+04  0.00000000000E+00 0. -1.
         25    2    1    2    0    0 -0.61121240937E+02 -0.14666491409E+03 -0.16452405190E+04  0.16576219868E+04  0.12509149585E+03 0.  0.
          5    1    3    3  502    0 -0.35496717221E+02 -0.83586477693E+02 -0.38700243711E+03  0.39753625610E+03  0.41800000000E+01 0. -1.
         -5    1    3    3    0  502 -0.25624523715E+02 -0.63078436396E+02 -0.12582380819E+04  0.12600857306E+04  0.41800000000E+01 0. -1.
        -11    1    1    2    0    0  0.67588741313E+02  0.70176917589E+02 -0.20267129307E+03  0.22487483351E+03  0.00000000000E+00 0. -1.
         11    1    1    2    0    0 -0.64675003760E+01  0.76487996500E+02 -0.71170785903E+02  0.10467818749E+03  0.00000000000E+00 0.  1.
</event>
<event>
 7    1  0.2564986E-009  0.1234355E+03  0.7561462E-02  0.1237535E+00
          4   -1    0    0  501    0  0.00000000000E+00  0.00000000000E+00  0.96030957571E+02  0.96030957571E+02  0.00000000000E+00 0. -1.
         -4   -1    0    0    0  501 -0.00000000000E+00 -0.00000000000E+00 -0.22822002982E+03  0.22822002982E+03  0.00000000000E+00 0.  1.
         25    2    1    2    0    0 -0.71245030705E+02 -0.53038198810E+02 -0.22282615768E+02  0.15502609881E+03  0.12509065278E+03 0.  0.
          5    1    3    3  502    0 -0.28964246106E+02 -0.90924116796E+02 -0.22364640478E+02  0.98100826252E+02  0.41800000000E+01 0.  1.
         -5    1    3    3    0  502 -0.42280784598E+02  0.37885917986E+02  0.82024709676E-01  0.56925272559E+02  0.41800000000E+01 0.  1.
        -11    1    1    2    0    0  0.21663421760E+02  0.35972559030E+02 -0.10896914559E+03  0.11678015044E+03  0.00000000000E+00 0.  1.
         11    1    1    2    0    0  0.49581608944E+02  0.17065639780E+02 -0.93731088615E+00  0.52444738138E+02  0.00000000000E+00 0. -1.
</event>
<event>
 7    1  0.2564986E-009  0.1230059E+03  0.7561462E-02  0.1238219E+00
          1   -1    0    0  501    0  0.00000000000E+00  0.00000000000E+00  0.14514671267E+03  0.14514671267E+03  0.00000000000E+00 0. -1.
         -1   -1    0    0    0  501 -0.00000000000E+00 -0.00000000000E+00 -0.10712310895E+03  0.10712310895E+03  0.00000000000E+00 0.  1.
         25    2    1    2    0    0  0.54721825711E+02 -0.15739359270E+02  0.13962618641E+01  0.13745521366E+03  0.12509908304E+03 0.  0.
          5    1    3    3  502    0  0.55796748081E+02 -0.66268604922E+02  0.38660682371E+00  0.86731925838E+02  0.41800000000E+01 0.  1.
         -5    1    3    3    0  502 -0.10749223699E+01  0.50529245653E+02  0.10096550404E+01  0.50723287823E+02  0.41800000000E+01 0.  1.
        -11    1    1    2    0    0 -0.73966612946E+02  0.34566531319E+02  0.24154093781E+02  0.85142968967E+02  0.00000000000E+00 0.  1.
         11    1    1    2    0    0  0.19244787234E+02 -0.18827172049E+02  0.12473248067E+02  0.29671638991E+02  0.00000000000E+00 0. -1.
</event>
<event>
 7    1  0.2564986E-009  0.1785008E+03  0.7561462E-02  0.1169262E+00
          2   -1    0    0  501    0  0.00000000000E+00  0.00000000000E+00  0.16468432264E+04  0.16468432264E+04  0.00000000000E+00 0.  1.
         -2   -1    0    0    0  501 -0.00000000000E+00 -0.00000000000E+00 -0.26366372744E+02  0.26366372744E+02  0.00000000000E+00 0. -1.
         25    2    1    2    0    0 -0.11565429174E+03  0.11942847446E+03  0.59442695003E+03  0.62978517758E+03  0.12508755043E+03 0.  0.
          5    1    3    3  502    0 -0.93285254084E+02  0.83572988961E+02  0.56345823329E+03  0.57722546390E+03  0.41800000000E+01 0. -1.
         -5    1    3    3    0  502 -0.22369037653E+02  0.35855485498E+02  0.30968716738E+02  0.52559713681E+02  0.41800000000E+01 0. -1.
        -11    1    1    2    0    0  0.61513546759E+02 -0.39045757272E+01  0.36683751284E+03  0.37197973463E+03  0.00000000000E+00 0.  1.
         11    1    1    2    0    0  0.54140744979E+02 -0.11552389873E+03  0.65921239082E+03  0.67144468696E+03  0.00000000000E+00 0. -1.
</event>
<event>
 7    1  0.2564986E-009  0.9984644E+02  0.7561462E-02  0.1280619E+00
          2   -1    0    0  501    0  0.00000000000E+00  0.00000000000E+00  0.52241694231E+03  0.52241694231E+03  0.00000000000E+00 0.  1.
         -2   -1    0    0    0  501 -0.00000000000E+00 -0.00000000000E+00 -0.39871436916E+02  0.39871436916E+02  0.00000000000E+00 0. -1.
         25    2    1    2    0    0 -0.90754867652E+02 -0.26917566088E+02  0.29901875704E+03  0.33766933583E+03  0.12508941573E+03 0.  0.
          5    1    3    3  502    0 -0.82899031651E+02 -0.73798032781E+01  0.73450656170E+02  0.11108187177E+03  0.41800000000E+01 0. -1.
         -5    1    3    3    0  502 -0.78558360016E+01 -0.19537762809E+02  0.22556810087E+03  0.22658746405E+03  0.41800000000E+01 0. -1.
        -11    1    1    2    0    0  0.43212260547E+02  0.16256814279E+02  0.16685143933E+03  0.17312130510E+03  0.00000000000E+00 0.  1.
         11    1    1    2    0    0  0.47542607105E+02  0.10660751809E+02  0.16675309025E+02  0.51497738305E+02  0.00000000000E+00 0. -1.
</event>
<event>
 7    1  0.2564986E-009  0.1299943E+03  0.7561462E-02  0.1227464E+00
         -2   -1    0    0    0  501 -0.00000000000E+00  0.00000000000E+00  0.16018256792E+03  0.16018256792E+03  0.00000000000E+00 0. -1.
          2   -1    0    0  501    0  0.00000000000E+00 -0.00000000000E+00 -0.14285494655E+03  0.14285494655E+03  0.00000000000E+00 0.  1.
         25    2    1    2    0    0  0.19965014588E+02 -0.97546336550E+02 -0.24168456549E+02  0.16169477930E+03  0.12508875960E+03 0.  0.
          5    1    3    3  502    0  0.61676072788E+00 -0.10621101293E+03 -0.58349073634E+02  0.12125694394E+03  0.41800000000E+01 0.  1.
         -5    1    3    3    0  502  0.19348253860E+02  0.86646763761E+01  0.34180617085E+02  0.40437835358E+02  0.41800000000E+01 0.  1.
        -11    1    1    2    0    0  0.32196981147E+02  0.59046308389E+02  0.35988543606E+02  0.76277699233E+02  0.00000000000E+00 0.  1.
         11    1    1    2    0    0 -0.52161995735E+02  0.38500028161E+02  0.55075343058E+01  0.65065035937E+02  0.00000000000E+00 0. -1.
</event>
<event>
 7    1  0.2564986E-009  0.1094241E+03  0.7561462E-02  0.1261640E+00
          2   -1    0    0  501    0  0.00000000000E+00  0.00000000000E+00  0.35924317196E+03  0.35924317196E+03  0.00000000000E+00 0.  1.
         -2   -1    0    0    0  501 -0.00000000000E+00 -0.00000000000E+00 -0.70409062393E+02  0.70409062393E+02  0.00000000000E+00 0. -1.
         25    2    1    2    0    0 -0.58846760970E+02 -0.31393391782E+02  0.28427018293E+03  0.31765615548E+03  0.12508960743E+03 0.  0.
          5    1    3    3  502    0 -0.43100430870E+02 -0.67740014558E+02  0.96001806079E+02  0.12522050904E+03  0.41800000000E+01 0.  1.
         -5    1    3    3    0  502 -0.15746330100E+02  0.36346622777E+02  0.18826837685E+03  0.19243564644E+03  0.41800000000E+01 0.  1.
        -11    1    1    2    0    0  0.55479988905E+02  0.53014984894E+02 -0.19797494784E+02  0.79249975343E+02  0.00000000000E+00 0.  1.
         11    1    1    2    0    0  0.33667720657E+01 -0.21621593112E+02  0.24361421423E+02  0.32746103533E+02  0.00000000000E+00 0. -1.
</event>
<event>
 7    1  0.2564986E-009  0.1300272E+03  0.7561462E-02  0.1227415E+00
          2   -1    0    0  501    0  0.00000000000E+00  0.00000000000E+00  0.41419590123E+03  0.41419590123E+03  0.00000000000E+00 0. -1.
         -2   -1    0    0    0  501 -0.00000000000E+00 -0.00000000000E+00 -0.57334353709E+02  0.57334353709E+02  0.00000000000E+00 0.  1.
         25    2    1    2    0    0  0.98334355478E+01  0.10071144049E+03  0.12906763189E+03  0.20626523038E+03  0.12508957176E+03 0.  0.
          5    1    3    3  502    0 -0.23260675818E+02 -0.18656048143E+02  0.52674199671E+02  0.60672488681E+02  0.41800000000E+01 0. -1.
         -5    1    3    3    0  502  0.33094111366E+02  0.11936748864E+03  0.76393432216E+02  0.14559274170E+03  0.41800000000E+01 0. -1.
        -11    1    1    2    0    0 -0.20155936973E+02 -0.44485805145E+02  0.19131893329E+03  0.19745425518E+03  0.00000000000E+00 0. -1.
         11    1    1    2    0    0  0.10322501425E+02 -0.56225635349E+02  0.36474982345E+02  0.67810769374E+02  0.00000000000E+00 0.  1.
</event>
<event>
 7    1  0.2564986E-009  0.2259750E+03  0.7561462E-02  0.1129505E+00
          2   -1    0    0  501    0  0.00000000000E+00  0.00000000000E+00  0.49002919628E+03  0.49002919628E+03  0.00000000000E+00 0.  1.
         -2   -1    0    0    0  501 -0.00000000000E+00 -0.00000000000E+00 -0.11981318864E+03  0.11981318864E+03  0.00000000000E+00 0. -1.
         25    2    1    2    0    0  0.15153031270E+03  0.14275366449E+03  0.25319971113E+03  0.35085382082E+03  0.12509302729E+03 0.  0.
          5    1    3    3  502    0  0.10475699196E+03  0.34693789207E+02  0.63059715045E+02  0.12716794579E+03  0.41800000000E+01 0.  1.
         -5    1    3    3    0  502  0.46773320736E+02  0.10805987528E+03  0.19013999608E+03  0.22368587503E+03  0.41800000000E+01 0.  1.
        -11    1    1    2    0    0 -0.14974188793E+03 -0.98118632692E+02  0.11780986348E+03  0.21431066939E+03  0.00000000000E+00 0.  1.
         11    1    1    2    0    0 -0.17884247637E+01 -0.44635031799E+02 -0.79356696637E+00  0.44677894706E+02  0.00000000000E+00 0. -1.
</event>
<event>
 7    1  0.2564986E-009  0.1490449E+03  0.7561462E-02  0.1201652E+00
          1   -1    0    0  501    0  0.00000000000E+00  0.00000000000E+00  0.11756177320E+04  0.11756177320E+04  0.00000000000E+00 0. -1.
         -1   -1    0    0    0  501 -0.00000000000E+00 -0.00000000000E+00 -0.23694171111E+02  0.23694171111E+02  0.00000000000E+00 0.  1.
         25    2    1    2    0    0 -0.12201620435E+03  0.41731345157E+01  0.74163255453E+03  0.76195283428E+03  0.12509159266E+03 0.  0.
          5    1    3    3  502    0 -0.12250172854E+03  0.44141353327E+02  0.48501366255E+03  0.50220599143E+03  0.41800000000E+01 0.  1.
         -5    1    3    3    0  502  0.48552419922E+00 -0.39968218812E+02  0.25661889198E+03  0.25974684285E+03  0.41800000000E+01 0.  1.
        -11    1    1    2    0    0  0.65017390737E+02 -0.20772450526E+02  0.33287482388E+03  0.33980053586E+03  0.00000000000E+00 0. -1.
         11    1    1    2    0    0  0.56998813608E+02  0.16599316010E+02  0.77416182462E+02  0.97558532952E+02  0.00000000000E+00 0.  1.
</event>
<event>
 7    1  0.2564986E-009  0.1053364E+03  0.7561462E-02  0.1269458E+00
         -1   -1    0    0    0  501 -0.00000000000E+00  0.00000000000E+00  0.14546276523E+03  0.14546276523E+03  0.00000000000E+00 0.  1.
          1   -1    0    0  501    0  0.00000000000E+00 -0.00000000000E+00 -0.83142018346E+02  0.83142018346E+02  0.00000000000E+00 0. -1.
         25    2    1    2    0    0  0.77481706693E+01 -0.19583367895E+02  0.40166839370E+02  0.13304677396E+03  0.12507808213E+03 0.  0.
          5    1    3    3  502    0 -0.22169453373E+02  0.44941985894E+02 -0.18738303788E+01  0.50321470559E+02  0.41800000000E+01 0.  1.
         -5    1    3    3    0  502  0.29917624042E+02 -0.64525353789E+02  0.42040669749E+02  0.82725303401E+02  0.41800000000E+01 0.  1.
        -11    1    1    2    0    0  0.35070726045E+02 -0.10731611462E+02  0.22623046510E+02  0.43092058935E+02  0.00000000000E+00 0.  1.
         11    1    1    2    0    0 -0.42818896715E+02  0.30314979357E+02 -0.46913899743E+00  0.52465950679E+02  0.00000000000E+00 0. -1.
</event>
<event>
 7    1  0.2564986E-009  0.1709170E+03  0.7561462E-02  0.1176895E+00
          1   -1    0    0  501    0  0.00000000000E+00  0.00000000000E+00  0.23623444871E+03  0.23623444871E+03  0.00000000000E+00 0. -1.
         -1   -1    0    0    0  501 -0.00000000000E+00 -0.00000000000E+00 -0.27950737726E+03  0.27950737726E+03  0.00000000000E+00 0.  1.
         25    2    1    2    0    0  0.10371859158E+03 -0.13514636192E+03  0.13638568843E+03  0.25153675098E+03  0.12509035016E+03 0.  0.
          5    1    3    3  502    0  0.68982613476E+01 -0.10051988492E+02  0.83802463672E+02  0.84787698399E+02  0.41800000000E+01 0.  1.
         -5    1    3    3    0  502  0.96820330237E+02 -0.12509437343E+03  0.52583224763E+02  0.16674905258E+03  0.41800000000E+01 0.  1.
        -11    1    1    2    0    0 -0.52357747795E+02  0.59322497791E+02 -0.14706044420E+03  0.16699481054E+03  0.00000000000E+00 0.  1.
         11    1    1    2    0    0 -0.51360843790E+02  0.75823864129E+02 -0.32598172782E+02  0.97210264453E+02  0.00000000000E+00 0. -1.
</event>
<event>
 7    1  0.2564986E-009  0.1012353E+03  0.7561462E-02  0.1277720E+00
          2   -1    0    0  501    0  0.00000000000E+00  0.00000000000E+00  0.60141812331E+02  0.60141812331E+02  0.00000000000E+00 0. -1.
         -2   -1    0    0    0  501 -0.00000000000E+00 -0.00000000000E+00 -0.27805492132E+03  0.27805492132E+03  0.00000000000E+00 0.  1.
         25    2    1    2    0    0 -0.40697172074E+02 -0.13720463035E+02 -0.19246826984E+03  0.23352974606E+03  0.12509035326E+03 0.  0.
          5    1    3    3  502    0 -0.15423728552E+01 -0.48323914209E+02 -0.16947753595E+03  0.17628864736E+03  0.41800000000E+01 0.  1.
         -5    1    3    3    0  502 -0.39154799219E+02  0.34603451174E+02 -0.22990733892E+02  0.57241098696E+02  0.41800000000E+01 0.  1.
        -11    1    1    2    0    0  0.39470020182E+02 -0.35018999612E+02 -0.13815956205E+02  0.54544417431E+02  0.00000000000E+00 0.  1.
         11    1    1    2    0    0  0.12271518923E+01  0.48739462647E+02 -0.11628882944E+02  0.50122570160E+02  0.00000000000E+00 0. -1.
</event>
<event>
 7    1  0.2564986E-009  0.9482665E+02  0.7561462E-02  0.1291567E+00
          1   -1    0    0  501    0  0.00000000000E+00  0.00000000000E+00  0.22360991747E+03  0.22360991747E+03  0.00000000000E+00 0. -1.
         -1   -1    0    0    0  501 -0.00000000000E+00 -0.00000000000E+00 -0.77713771642E+02  0.77713771642E+02  0.00000000000E+00 0.  1.
         25    2    1    2    0    0 -0.32888005682E+02  0.50273252864E+02  0.27917082258E+02  0.14154823130E+03  0.12509003729E+03 0.  0.
          5    1    3    3  502    0 -0.39493855455E+02  0.72125164438E+02  0.60051738158E+02  0.10190921263E+03  0.41800000000E+01 0. -1.
         -5    1    3    3    0  502  0.66058497730E+01 -0.21851911574E+02 -0.32134655900E+02  0.39639018662E+02  0.41800000000E+01 0. -1.
        -11    1    1    2    0    0  0.92917666108E+00 -0.52090115350E+02  0.18520265251E+02  0.55292347675E+02  0.00000000000E+00 0.  1.
         11    1    1    2    0    0  0.31958829021E+02  0.18168624865E+01  0.99458798319E+02  0.10448311014E+03  0.00000000000E+00 0. -1.
</event>
<event>
 7    1  0.2564986E-009  0.9622271E+02  0.7561462E-02  0.1288446E+00
          1   -1    0    0  501    0  0.00000000000E+00  0.00000000000E+00  0.15283077261E+03  0.15283077261E+03  0.00000000000E+00 0. -1.
         -1   -1    0    0    0  501 -0.00000000000E+00 -0.00000000000E+00 -0.99604645906E+02  0.99604645906E+02  0.00000000000E+00 0.  1.
         25    2    1    2    0    0  0.29935318161E+02 -0.16051306465E+01  0.73745190485E+02  0.14826422850E+03  0.12508088829E+03 0.  0.
          5    1    3    3  502    0  0.25523575304E+02  0.51101741311E+02  0.75994730846E+02  0.95160455956E+02  0.41800000000E+01 0. -1.
         -5    1    3    3    0  502  0.44117428568E+01 -0.52706871957E+02 -0.22495403616E+01  0.53103772544E+02  0.41800000000E+01 0. -1.
        -11    1    1    2    0    0 -0.55814835904E+02  0.48877112034E+01 -0.42286944217E+02  0.70195236869E+02  0.00000000000E+00 0. -1.
         11    1    1    2    0    0  0.25879517743E+02 -0.32825805569E+01  0.21767880440E+02  0.33975953152E+02  0.00000000000E+00 0.  1.
</event>
<event>
 7    1  0.2564986E-009  0.1036016E+03  0.7561462E-02  0.1272900E+00
          2   -1    0    0  501    0  0.00000000000E+00  0.00000000000E+00  0.18490692423E+03  0.18490692423E+03  0.00000000000E+00 0. -1.
         -2   -1    0    0    0  501 -0.00000000000E+00 -0.00000000000E+00 -0.72387834892E+02  0.72387834892E+02  0.00000000000E+00 0.  1.
         25    2    1    2    0    0 -0.35459332517E+02  0.14290191056E+02  0.83710323264E+02  0.15529516993E+03  0.12509035838E+03 0.  0.
          5    1    3    3  502    0  0.52933619386E+01  0.54744583854E+02  0.18168080506E+01  0.55188425720E+02  0.41800000000E+01 0.  1.
         -5    1    3    3    0  502 -0.40752694455E+02 -0.40454392798E+02  0.81893515214E+02  0.10010674421E+03  0.41800000000E+01 0.  1.
        -11    1    1    2    0    0  0.12734200337E+02  0.36591675918E+02 -0.10896349105E+01  0.38759487986E+02  0.00000000000E+00 0.  1.
         11    1    1    2    0    0  0.22725132180E+02 -0.50881866974E+02  0.29898400986E+02  0.63240101208E+02  0.00000000000E+00 0. -1.
</event>
<event>
 7    1  0.2564986E-009  0.1255503E+03  0.7561462E-02  0.1234212E+00
         -1   -1    0    0    0  501 -0.00000000000E+00  0.00000000000E+00  0.74075241286E+02  0.74075241286E+02  0.00000000000E+00 0.  1.
          1   -1    0    0  501    0  0.00000000000E+00 -0.00000000000E+00 -0.33812028125E+03  0.33812028125E+03  0.00000000000E+00 0. -1.
         25    2    1    2    0    0  0.10992299892E+03 -0.92476532443E+00 -0.10054872813E+03  0.19452432568E+03  0.12508295516E+03 0.  0.
          5    1    3    3  502    0  0.20203565420E+02  0.32018547033E+01 -0.10248690071E+03  0.10459193633E+03  0.41800000000E+01 0.  1.
         -5    1    3    3    0  502  0.89719433501E+02 -0.41266200277E+01  0.19381725815E+01  0.89932389347E+02  0.41800000000E+01 0.  1.
        -11    1    1    2    0    0 -0.40994883818E+02 -0.42336024279E+02 -0.46069325638E+02  0.74801752759E+02  0.00000000000E+00 0.  1.
         11    1    1    2    0    0 -0.68928115103E+02  0.43260789603E+02 -0.11742698620E+03  0.14286944410E+03  0.00000000000E+00 0. -1.
</event>
<event>
 7    1  0.2564986E-009  0.2178960E+03  0.7561462E-02  0.1135461E+00
         -2   -1    0    0    0  501 -0.00000000000E+00  0.00000000000E+00  0.52155794391E+02  0.52155794391E+02  0.00000000000E+00 0.  1.
          2   -1    0    0  501    0  0.00000000000E+00 -0.00000000000E+00 -0.10297645560E+04  0.10297645560E+04  0.00000000000E+00 0. -1.
         25    2    1    2    0    0 -0.82879550813E+02  0.18627023708E+03 -0.48631548757E+03  0.54195379485E+03  0.12508213756E+03 0.  0.
          5    1    3    3  502    0 -0.86056569069E+02  0.58765665479E+02 -0.15411953550E+03  0.18608987115E+03  0.41800000000E+01 0.  1.
         -5    1    3    3    0  502  0.31770182563E+01  0.12750457160E+03 -0.33219595207E+03  0.35586392371E+03  0.41800000000E+01 0.  1.
        -11    1    1    2    0    0  0.38498588364E+02 -0.83816671492E+02 -0.11478274340E+03  0.14724963127E+03  0.00000000000E+00 0. -1.
         11    1    1    2    0    0  0.44380962449E+02 -0.10245356559E+03 -0.37651053059E+03  0.39271692422E+03  0.00000000000E+00 0.  1.
</event>
<event>
 7    1  0.2564986E-009  0.2195626E+03  0.7561462E-02  0.1134210E+00
          2   -1    0    0  501    0  0.00000000000E+00  0.00000000000E+00  0.30443221063E+02  0.30443221063E+02  0.00000000000E+00 0. -1.
         -2   -1    0    0    0  501 -0.00000000000E+00 -0.00000000000E+00 -0.18082151165E+04  0.18082151165E+04  0.00000000000E+00 0.  1.
         25    2    1    2    0    0  0.11049850865E+03 -0.17185193656E+03 -0.78617003108E+03  0.82185849629E+03  0.12508022083E+03 0.  0.
          5    1    3    3  502    0  0.55722392359E+02 -0.16704244703E+03 -0.49237546108E+03  0.52293329517E+03  0.41800000000E+01 0.  1.
         -5    1    3    3    0  502  0.54776116292E+02 -0.48094895292E+01 -0.29379457000E+03  0.29892520112E+03  0.41800000000E+01 0.  1.
        -11    1    1    2    0    0 -0.99678538704E+02  0.12564708574E+03 -0.89400498294E+03  0.90827744151E+03  0.00000000000E+00 0. -1.
         11    1    1    2    0    0 -0.10819969947E+02  0.46204850818E+02 -0.97596881454E+02  0.10852239980E+03  0.00000000000E+00 0.  1.
</event>
<event>
 7    1  0.2564986E-009  0.1917465E+03  0.7561462E-02  0.1156895E+00
          2   -1    0    0  501    0  0.00000000000E+00  0.00000000000E+00  0.24924530762E+03  0.24924530762E+03  0.00000000000E+00 0. -1.
         -2   -1    0    0    0  501 -0.00000000000E+00 -0.00000000000E+00 -0.20534182318E+03  0.20534182318E+03  0.00000000000E+00 0.  1.
         25    2    1    2    0    0  0.16832348255E+03 -0.63429982684E+02 -0.59897628216E+02  0.22713892930E+03  0.12509280497E+03 0.  0.
          5    1    3    3  502    0  0.82201361293E+02 -0.80249678924E+02  0.92712425447E+01  0.11532780716E+03  0.41800000000E+01 0. -1.
         -5    1    3    3    0  502  0.86122121255E+02  0.16819696241E+02 -0.69168870761E+02  0.11181112214E+03  0.41800000000E+01 0. -1.
        -11    1    1    2    0    0 -0.14629960509E+03  0.61089845368E+02  0.45287534985E+02  0.16488330565E+03  0.00000000000E+00 0.  1.
         11    1    1    2    0    0 -0.22023877460E+02  0.23401373158E+01  0.58513577669E+02  0.62564895850E+02  0.00000000000E+00 0. -1.
</event>
<event>
 7    1  0.2564986E-009  0.7963722E+02  0.7561462E-02  0.1330084E+00
         -1   -1    0    0    0  501 -0.00000000000E+00  0.00000000000E+00  0.54716832978E+02  0.54716832978E+02  0.00000000000E+00 0.  1.
          1   -1    0    0  501    0  0.00000000000E+00 -0.00000000000E+00 -0.22432557978E+03  0.22432557978E+03  0.00000000000E+00 0. -1.
         25    2    1    2    0    0 -0.28654872111E+02  0.28086227323E+01 -0.10646144465E+03  0.16676366671E+03  0.12508833391E+03 0.  0.
          5    1    3    3  502    0 -0.70452163163E+02  0.30704646308E+02 -0.54152586329E+02  0.94107691531E+02  0.41800000000E+01 0.  1.
         -5    1    3    3    0  502  0.41797291052E+02 -0.27896023575E+02 -0.52308858325E+02  0.72655975184E+02  0.41800000000E+01 0.  1.
        -11    1    1    2    0    0  0.14541603207E+02 -0.82953392704E+01 -0.84477443074E+02  0.86120318542E+02  0.00000000000E+00 0. -1.
         11    1    1    2    0    0  0.14113268904E+02  0.54867165381E+01  0.21330140926E+02  0.26158427503E+02  0.00000000000E+00 0.  1.
</event>
<event>
 7    1  0.2564986E-009  0.8878015E+02  0.7561462E-02  0.1305833E+00
         -1   -1    0    0    0  501 -0.00000000000E+00  0.00000000000E+00  0.65321714405E+02  0.65321714405E+02  0.00000000000E+00 0.  1.
          1   -1    0    0  501    0  0.00000000000E+00 -0.00000000000E+00 -0.21163647171E+03  0.21163647171E+03  0.00000000000E+00 0. -1.
         25    2    1    2    0    0 -0.27757235913E+02 -0.34875735612E+02 -0.94508566060E+02  0.16299082413E+03  0.12508940247E+03 0.  0.
          5    1    3    3  502    0 -0.40544714851E+02  0.39558616243E+02 -0.34686975209E+02  0.66553862927E+02  0.41800000000E+01 0.  1.
         -5    1    3    3    0  502  0.12787478938E+02 -0.74434351855E+02 -0.59821590851E+02  0.96436961200E+02  0.41800000000E+01 0.  1.
        -11    1    1    2    0    0  0.59641970283E+01  0.12686883853E+02  0.26351776385E+02  0.29848698242E+02  0.00000000000E+00 0.  1.
         11    1    1    2    0    0  0.21793038884E+02  0.22188851758E+02 -0.78157967632E+02  0.84118663747E+02  0.00000000000E+00 0. -1.
</event>
<event>
 7    1  0.2564986E-009  0.1045488E+03  0.7561462E-02  0.1271011E+00
          2   -1    0    0  501    0  0.00000000000E+00  0.00000000000E+00  0.53475787159E+02  0.53475787159E+02  0.00000000000E+00 0. -1.
         -2   -1    0    0    0  501 -0.00000000000E+00 -0.00000000000E+00 -0.22116148741E+03  0.22116148741E+03  0.00000000000E+00 0.  1.
         25    2    1    2    0    0 -0.30198051710E+01  0.17491958665E+02 -0.97808614028E+02  0.15977102212E+03  0.12508064075E+03 0.  0.
          5    1    3    3  502    0 -0.59221407008E+02 -0.82046509307E+00 -0.21480217192E+02  0.63140481005E+02  0.41800000000E+01 0. -1.
         -5    1    3    3    0  502  0.56201601837E+02  0.18312423758E+02 -0.76328396836E+02  0.96630541117E+02  0.41800000000E+01 0. -1.
        -11    1    1    2    0    0  0.36429591140E+02 -0.36879481739E+02 -0.46997199787E+02  0.69971051670E+02  0.00000000000E+00 0.  1.
         11    1    1    2    0    0 -0.33409785969E+02  0.19387523074E+02 -0.22879886438E+02  0.44895200778E+02  0.00000000000E+00 0. -1.
</event>
<event>
 7    1  0.2564986E-009  0.1145232E+03  0.7561462E-02  0.1252416E+00
          1   -1    0    0  501    0  0.00000000000E+00  0.00000000000E+00  0.52547149112E+02  0.52547149112E+02  0.00000000000E+00 0. -1.
         -1   -1    0    0    0  501 -0.00000000000E+00 -0.00000000000E+00 -0.39839843658E+03  0.39839843658E+03  0.00000000000E+00 0.  1.
         25    2    1    2    0    0  0.60766292810E+02 -0.61784940620E+02 -0.15020847584E+03  0.21382282777E+03  0.12509074400E+03 0.  0.
          5    1    3    3  502    0 -0.30443141731E+02  0.15199297166E+01 -0.52939992191E+01  0.31218486390E+02  0.41800000000E+01 0. -1.
         -5    1    3    3    0  502  0.91209434540E+02 -0.63304870337E+02 -0.14491447662E+03  0.18260434138E+03  0.41800000000E+01 0. -1.
        -11    1    1    2    0    0 -0.26961465317E+02  0.34167119828E+02 -0.77280611084E+01  0.44204475089E+02  0.00000000000E+00 0. -1.
         11    1    1    2    0    0 -0.33804827492E+02  0.27617820792E+02 -0.18791475052E+03  0.19291828283E+03  0.00000000000E+00 0.  1.
</event>
<event>
 7    1  0.2564986E-009  0.1059919E+03  0.7561462E-02  0.1268178E+00
         -2   -1    0    0    0  501 -0.00000000000E+00  0.00000000000E+00  0.25192900524E+02  0.25192900524E+02  0.00000000000E+00 0. -1.
          2   -1    0    0  501    0  0.00000000000E+00 -0.00000000000E+00 -0.12488107298E+04  0.12488107298E+04  0.00000000000E+00 0.  1.
         25    2    1    2    0    0 -0.30346245627E+02  0.61883815554E+02 -0.10880963418E+04  0.10974295439E+04  0.12508978187E+03 0.  0.
          5    1    3    3  502    0 -0.32341695590E+02  0.94384845139E+02 -0.96051686483E+03  0.96569384604E+03  0.41800000000E+01 0. -1.
         -5    1    3    3    0  502  0.19954499625E+01 -0.32501029585E+02 -0.12757947696E+03  0.13173569784E+03  0.41800000000E+01 0. -1.
        -11    1    1    2    0    0  0.27724445231E+02 -0.13494035345E+02 -0.12260322225E+03  0.12642105821E+03  0.00000000000E+00 0.  1.
         11    1    1    2    0    0  0.26218003962E+01 -0.48389780209E+02 -0.12918265270E+02  0.50153028259E+02  0.00000000000E+00 0. -1.
</event>
<event>
 7    1  0.2564986E-009  0.1065152E+03  0.7561462E-02  0.1267163E+00
         -1   -1    0    0    0  501 -0.00000000000E+00  0.00000000000E+00  0.82787189722E+03  0.82787189722E+03  0.00000000000E+00 0.  1.
          1   -1    0    0  501    0  0.00000000000E+00 -0.00000000000E+00 -0.21709265709E+02  0.21709265709E+02  0.00000000000E+00 0. -1.
         25    2    1    2    0    0  0.52643719978E+02  0.44151898289E+02  0.54176103967E+03  0.56024359747E+03  0.12508842084E+03 0.  0.
          5    1    3    3  502    0  0.41634909025E+02 -0.17740054567E+02  0.42626733722E+03  0.42868343841E+03  0.41800000000E+01 0.  1.
         -5    1    3    3    0  502  0.11008810954E+02  0.61891952855E+02  0.11549370245E+03  0.13156015906E+03  0.41800000000E+01 0.  1.
        -11    1    1    2    0    0 -0.37253516754E+02 -0.67217197954E+02  0.12145495968E+03  0.14372641874E+03  0.00000000000E+00 0. -1.
         11    1    1    2    0    0 -0.15390203225E+02  0.23065299665E+02  0.14294663216E+03  0.14561114672E+03  0.00000000000E+00 0.  1.
</event>
<event>
 7    1  0.2564986E-009  0.1302697E+03  0.7561462E-02  0.1227056E+00
          2   -1    0    0  501    0  0.00000000000E+00  0.00000000000E+00  0.53431279572E+03  0.53431279572E+03  0.00000000000E+00 0. -1.
         -2   -1    0    0    0  501 -0.00000000000E+00 -0.00000000000E+00 -0.47181249588E+02  0.47181249588E+02  0.00000000000E+00 0.  1.
         25    2    1    2    0    0 -0.70572497426E+02 -0.93466152672E+02  0.26215210335E+03  0.31318951458E+03  0.12509015815E+03 0.  0.
          5    1    3    3  502    0 -0.10584274663E+02 -0.15909489459E+02 -0.11348940948E+02  0.22614366797E+02  0.41800000000E+01 0. -1.
         -5    1    3    3    0  502 -0.59988222763E+02 -0.77556663213E+02  0.27350104429E+03  0.29057514778E+03  0.41800000000E+01 0. -1.
        -11    1    1    2    0    0  0.34749098906E+02  0.10049596112E+03  0.13990455497E+03  0.17572769439E+03  0.00000000000E+00 0. -1.
         11    1    1    2    0    0  0.35823398520E+02 -0.70298084498E+01  0.85074887819E+02  0.92576836335E+02  0.00000000000E+00 0.  1.
</event>
<event>
 7    1  0.2564986E-009  0.1065449E+03  0.7561462E-02  0.1267105E+00
          1   -1    0    0  501    0  0.00000000000E+00  0.00000000000E+00  0.24787262043E+03  0.24787262043E+03  0.00000000000E+00 0. -1.
         -1   -1    0    0    0  501 -0.00000000000E+00 -0.00000000000E+00 -0.59190016853E+02  0.59190016853E+02  0.00000000000E+00 0.  1.
         25    2    1    2    0    0 -0.18888108837E+02  0.22246992144E+02  0.47355853300E+02  0.13689983836E+03  0.12508916654E+03 0.  0.
          5    1    3    3  502    0 -0.53660408420E+01 -0.48463960828E+02  0.42167909472E+02  0.64599960392E+02  0.41800000000E+01 0. -1.
         -5    1    3    3    0  502 -0.13522067995E+02  0.70710952971E+02  0.51879438279E+01  0.72299877968E+02  0.41800000000E+01 0. -1.
        -11    1    1    2    0    0  0.49471108762E+02  0.67056897660E+01  0.56088743177E+02  0.75088640876E+02  0.00000000000E+00 0.  1.
         11    1    1    2    0    0 -0.30582999925E+02 -0.28952681910E+02  0.85238007101E+02  0.95074158049E+02  0.00000000000E+00 0. -1.
</event>
<event>
 7    1  0.2564986E-009  0.8206967E+02  0.7561462E-02  0.1323279E+00
         -2   -1    0    0    0  501 -0.00000000000E+00  0.00000000000E+00  0.42782474994E+02  0.42782474994E+02  0.00000000000E+00 0.  1.
          2   -1    0    0  501    0  0.00000000000E+00 -0.00000000000E+00 -0.29150500995E+03  0.29150500995E+03  0.00000000000E+00 0. -1.
         25    2    1    2    0    0 -0.11375452278E+02 -0.23621393594E+02 -0.14428543842E+03  0.19275237133E+03  0.12509123775E+03 0.  0.
          5    1    3    3  502    0 -0.50773885905E+02 -0.40458982943E+02 -0.13329320042E+03  0.14832217120E+03  0.41800000000E+01 0.  1.
         -5    1    3    3    0  502  0.39398433628E+02  0.16837589349E+02 -0.10992238005E+02  0.44430200132E+02  0.41800000000E+01 0.  1.
        -11    1    1    2    0    0  0.30415018528E+02  0.81164555316E+01 -0.11160217527E+03  0.11595687012E+03  0.00000000000E+00 0. -1.
         11    1    1    2    0    0 -0.19039566250E+02  0.15504938062E+02  0.71650787351E+01  0.25578243501E+02  0.00000000000E+00 0.  1.
</event>
<event>
 7    1  0.2564986E-009  0.1109465E+03  0.7561462E-02  0.1258827E+00
         -1   -1    0    0    0  501 -0.00000000000E+00  0.00000000000E+00  0.62161569260E+03  0.62161569260E+03  0.00000000000E+00 0.  1.
          1   -1    0    0  501    0  0.00000000000E+00 -0.00000000000E+00 -0.32140864687E+02  0.32140864687E+02  0.00000000000E+00 0. -1.
         25    2    1    2    0    0 -0.35021666902E+02  0.62158656005E+02  0.19451386688E+03  0.24201835057E+03  0.12508805672E+03 0.  0.
          5    1    3    3  502    0 -0.29442685163E+01  0.75729406944E+02  0.44558562998E+02  0.88014485907E+02  0.41800000000E+01 0.  1.
         -5    1    3    3    0  502 -0.32077398386E+02 -0.13570750939E+02  0.14995530388E+03  0.15400386466E+03  0.41800000000E+01 0.  1.
        -11    1    1    2    0    0 -0.18481098310E+02 -0.53640165541E+02  0.26373986782E+03  0.26977311992E+03  0.00000000000E+00 0.  1.
         11    1    1    2    0    0  0.53502765212E+02 -0.85184904635E+01  0.13122109321E+03  0.14196508680E+03  0.00000000000E+00 0. -1.
</event>
<event>
 7    1  0.2564986E-009  0.2881234E+03  0.7561462E-02  0.1091333E+00
         -2   -1    0    0    0  501 -0.00000000000E+00  0.00000000000E+00  0.15628787895E+04  0.15628787895E+04  0.00000000000E+00 0.  1.
          2   -1    0    0  501    0  0.00000000000E+00 -0.00000000000E+00 -0.61618974565E+02  0.61618974565E+02  0.00000000000E+00 0. -1.
         25    2    1    2    0    0  0.30009469273E+02 -0.27096314670E+03  0.50238781538E+03  0.58511779466E+03  0.12509085287E+03 0.  0.
          5    1    3    3  502    0 -0.19616895989E+02  0.51169306795E+00  0.64084650239E+02  0.67152060536E+02  0.41800000000E+01 0.  1.
         -5    1    3    3    0  502  0.49626365262E+02 -0.27147483976E+03  0.43830316514E+03  0.51796573413E+03  0.41800000000E+01 0.  1.
        -11    1    1    2    0    0  0.19767024001E+02  0.10756256855E+03  0.28263517498E+03  0.30305623822E+03  0.00000000000E+00 0. -1.
         11    1    1    2    0    0 -0.49776493273E+02  0.16340057814E+03  0.71623682455E+03  0.73632373115E+03  0.00000000000E+00 0.  1.
</event>
<event>
 7    1  0.2564986E-009  0.8569993E+02  0.7561462E-02  0.1313612E+00
         -1   -1    0    0    0  501 -0.00000000000E+00  0.00000000000E+00  0.11935815087E+03  0.11935815087E+03  0.00000000000E+00 0.  1.
          1   -1    0    0  501    0  0.00000000000E+00 -0.00000000000E+00 -0.10880291856E+03  0.10880291856E+03  0.00000000000E+00 0. -1.
         25    2    1    2    0    0  0.30098738739E+02 -0.13501363684E+02 -0.75617419194E+01  0.12958823632E+03  0.12509080764E+03 0.  0.
          5    1    3    3  502    0  0.51695552576E+02 -0.60915340867E+01 -0.55573997644E+02  0.76259285060E+02  0.41800000000E+01 0. -1.
         -5    1    3    3    0  502 -0.21596813837E+02 -0.74098295975E+01  0.48012255724E+02  0.53328951258E+02  0.41800000000E+01 0. -1.
        -11    1    1    2    0    0 -0.15651662944E+02 -0.38730739232E+02  0.11645748861E+01  0.41789962300E+02  0.00000000000E+00 0. -1.
         11    1    1    2    0    0 -0.14447075795E+02  0.52232102917E+02  0.16952399347E+02  0.56782870813E+02  0.00000000000E+00 0.  1.
</event>
<event>
 7    1  0.2564986E-009  0.1105336E+03  0.7561462E-02  0.1259585E+00
          1   -1    0    0  501    0  0.00000000000E+00  0.00000000000E+00  0.99205293582E+03  0.99205293582E+03  0.00000000000E+00 0. -1.
         -1   -1    0    0    0  501 -0.00000000000E+00 -0.00000000000E+00 -0.18051895028E+02  0.18051895028E+02  0.00000000000E+00 0.  1.
         25    2    1    2    0    0 -0.68186480608E+02  0.36279360800E+02  0.49676019790E+03  0.51805781644E+03  0.12509044248E+03 0.  0.
          5    1    3    3  502    0 -0.79058792138E+02  0.13073376237E+02  0.14817325595E+03  0.16850516894E+03  0.41800000000E+01 0. -1.
         -5    1    3    3    0  502  0.10872311530E+02  0.23205984562E+02  0.34858694194E+03  0.34955264750E+03  0.41800000000E+01 0. -1.
        -11    1    1    2    0    0 -0.74937630925E+01  0.19470541631E+02  0.43586324763E+02  0.48322108636E+02  0.00000000000E+00 0.  1.
         11    1    1    2    0    0  0.75680243700E+02 -0.55749902431E+02  0.43365451813E+03  0.44372490577E+03  0.00000000000E+00 0. -1.
</event>
<event>
 7    1  0.2564986E-009  0.2107670E+03  0.7561462E-02  0.1140960E+00
          2   -1    0    0  501    0  0.00000000000E+00  0.00000000000E+00  0.64447125046E+03  0.64447125046E+03  0.00000000000E+00 0. -1.
         -2   -1    0    0    0  501 -0.00000000000E+00 -0.00000000000E+00 -0.10266672722E+03  0.10266672722E+03  0.00000000000E+00 0.  1.
         25    2    1    2    0    0  0.18897580539E+03  0.50244783599E+02  0.46352283950E+03  0.51839878874E+03  0.12508992020E+03 0.  0.
          5    1    3    3  502    0  0.17378085460E+03  0.66923423611E+02  0.45852376924E+03  0.49491418389E+03  0.41800000000E+01 0. -1.
         -5    1    3    3    0  502  0.15194950782E+02 -0.16678640012E+02  0.49990702584E+01  0.23484604858E+02  0.41800000000E+01 0.  1.
        -11    1    1    2    0    0 -0.60946460168E+02  0.22618186416E+02  0.40742802934E+02  0.76720462425E+02  0.00000000000E+00 0.  1.
         11    1    1    2    0    0 -0.12802934522E+03 -0.72862970015E+02  0.37538880808E+02  0.15201872651E+03  0.00000000000E+00 0. -1.
</event>
<event>
 7    1  0.2564986E-009  0.1543125E+03  0.7561462E-02  0.1195272E+00
         -3   -1    0    0    0  501 -0.00000000000E+00  0.00000000000E+00  0.63363541871E+02  0.63363541871E+02  0.00000000000E+00 0.  1.
          3   -1    0    0  501    0  0.00000000000E+00 -0.00000000000E+00 -0.39552947190E+03  0.39552947190E+03  0.00000000000E+00 0. -1.
         25    2    1    2    0    0 -0.95157975485E+02 -0.62899430967E+02 -0.15821573131E+03  0.23171364565E+03  0.12509043621E+03 0.  0.
          5    1    3    3  502    0 -0.43650453562E+02  0.35218939826E+02 -0.71323082277E+02  0.90830558096E+02  0.41800000000E+01 0.  1.
         -5    1    3    3    0  502 -0.51507521923E+02 -0.98118370793E+02 -0.86892649031E+02  0.14088308755E+03  0.41800000000E+01 0.  1.
        -11    1    1    2    0    0  0.11064437966E+03  0.50383546770E+02 -0.12518146989E+03  0.17450238090E+03  0.00000000000E+00 0. -1.
         11    1    1    2    0    0 -0.15486404175E+02  0.12515884198E+02 -0.48768728830E+02  0.52676987226E+02  0.00000000000E+00 0.  1.
</event>
<event>
 7    1  0.2564986E-009  0.1555372E+03  0.7561462E-02  0.1193829E+00
         -2   -1    0    0    0  501 -0.00000000000E+00  0.00000000000E+00  0.84518995248E+02  0.84518995248E+02  0.00000000000E+00 0.  1.
          2   -1    0    0  501    0  0.00000000000E+00 -0.00000000000E+00 -0.43559914045E+03  0.43559914045E+03  0.00000000000E+00 0. -1.
         25    2    1    2    0    0 -0.12788535428E+03 -0.66138109305E+02 -0.27606956387E+03  0.33554807985E+03  0.12509674839E+03 0.  0.
          5    1    3    3  502    0 -0.18230979925E+02 -0.96589624442E+01  0.10506289375E+02  0.23526978152E+02  0.41800000000E+01 0.  1.
         -5    1    3    3    0  502 -0.10965437435E+03 -0.56479146861E+02 -0.28657585324E+03  0.31202110170E+03  0.41800000000E+01 0.  1.
        -11    1    1    2    0    0  0.19841229784E+02  0.54427029092E+02 -0.39977835581E+02  0.70386101134E+02  0.00000000000E+00 0.  1.
         11    1    1    2    0    0  0.10804412450E+03  0.11711080214E+02 -0.35032745750E+02  0.11418395471E+03  0.00000000000E+00 0. -1.
</event>
<event>
 7    1  0.2564986E-009  0.1516785E+03  0.7561462E-02  0.1198426E+00
         -1   -1    0    0    0  501 -0.00000000000E+00  0.00000000000E+00  0.62479372131E+03  0.62479372131E+03  0.00000000000E+00 0.  1.
          1   -1    0    0  501    0  0.00000000000E+00 -0.00000000000E+00 -0.47814601836E+02  0.47814601836E+02  0.00000000000E+00 0. -1.
         25    2    1    2    0    0  0.73098273231E+02  0.10479761005E+03  0.22422475688E+03  0.28679369777E+03  0.12509191366E+03 0.  0.
          5    1    3    3  502    0 -0.28904577417E+01  0.57078063545E+02  0.15200966414E+02  0.59285764429E+02  0.41800000000E+01 0. -1.
         -5    1    3    3    0  502  0.75988730973E+02  0.47719546510E+02  0.20902379046E+03  0.22750793334E+03  0.41800000000E+01 0. -1.
        -11    1    1    2    0    0 -0.59667408330E+02 -0.10021680580E+02  0.13269521510E+03  0.14583776537E+03  0.00000000000E+00 0. -1.
         11    1    1    2    0    0 -0.13430864901E+02 -0.94775929475E+02  0.22005914750E+03  0.23997686000E+03  0.00000000000E+00 0.  1.
</event>
<event>
 7    1  0.2564986E-009  0.1231224E+03  0.7561462E-02  0.1238033E+00
         -2   -1    0    0    0  501 -0.00000000000E+00  0.00000000000E+00  0.18038265959E+02  0.18038265959E+02  0.00000000000E+00 0.  1.
          2   -1    0    0  501    0  0.00000000000E+00 -0.00000000000E+00 -0.10426191341E+04  0.10426191341E+04  0.00000000000E+00 0. -1.
         25    2    1    2    0    0 -0.52991927852E+00  0.71364473915E+02 -0.75591095519E+03  0.76950714102E+03  0.12508676566E+03 0.  0.
          5    1    3    3  502    0  0.40051184908E+02 -0.13468078946E+02 -0.13554411619E+03  0.14203931285E+03  0.41800000000E+01 0. -1.
         -5    1    3    3    0  502 -0.40581104186E+02  0.84832552860E+02 -0.62036683901E+03  0.62746782816E+03  0.41800000000E+01 0. -1.
        -11    1    1    2    0    0  0.37927483654E+02 -0.12542286256E+02 -0.69857999100E+02  0.80473243995E+02  0.00000000000E+00 0.  1.
         11    1    1    2    0    0 -0.37397564375E+02 -0.58822187659E+02 -0.19881191389E+03  0.21067701509E+03  0.00000000000E+00 0. -1.
</event>
<event>
 7    1  0.2564986E-009  0.8395776E+02  0.7561462E-02  0.1318181E+00
          1   -1    0    0  501    0  0.00000000000E+00  0.00000000000E+00  0.79759502985E+03  0.79759502985E+03  0.00000000000E+00 0. -1.
         -1   -1    0    0    0  501 -0.00000000000E+00 -0.00000000000E+00 -0.18987669762E+02  0.18987669762E+02  0.00000000000E+00 0.  1.
         25    2    1    2    0    0 -0.36005897803E+02  0.22332343069E+02  0.53539103362E+03  0.55143971008E+03  0.12508811593E+03 0.  0.
          5    1    3    3  502    0 -0.11454090119E+01 -0.13878859589E+02  0.89307853766E+00  0.14567247323E+02  0.41800000000E+01 0.  1.
         -5    1    3    3    0  502 -0.34860488791E+02  0.36211202658E+02  0.53449795509E+03  0.53687246276E+03  0.41800000000E+01 0.  1.
        -11    1    1    2    0    0  0.32219654318E+02  0.33789312777E+02  0.14020994148E+03  0.14777906304E+03  0.00000000000E+00 0. -1.
         11    1    1    2    0    0  0.37862434855E+01 -0.56121655846E+02  0.10300638498E+03  0.11736392649E+03  0.00000000000E+00 0.  1.
</event>
<event>
 7    1  0.2994277E-009  0.2537471E+03  0.7561462E-02  0.1110959E+00
         -2   -1    0    0    0  501 -0.00000000000E+00  0.00000000000E+00  0.83785811740E+02  0.83785811740E+02  0.00000000000E+00 0. -1.
          2   -1    0    0  501    0  0.00000000000E+00 -0.00000000000E+00 -0.94923183455E+03  0.94923183455E+03  0.00000000000E+00 0.  1.
         25    2    1    2    0    0  0.23353515765E+03  0.65553089710E+02 -0.61375349185E+03  0.67169704646E+03  0.12509075121E+03 0.  0.
          5    1    3    3  502    0  0.95674610346E+02  0.77859646926E+02 -0.19630167726E+03  0.23187836592E+03  0.41800000000E+01 0.  1.
         -5    1    3    3    0  502  0.13786054730E+03 -0.12306557216E+02 -0.41745181459E+03  0.43981868055E+03  0.41800000000E+01 0.  1.
        -11    1    1    2    0    0 -0.64050820656E+02 -0.36259803556E+02 -0.27097191264E+02  0.78431745837E+02  0.00000000000E+00 0. -1.
         11    1    1    2    0    0 -0.16948433699E+03 -0.29293286154E+02 -0.22459533969E+03  0.28288885399E+03  0.00000000000E+00 0.  1.
</event>
<event>
 7    1  0.2564986E-009  0.1972275E+03  0.7561462E-02  0.1152099E+00
          1   -1    0    0  501    0  0.00000000000E+00  0.00000000000E+00  0.37119299839E+03  0.37119299839E+03  0.00000000000E+00 0. -1.
         -1   -1    0    0    0  501 -0.00000000000E+00 -0.00000000000E+00 -0.12234369933E+03  0.12234369933E+03  0.00000000000E+00 0.  1.
         25    2    1    2    0    0 -0.15993489085E+03 -0.67605369337E+02  0.19799177815E+03  0.29154405543E+03  0.12509011459E+03 0.  0.
          5    1    3    3  502    0 -0.96217030646E+02  0.26716317187E+02  0.87017036618E+02  0.13251760506E+03  0.41800000000E+01 0.  1.
         -5    1    3    3    0  502 -0.63717860201E+02 -0.94321686524E+02  0.11097474154E+03  0.15902645037E+03  0.41800000000E+01 0.  1.
        -11    1    1    2    0    0  0.60781107561E+02  0.52486687221E+02 -0.15418804803E+02  0.81773681055E+02  0.00000000000E+00 0.  1.
         11    1    1    2    0    0  0.99153783286E+02  0.15118682116E+02  0.66276325712E+02  0.12021896123E+03  0.00000000000E+00 0. -1.
</event>
<event>
 7    1  0.2564986E-009  0.1532696E+03  0.7561462E-02  0.1196512E+00
         -2   -1    0    0    0  501 -0.00000000000E+00  0.00000000000E+00  0.72001169264E+02  0.72001169264E+02  0.00000000000E+00 0.  1.
          2   -1    0    0  501    0  0.00000000000E+00 -0.00000000000E+00 -0.33960863115E+03  0.33960863115E+03  0.00000000000E+00 0. -1.
         25    2    1    2    0    0 -0.11245870155E+03 -0.25974689471E+02 -0.13249830092E+03  0.21569575510E+03  0.12508882832E+03 0.  0.
          5    1    3    3  502    0  0.19301765261E+02  0.17877548546E+02 -0.42515283925E+02  0.50171572144E+02  0.41800000000E+01 0.  1.
         -5    1    3    3    0  502 -0.13176046681E+03 -0.43852238017E+02 -0.89983016997E+02  0.16552418295E+03  0.41800000000E+01 0.  1.
        -11    1    1    2    0    0  0.69704846810E+02  0.55425968222E+02 -0.95767542982E+02  0.13077547901E+03  0.00000000000E+00 0. -1.
         11    1    1    2    0    0  0.42753854741E+02 -0.29451278751E+02 -0.39341617985E+02  0.65138566310E+02  0.00000000000E+00 0.  1.
</event>
<event>
 7    1  0.2564986E-009  0.1118805E+03  0.7561462E-02  0.1257127E+00
          2   -1    0    0  501    0  0.00000000000E+00  0.00000000000E+00  0.24218146976E+03  0.24218146976E+03  0.00000000000E+00 0. -1.
         -2   -1    0    0    0  501 -0.00000000000E+00 -0.00000000000E+00 -0.11230373765E+03  0.11230373765E+03  0.00000000000E+00 0.  1.
         25    2    1    2    0    0 -0.35195102349E+02 -0.33590541346E+02  0.19963625304E+03  0.24056122734E+03  0.12509216952E+03 0.  0.
          5    1    3    3  502    0  0.40946251669E+02  0.14623790844E+02  0.57495056911E+02  0.72205295883E+02  0.41800000000E+01 0.  1.
         -5    1    3    3    0  502 -0.76141354018E+02 -0.48214332190E+02  0.14214119613E+03  0.16835593146E+03  0.41800000000E+01 0.  1.
        -11    1    1    2    0    0  0.59166549125E+02  0.20985521782E+02 -0.45122155097E+02  0.77311587362E+02  0.00000000000E+00 0.  1.
         11    1    1    2    0    0 -0.23971446776E+02  0.12605019565E+02 -0.24636365824E+02  0.36612392707E+02  0.00000000000E+00 0. -1.
</event>
<event>
 7    1  0.2564986E-009  0.1190448E+03  0.7561462E-02  0.1244681E+00
         -2   -1    0    0    0  501 -0.00000000000E+00  0.00000000000E+00  0.49251567332E+03  0.49251567332E+03  0.00000000000E+00 0.  1.
          2   -1    0    0  501    0  0.00000000000E+00 -0.00000000000E+00 -0.35110336512E+02  0.35110336512E+02  0.00000000000E+00 0. -1.
         25    2    1    2    0    0 -0.41464243196E+02  0.57069825464E+02  0.20737574242E+03  0.25224648506E+03  0.12508933702E+03 0.  0.
          5    1    3    3  502    0 -0.44078828809E+02  0.90692662505E+02  0.11083714457E+03  0.14990145829E+03  0.41800000000E+01 0. -1.
         -5    1    3    3    0  502  0.26145856129E+01 -0.33622837041E+02  0.96538597851E+02  0.10234502677E+03  0.41800000000E+01 0. -1.
        -11    1    1    2    0    0 -0.17686867509E+01 -0.59836103968E+02  0.20207177954E+03  0.21075220445E+03  0.00000000000E+00 0.  1.
         11    1    1    2    0    0  0.43232929947E+02  0.27662785040E+01  0.47957814847E+02  0.64627320333E+02  0.00000000000E+00 0. -1.
</event>
<event>
 7    1  0.2564986E-009  0.9255988E+02  0.7561462E-02  0.1296768E+00
          2   -1    0    0  501    0  0.00000000000E+00  0.00000000000E+00  0.56325469169E+03  0.56325469169E+03  0.00000000000E+00 0. -1.
         -2   -1    0    0    0  501 -0.00000000000E+00 -0.00000000000E+00 -0.19784494514E+02  0.19784494514E+02  0.00000000000E+00 0.  1.
         25    2    1    2    0    0 -0.41838086506E+02 -0.11487015552E+02  0.40134096492E+03  0.42261605038E+03  0.12508948358E+03 0.  0.
          5    1    3    3  502    0  0.15878772741E+02  0.37051234350E+02  0.56083429482E+02  0.69193589682E+02  0.41800000000E+01 0. -1.
         -5    1    3    3    0  502 -0.57716859247E+02 -0.48538249902E+02  0.34525753544E+03  0.35342246069E+03  0.41800000000E+01 0. -1.
        -11    1    1    2    0    0  0.51852432834E+02 -0.24405075038E+01  0.75517070197E+02  0.91637649243E+02  0.00000000000E+00 0.  1.
         11    1    1    2    0    0 -0.10014346328E+02  0.13927523056E+02  0.66612162059E+02  0.68785486587E+02  0.00000000000E+00 0. -1.
</event>
<event>
 7    1  0.2564986E-009  0.1017610E+03  0.7561462E-02  0.1276636E+00
         -1   -1    0    0    0  501 -0.00000000000E+00  0.00000000000E+00  0.11114001846E+03  0.11114001846E+03  0.00000000000E+00 0.  1.
          1   -1    0    0  501    0  0.00000000000E+00 -0.00000000000E+00 -0.13013184943E+03  0.13013184943E+03  0.00000000000E+00 0. -1.
         25    2    1    2    0    0 -0.19304444786E+01 -0.50391168617E+02 -0.53681383855E+01  0.13497108097E+03  0.12508149063E+03 0.  0.
          5    1    3    3  502    0  0.27948747280E+02  0.27369672065E+02 -0.28306216786E+02  0.48465923412E+02  0.41800000000E+01 0. -1.
         -5    1    3    3    0  502 -0.29879191758E+02 -0.77760840682E+02  0.22938078400E+02  0.86505157560E+02  0.41800000000E+01 0. -1.
        -11    1    1    2    0    0 -0.30064655907E+02  0.31827491351E+02 -0.41233708937E+02  0.60142260460E+02  0.00000000000E+00 0. -1.
         11    1    1    2    0    0  0.31995100385E+02  0.18563677266E+02  0.27610016354E+02  0.46158526464E+02  0.00000000000E+00 0.  1.
</event>
<event>
 7    1  0.2564986E-009  0.1021494E+03  0.7561462E-02  0.1275840E+00
          3   -1    0    0  501    0  0.00000000000E+00  0.00000000000E+00  0.29138126770E+02  0.29138126770E+02  0.00000000000E+00 0. -1.
         -3   -1    0    0    0  501 -0.00000000000E+00 -0.00000000000E+00 -0.60799022810E+03  0.60799022810E+03  0.00000000000E+00 0.  1.
         25    2    1    2    0    0  0.35964646723E+02 -0.13613247902E+02 -0.46530196932E+03  0.48335547804E+03  0.12509124338E+03 0.  0.
          5    1    3    3  502    0 -0.47340764391E+01  0.41787288053E+02 -0.67519701295E+02  0.79655328670E+02  0.41800000000E+01 0. -1.
         -5    1    3    3    0  502  0.40698723162E+02 -0.55400535955E+02 -0.39778226802E+03  0.40370014937E+03  0.41800000000E+01 0. -1.
        -11    1    1    2    0    0  0.26689614687E+02  0.14766194686E+02 -0.88631940960E+01  0.31763693854E+02  0.00000000000E+00 0.  1.
         11    1    1    2    0    0 -0.62654261410E+02 -0.11529467847E+01 -0.10468693791E+03  0.12200918297E+03  0.00000000000E+00 0. -1.
</event>
<event>
 7    1  0.2564986E-009  0.1704889E+03  0.7561462E-02  0.1177339E+00
         -2   -1    0    0    0  501 -0.00000000000E+00  0.00000000000E+00  0.68143587306E+02  0.68143587306E+02  0.00000000000E+00 0.  1.
          2   -1    0    0  501    0  0.00000000000E+00 -0.00000000000E+00 -0.73061456104E+03  0.73061456104E+03  0.00000000000E+00 0. -1.
         25    2    1    2    0    0  0.30035798831E+02 -0.16738518881E+03 -0.51531147450E+03  0.55687811295E+03  0.12508943314E+03 0.  0.
          5    1    3    3  502    0  0.29457098308E+02 -0.13391974445E+03 -0.50234699913E+03  0.52074196924E+03  0.41800000000E+01 0.  1.
         -5    1    3    3    0  502  0.57870052208E+00 -0.33465444356E+02 -0.12964475373E+02  0.36136143706E+02  0.41800000000E+01 0.  1.
        -11    1    1    2    0    0 -0.16152166777E+02  0.93240408124E+02 -0.24280350962E+02  0.97694429942E+02  0.00000000000E+00 0.  1.
         11    1    1    2    0    0 -0.13883632054E+02  0.74144780682E+02 -0.12287914827E+03  0.14418560545E+03  0.00000000000E+00 0. -1.
</event>
<event>
 7    1  0.2564986E-009  0.8651574E+02  0.7561462E-02  0.1311516E+00
          1   -1    0    0  501    0  0.00000000000E+00  0.00000000000E+00  0.34620327290E+03  0.34620327290E+03  0.00000000000E+00 0. -1.
         -1   -1    0    0    0  501 -0.00000000000E+00 -0.00000000000E+00 -0.47761451158E+02  0.47761451158E+02  0.00000000000E+00 0.  1.
         25    2    1    2    0    0 -0.27659051633E+02 -0.41998037638E+02  0.95219092972E+02  0.16505447105E+03  0.12508974556E+03 0.  0.
          5    1    3    3  502    0 -0.48324066926E+02 -0.42475715699E+02  0.11771759346E+03  0.13421738367E+03  0.41800000000E+01 0. -1.
         -5    1    3    3    0  502  0.20665015293E+02  0.47767806110E+00 -0.22498500492E+02  0.30837087376E+02  0.41800000000E+01 0. -1.
        -11    1    1    2    0    0  0.16302900939E+02 -0.19221854425E+02  0.12211302808E+02  0.28006788156E+02  0.00000000000E+00 0.  1.
         11    1    1    2    0    0  0.11356150694E+02  0.61219892064E+02  0.19101142596E+03  0.20090346485E+03  0.00000000000E+00 0. -1.
</event>
<event>
 7    1  0.2564986E-009  0.1605735E+03  0.7561462E-02  0.1188051E+00
         -1   -1    0    0    0  501 -0.00000000000E+00  0.00000000000E+00  0.20477806935E+02  0.20477806935E+02  0.00000000000E+00 0.  1.
          1   -1    0    0  501    0  0.00000000000E+00 -0.00000000000E+00 -0.16288737912E+04  0.16288737912E+04  0.00000000000E+00 0. -1.
         25    2    1    2    0    0  0.14008774231E+03 -0.23152331491E+02 -0.73421088708E+03  0.75820400214E+03  0.12508827347E+03 0.  0.
          5    1    3    3  502    0  0.10638985744E+03 -0.40358186879E+02 -0.27809965045E+03  0.30050702653E+03  0.41800000000E+01 0. -1.
         -5    1    3    3    0  502  0.33697884876E+02  0.17205855388E+02 -0.45611123663E+03  0.45769697561E+03  0.41800000000E+01 0. -1.
        -11    1    1    2    0    0 -0.99834216196E+02  0.58443671170E+02 -0.67759027759E+03  0.68739444114E+03  0.00000000000E+00 0.  1.
         11    1    1    2    0    0 -0.40253526118E+02 -0.35291339679E+02 -0.19659481957E+03  0.20375315483E+03  0.00000000000E+00 0. -1.
</event>
<event>
 7    1  0.2564986E-009  0.2104072E+03  0.7561462E-02  0.1141244E+00
         -2   -1    0    0    0  501 -0.00000000000E+00  0.00000000000E+00  0.38774976404E+02  0.38774976404E+02  0.00000000000E+00 0.  1.
          2   -1    0    0  501    0  0.00000000000E+00 -0.00000000000E+00 -0.15784246385E+04  0.15784246385E+04  0.00000000000E+00 0. -1.
         25    2    1    2    0    0 -0.17050239858E+03  0.77508396924E+02 -0.40436338941E+03  0.46285635431E+03  0.12509050530E+03 0.  0.
          5    1    3    3  502    0 -0.15480497626E+03  0.22990322639E+02 -0.22073909060E+03  0.27062216119E+03  0.41800000000E+01 0. -1.
         -5    1    3    3    0  502 -0.15697422325E+02  0.54518074285E+02 -0.18362429881E+03  0.19223419312E+03  0.41800000000E+01 0. -1.
        -11    1    1    2    0    0  0.14455730980E+03 -0.22166134472E+02 -0.86069759503E+03  0.87303407919E+03  0.00000000000E+00 0.  1.
         11    1    1    2    0    0  0.25945088787E+02 -0.55342262452E+02 -0.27458867764E+03  0.28130918138E+03  0.00000000000E+00 0. -1.
</event>
<event>
 7    1  0.2564986E-009  0.1040144E+03  0.7561462E-02  0.1272074E+00
          1   -1    0    0  501    0  0.00000000000E+00  0.00000000000E+00  0.50404992192E+03  0.50404992192E+03  0.00000000000E+00 0. -1.
         -1   -1    0    0    0  501 -0.00000000000E+00 -0.00000000000E+00 -0.27821368146E+02  0.27821368146E+02  0.00000000000E+00 0.  1.
         25    2    1    2    0    0 -0.18621325325E+02 -0.26498393917E+02  0.30139796502E+03  0.32792862918E+03  0.12509010305E+03 0.  0.
          5    1    3    3  502    0  0.28801441904E+02  0.27097778702E+02  0.38193232517E+02  0.55136268249E+02  0.41800000000E+01 0. -1.
         -5    1    3    3    0  502 -0.47422767229E+02 -0.53596172619E+02  0.26320473251E+03  0.27279236094E+03  0.41800000000E+01 0. -1.
        -11    1    1    2    0    0 -0.25319710302E+02  0.42784253474E+02  0.49578770416E+02  0.70211356283E+02  0.00000000000E+00 0.  1.
         11    1    1    2    0    0  0.43941035627E+02 -0.16285859557E+02  0.12525181833E+03  0.13373130460E+03  0.00000000000E+00 0. -1.
</event>
<event>
 7    1  0.2564986E-009  0.1365366E+03  0.7561462E-02  0.1218067E+00
         -4   -1    0    0    0  501 -0.00000000000E+00  0.00000000000E+00  0.20510218054E+03  0.20510218054E+03  0.00000000000E+00 0.  1.
          4   -1    0    0  501    0  0.00000000000E+00 -0.00000000000E+00 -0.15097385026E+03  0.15097385026E+03  0.00000000000E+00 0. -1.
         25    2    1    2    0    0  0.45496249647E+02  0.79440298108E+02 -0.76847559074E+02  0.17301459241E+03  0.12509129528E+03 0.  0.
          5    1    3    3  502    0 -0.37233111739E+02 -0.36551062666E+01 -0.20271484754E+02  0.42755934159E+02  0.41800000000E+01 0.  1.
         -5    1    3    3    0  502  0.82729361387E+02  0.83095404375E+02 -0.56576074320E+02  0.13025865825E+03  0.41800000000E+01 0.  1.
        -11    1    1    2    0    0 -0.11326071781E+02 -0.82975728397E+02  0.12124840148E+03  0.14735815643E+03  0.00000000000E+00 0.  1.
         11    1    1    2    0    0 -0.34170177866E+02  0.35354302894E+01  0.97274878736E+01  0.35703281965E+02  0.00000000000E+00 0. -1.
</event>
<event>
 7    1  0.2564986E-009  0.1100338E+03  0.7561462E-02  0.1260507E+00
          2   -1    0    0  501    0  0.00000000000E+00  0.00000000000E+00  0.40227309845E+02  0.40227309845E+02  0.00000000000E+00 0.  1.
         -2   -1    0    0    0  501 -0.00000000000E+00 -0.00000000000E+00 -0.39534125476E+03  0.39534125476E+03  0.00000000000E+00 0. -1.
         25    2    1    2    0    0 -0.43412780469E+02 -0.17389269630E+02 -0.23379416284E+03  0.26924596467E+03  0.12508646093E+03 0.  0.
          5    1    3    3  502    0 -0.68066461891E+02  0.27243519599E+02 -0.87320018571E+02  0.11409430590E+03  0.41800000000E+01 0. -1.
         -5    1    3    3    0  502  0.24653681422E+02 -0.44632789229E+02 -0.14647414427E+03  0.15515165878E+03  0.41800000000E+01 0. -1.
        -11    1    1    2    0    0  0.44484192787E+02 -0.26361419234E+02 -0.19091126530E+02  0.55120222642E+02  0.00000000000E+00 0.  1.
         11    1    1    2    0    0 -0.10714123187E+01  0.43750688864E+02 -0.10222865555E+03  0.11120237729E+03  0.00000000000E+00 0. -1.
</event>
<event>
 7    1  0.2564986E-009  0.1397847E+03  0.7561462E-02  0.1213619E+00
         -3   -1    0    0    0  501 -0.00000000000E+00  0.00000000000E+00  0.92399956014E+02  0.92399956014E+02  0.00000000000E+00 0.  1.
          3   -1    0    0  501    0  0.00000000000E+00 -0.00000000000E+00 -0.25557980476E+03  0.25557980476E+03  0.00000000000E+00 0. -1.
         25    2    1    2    0    0  0.88570486959E+02 -0.53131799757E+02 -0.12742115639E+03  0.20627955750E+03  0.12508950971E+03 0.  0.
          5    1    3    3  502    0  0.84761023422E+02  0.21126775395E+02 -0.74959471182E+02  0.11518318649E+03  0.41800000000E+01 0.  1.
         -5    1    3    3    0  502  0.38094635376E+01 -0.74258575152E+02 -0.52461685205E+02  0.91096371007E+02  0.41800000000E+01 0.  1.
        -11    1    1    2    0    0 -0.52133273380E+02  0.61125148169E+02  0.11861252005E+02  0.81208689382E+02  0.00000000000E+00 0.  1.
         11    1    1    2    0    0 -0.36437213579E+02 -0.79933484115E+01 -0.47619944365E+02  0.60491513897E+02  0.00000000000E+00 0. -1.
</event>
<event>
 7    1  0.2564986E-009  0.1099347E+03  0.7561462E-02  0.1260691E+00
         -2   -1    0    0    0  501 -0.00000000000E+00  0.00000000000E+00  0.12378153029E+03  0.12378153029E+03  0.00000000000E+00 0.  1.
          2   -1    0    0  501    0  0.00000000000E+00 -0.00000000000E+00 -0.10604182323E+03  0.10604182323E+03  0.00000000000E+00 0. -1.
         25    2    1    2    0    0  0.65813017737E+01  0.12488351567E+02  0.40970535846E+02  0.13238357983E+03  0.12509018724E+03 0.  0.
          5    1    3    3  502    0  0.57841195150E+02 -0.23501775929E+02  0.26570837663E+02  0.67981020456E+02  0.41800000000E+01 0. -1.
         -5    1    3    3    0  502 -0.51259893376E+02  0.35990127496E+02  0.14399698183E+02  0.64402559373E+02  0.41800000000E+01 0. -1.
        -11    1    1    2    0    0 -0.45806774141E+02 -0.26441871488E+02 -0.15283131688E+02  0.55054584180E+02  0.00000000000E+00 0.  1.
         11    1    1    2    0    0  0.39225472368E+02  0.13953519921E+02 -0.79476970942E+01  0.42385189510E+02  0.00000000000E+00 0. -1.
</event>
<event>
 7    1  0.2564986E-009  0.3140275E+03  0.7561462E-02  0.1078431E+00
          2   -1    0    0  501    0  0.00000000000E+00  0.00000000000E+00  0.92083541499E+03  0.92083541499E+03  0.00000000000E+00 0. -1.
         -2   -1    0    0    0  501 -0.00000000000E+00 -0.00000000000E+00 -0.12258734156E+03  0.12258734156E+03  0.00000000000E+00 0.  1.
         25    2    1    2    0    0 -0.11667954065E+03 -0.29131194361E+03  0.48327171533E+03  0.58963996007E+03  0.12508784107E+03 0.  0.
          5    1    3    3  502    0 -0.62693136681E+02 -0.16721291906E+03  0.37817679994E+03  0.41824126303E+03  0.41800000000E+01 0. -1.
         -5    1    3    3    0  502 -0.53986403965E+02 -0.12409902455E+03  0.10509491539E+03  0.17139869704E+03  0.41800000000E+01 0. -1.
        -11    1    1    2    0    0  0.56768747874E+02  0.12608792276E+03  0.78042628091E+02  0.15878131754E+03  0.00000000000E+00 0. -1.
         11    1    1    2    0    0  0.59910792772E+02  0.16522402085E+03  0.23693373001E+03  0.29500147893E+03  0.00000000000E+00 0.  1.
</event>
<event>
 7    1  0.2564986E-009  0.1528507E+03  0.7561462E-02  0.1197013E+00
         -1   -1    0    0    0  501 -0.00000000000E+00  0.00000000000E+00  0.13527150750E+02  0.13527150750E+02  0.00000000000E+00 0.  1.
          1   -1    0    0  501    0  0.00000000000E+00 -0.00000000000E+00 -0.17734617035E+04  0.17734617035E+04  0.00000000000E+00 0. -1.
         25    2    1    2    0    0 -0.10903228649E+03 -0.11480001598E+02 -0.99785053406E+03  0.10116192208E+04  0.12509168467E+03 0.  0.
          5    1    3    3  502    0  0.10149188931E+02  0.33581100979E+02 -0.14215892106E+03  0.14648319909E+03  0.41800000000E+01 0. -1.
         -5    1    3    3    0  502 -0.11918147542E+03 -0.45061102577E+02 -0.85569161300E+03  0.86513602168E+03  0.41800000000E+01 0. -1.
        -11    1    1    2    0    0  0.86898620621E+02 -0.33200917718E+02 -0.50389608896E+03  0.51241090901E+03  0.00000000000E+00 0.  1.
         11    1    1    2    0    0  0.22133665872E+02  0.44680919316E+02 -0.25818792969E+03  0.26295872443E+03  0.00000000000E+00 0. -1.
</event>
<event>
 7    1  0.2564986E-009  0.1046907E+03  0.7561462E-02  0.1270730E+00
          3   -1    0    0  501    0  0.00000000000E+00  0.00000000000E+00  0.68499923727E+03  0.68499923727E+03  0.00000000000E+00 0. -1.
         -3   -1    0    0    0  501 -0.00000000000E+00 -0.00000000000E+00 -0.21721917470E+02  0.21721917470E+02  0.00000000000E+00 0.  1.
         25    2    1    2    0    0 -0.16720980062E+02  0.54413167930E+02  0.35637908250E+03  0.38195959420E+03  0.12508675844E+03 0.  0.
          5    1    3    3  502    0  0.26273417316E+02 -0.27828087365E+02  0.59352784941E+02  0.70745461933E+02  0.41800000000E+01 0.  1.
         -5    1    3    3    0  502 -0.42994397378E+02  0.82241255295E+02  0.29702629756E+03  0.31121413227E+03  0.41800000000E+01 0.  1.
        -11    1    1    2    0    0  0.29122317113E+01  0.10872942812E+02  0.59305256028E+00  0.11271809539E+02  0.00000000000E+00 0.  1.
         11    1    1    2    0    0  0.13808748351E+02 -0.65286110742E+02  0.30630518473E+03  0.31348975100E+03  0.00000000000E+00 0. -1.
</event>
<event>
 7    1  0.2564986E-009  0.7699537E+02  0.7561462E-02  0.1337801E+00
          2   -1    0    0  501    0  0.00000000000E+00  0.00000000000E+00  0.88530781228E+03  0.88530781228E+03  0.00000000000E+00 0. -1.
         -2   -1    0    0    0  501 -0.00000000000E+00 -0.00000000000E+00 -0.16838031380E+02  0.16838031380E+02  0.00000000000E+00 0.  1.
         25    2    1    2    0    0  0.13884536190E+02 -0.47105597532E+02  0.55321667967E+03  0.56930491248E+03  0.12509065134E+03 0.  0.
          5    1    3    3  502    0  0.14665774903E+02 -0.24978703497E+02  0.54427890571E+03  0.54506515224E+03  0.41800000000E+01 0.  1.
         -5    1    3    3    0  502 -0.78123871285E+00 -0.22126894036E+02  0.89377739567E+01  0.24239760248E+02  0.41800000000E+01 0.  1.
        -11    1    1    2    0    0 -0.51944642567E+02  0.20940822650E+02  0.12353464595E+03  0.13563765220E+03  0.00000000000E+00 0.  1.
         11    1    1    2    0    0  0.38060106377E+02  0.26164774883E+02  0.19171845529E+03  0.19720327898E+03  0.00000000000E+00 0. -1.
</event>
<event>
 7    1  0.2564986E-009  0.9999295E+02  0.7561462E-02  0.1280311E+00
         -1   -1    0    0    0  501 -0.00000000000E+00  0.00000000000E+00  0.51495235461E+03  0.51495235461E+03  0.00000000000E+00 0.  1.
          1   -1    0    0  501    0  0.00000000000E+00 -0.00000000000E+00 -0.31799065389E+02  0.31799065389E+02  0.00000000000E+00 0. -1.
         25    2    1    2    0    0 -0.38850357319E+02  0.14298016037E+02  0.38521284960E+03  0.40712250448E+03  0.12508401431E+03 0.  0.
          5    1    3    3  502    0 -0.71386830552E+02  0.32989258008E+02  0.15525698022E+03  0.17408783136E+03  0.41800000000E+01 0.  1.
         -5    1    3    3    0  502  0.32536473234E+02 -0.18691241971E+02  0.22995586937E+03  0.23303467312E+03  0.41800000000E+01 0.  1.
        -11    1    1    2    0    0 -0.12053813962E+02  0.19107921108E+02  0.68243743692E+02  0.71886129630E+02  0.00000000000E+00 0.  1.
         11    1    1    2    0    0  0.50904171281E+02 -0.33405937145E+02  0.29696695930E+02  0.67742785885E+02  0.00000000000E+00 0. -1.
</event>
<event>
 7    1  0.2564986E-009  0.2671289E+03  0.7561462E-02  0.1102934E+00
          1   -1    0    0  501    0  0.00000000000E+00  0.00000000000E+00  0.27864072074E+04  0.27864072074E+04  0.00000000000E+00 0. -1.
         -1   -1    0    0    0  501 -0.00000000000E+00 -0.00000000000E+00 -0.28435670171E+02  0.28435670171E+02  0.00000000000E+00 0.  1.
         25    2    1    2    0    0 -0.24909372049E+03  0.36273743831E+02  0.17443705763E+04  0.17668726905E+04  0.12508769274E+03 0.  0.
          5    1    3    3  502    0 -0.22320966682E+03  0.61628698034E+02  0.16408623608E+04  0.16571262509E+04  0.41800000000E+01 0.  1.
         -5    1    3    3    0  502 -0.25884053668E+02 -0.25354954203E+02  0.10350821545E+03  0.10974643959E+03  0.41800000000E+01 0.  1.
        -11    1    1    2    0    0  0.17709975606E+03  0.15097602231E+02  0.67612289824E+03  0.69909544035E+03  0.00000000000E+00 0.  1.
         11    1    1    2    0    0  0.71993964428E+02 -0.51371346062E+02  0.33747806275E+03  0.34887474679E+03  0.00000000000E+00 0. -1.
</event>
<event>
 7    1  0.2564986E-009  0.1113638E+03  0.7561462E-02  0.1258065E+00
         -1   -1    0    0    0  501 -0.00000000000E+00  0.00000000000E+00  0.23913147101E+03  0.23913147101E+03  0.00000000000E+00 0.  1.
          1   -1    0    0  501    0  0.00000000000E+00 -0.00000000000E+00 -0.98762845625E+02  0.98762845625E+02  0.00000000000E+00 0. -1.
         25    2    1    2    0    0 -0.57368676752E+02 -0.46034054481E+02 -0.12879061407E+02  0.14568594448E+03  0.12509286531E+03 0.  0.
          5    1    3    3  502    0  0.11202239588E+02 -0.35233172918E+02  0.42719434221E+02  0.56650587868E+02  0.41800000000E+01 0.  1.
         -5    1    3    3    0  502 -0.68570916340E+02 -0.10800881563E+02 -0.55598495628E+02  0.89035356608E+02  0.41800000000E+01 0.  1.
        -11    1    1    2    0    0  0.48013990759E+02 -0.17991006628E+02  0.70100055143E+02  0.86850661248E+02  0.00000000000E+00 0.  1.
         11    1    1    2    0    0  0.93546859923E+01  0.64025061108E+02  0.83147631653E+02  0.10535771092E+03  0.00000000000E+00 0. -1.
</event>
<event>
 7    1  0.2564986E-009  0.9453028E+02  0.7561462E-02  0.1292238E+00
          2   -1    0    0  501    0  0.00000000000E+00  0.00000000000E+00  0.39766711678E+03  0.39766711678E+03  0.00000000000E+00 0. -1.
         -2   -1    0    0    0  501 -0.00000000000E+00 -0.00000000000E+00 -0.32363585925E+02  0.32363585925E+02  0.00000000000E+00 0.  1.
         25    2    1    2    0    0 -0.58697999193E+01  0.95985242864E+01  0.14638239227E+03  0.19288114074E+03  0.12509493782E+03 0.  0.
          5    1    3    3  502    0 -0.27367328108E+02  0.50141550046E+02  0.13313803695E+03  0.14493569253E+03  0.41800000000E+01 0. -1.
         -5    1    3    3    0  502  0.21497528189E+02 -0.40543025760E+02  0.13244355321E+02  0.47945448208E+02  0.41800000000E+01 0. -1.
        -11    1    1    2    0    0  0.14437891022E+02  0.36272150078E+02  0.14118252817E+03  0.14648081045E+03  0.00000000000E+00 0.  1.
         11    1    1    2    0    0 -0.85680911027E+01 -0.45870674364E+02  0.77738610417E+02  0.90668751515E+02  0.00000000000E+00 0. -1.
</event>
<event>
 7    1  0.2564986E-009  0.1408795E+03  0.7561462E-02  0.1212150E+00
         -1   -1    0    0    0  501 -0.00000000000E+00  0.00000000000E+00  0.63238468899E+02  0.63238468899E+02  0.00000000000E+00 0.  1.
          1   -1    0    0  501    0  0.00000000000E+00 -0.00000000000E+00 -0.37994247993E+03  0.37994247993E+03  0.00000000000E+00 0. -1.
         25    2    1    2    0    0 -0.74054519113E+01  0.10588785184E+03 -0.21337841473E+03  0.26915531225E+03  0.12508859401E+03 0.  0.
          5    1    3    3  502    0  0.21447161329E+02  0.12248676893E+03 -0.13335502598E+03  0.18238427741E+03  0.41800000000E+01 0. -1.
         -5    1    3    3    0  502 -0.28852613240E+02 -0.16598917090E+02 -0.80023388749E+02  0.86771034835E+02  0.41800000000E+01 0. -1.
        -11    1    1    2    0    0  0.20577687060E+02 -0.38858014031E+01 -0.57938973860E+02  0.61607348176E+02  0.00000000000E+00 0. -1.
         11    1    1    2    0    0 -0.13172235148E+02 -0.10200205044E+03 -0.45386622443E+02  0.11241828841E+03  0.00000000000E+00 0.  1.
</event>
<event>
 7    1  0.2564986E-009  0.1042148E+03  0.7561462E-02  0.1271674E+00
         -1   -1    0    0    0  501 -0.00000000000E+00  0.00000000000E+00  0.20798673520E+03  0.20798673520E+03  0.00000000000E+00 0.  1.
          1   -1    0    0  501    0  0.00000000000E+00 -0.00000000000E+00 -0.59265733231E+02  0.59265733231E+02  0.00000000000E+00 0. -1.
         25    2    1    2    0    0  0.15598776132E+02 -0.16564105211E+02  0.81118714456E+02  0.15081724559E+03  0.12509158379E+03 0.  0.
          5    1    3    3  502    0 -0.24215139247E+02 -0.53683444731E+02  0.75633320271E+02  0.95948719336E+02  0.41800000000E+01 0.  1.
         -5    1    3    3    0  502  0.39813915379E+02  0.37119339520E+02  0.54853941847E+01  0.54868526257E+02  0.41800000000E+01 0.  1.
        -11    1    1    2    0    0 -0.54467176462E+02  0.99532028327E+01  0.40047770386E+02  0.68334204256E+02  0.00000000000E+00 0. -1.
         11    1    1    2    0    0  0.38868400330E+02  0.66109023783E+01  0.27554517123E+02  0.48101018579E+02  0.00000000000E+00 0.  1.
</event>
<event>
 7    1  0.2564986E-009  0.1165848E+03  0.7561462E-02  0.1248840E+00
         -1   -1    0    0    0  501 -0.00000000000E+00  0.00000000000E+00  0.15625164454E+04  0.15625164454E+04  0.00000000000E+00 0.  1.
          1   -1    0    0  501    0  0.00000000000E+00 -0.00000000000E+00 -0.14054383332E+02  0.14054383332E+02  0.00000000000E+00 0. -1.
         25    2    1    2    0    0  0.68018210997E+02 -0.52260441028E+02  0.10705948688E+04  0.10812856574E+04  0.12509064382E+03 0.  0.
          5    1    3    3  502    0 -0.51806176396E+01 -0.34170834703E+02  0.73420770783E+02  0.81256179616E+02  0.41800000000E+01 0. -1.
         -5    1    3    3    0  502  0.73198828637E+02 -0.18089606325E+02  0.99717409802E+03  0.10000294778E+04  0.41800000000E+01 0. -1.
        -11    1    1    2    0    0 -0.70078636854E+02 -0.45893418245E+00  0.18760441097E+03  0.20026642500E+03  0.00000000000E+00 0.  1.
         11    1    1    2    0    0  0.20604258561E+01  0.52719375211E+02  0.29026278228E+03  0.29501874627E+03  0.00000000000E+00 0. -1.
</event>
<event>
 7    1  0.2564986E-009  0.1341665E+03  0.7561462E-02  0.1221401E+00
          1   -1    0    0  501    0  0.00000000000E+00  0.00000000000E+00  0.10246498647E+04  0.10246498647E+04  0.00000000000E+00 0. -1.
         -1   -1    0    0    0  501 -0.00000000000E+00 -0.00000000000E+00 -0.18190119275E+02  0.18190119275E+02  0.00000000000E+00 0.  1.
         25    2    1    2    0    0 -0.17867070317E+02  0.80152813017E+02  0.55878718148E+03  0.57847347236E+03  0.12507892868E+03 0.  0.
          5    1    3    3  502    0 -0.65667496786E+02  0.21281066566E+02  0.33759531876E+03  0.34460582638E+03  0.41800000000E+01 0. -1.
         -5    1    3    3    0  502  0.47800426469E+02  0.58871746451E+02  0.22119186272E+03  0.23386764597E+03  0.41800000000E+01 0. -1.
        -11    1    1    2    0    0 -0.31387321726E+02 -0.27828116129E+01  0.12520222272E+03  0.12910656288E+03  0.00000000000E+00 0.  1.
         11    1    1    2    0    0  0.49254392043E+02 -0.77370001404E+02  0.32247034119E+03  0.33525994869E+03  0.00000000000E+00 0. -1.
</event>
<event>
 7    1  0.2564986E-009  0.1128165E+03  0.7561462E-02  0.1255441E+00
          2   -1    0    0  501    0  0.00000000000E+00  0.00000000000E+00  0.94321629232E+02  0.94321629232E+02  0.00000000000E+00 0. -1.
         -2   -1    0    0    0  501 -0.00000000000E+00 -0.00000000000E+00 -0.14197839689E+03  0.14197839689E+03  0.00000000000E+00 0.  1.
         25    2    1    2    0    0  0.10630311617E+02 -0.38225243763E+02 -0.13936268448E+02  0.13196823933E+03  0.12508886373E+03 0.  0.
          5    1    3    3  502    0 -0.54889674456E+02 -0.32444913022E+02  0.28325742170E+01  0.63961274375E+02  0.41800000000E+01 0. -1.
         -5    1    3    3    0  502  0.65519986073E+02 -0.57803307407E+01 -0.16768842665E+02  0.68006964958E+02  0.41800000000E+01 0. -1.
        -11    1    1    2    0    0 -0.33859318819E+02 -0.15542634602E+02 -0.25592119382E+02  0.45199375391E+02  0.00000000000E+00 0. -1.
         11    1    1    2    0    0  0.23229007202E+02  0.53767878365E+02 -0.81283798304E+01  0.59132411401E+02  0.00000000000E+00 0.  1.
</event>
<event>
 7    1  0.2564986E-009  0.1068304E+03  0.7561462E-02  0.1266555E+00
          1   -1    0    0  501    0  0.00000000000E+00  0.00000000000E+00  0.34225936909E+02  0.34225936909E+02  0.00000000000E+00 0. -1.
         -1   -1    0    0    0  501 -0.00000000000E+00 -0.00000000000E+00 -0.38332276258E+03  0.38332276258E+03  0.00000000000E+00 0.  1.
         25    2    1    2    0    0  0.24424476818E+02 -0.54733571655E+01 -0.14986523378E+03  0.19680777176E+03  0.12508876057E+03 0.  0.
          5    1    3    3  502    0 -0.42731742860E+02  0.26001152906E+02 -0.82264905859E+02  0.96369336079E+02  0.41800000000E+01 0.  1.
         -5    1    3    3    0  502  0.67156219679E+02 -0.31474510072E+02 -0.67600327924E+02  0.10043843568E+03  0.41800000000E+01 0.  1.
        -11    1    1    2    0    0 -0.28148891636E+02  0.43042007407E+02 -0.75302586638E+02  0.91189111501E+02  0.00000000000E+00 0. -1.
         11    1    1    2    0    0  0.37244148177E+01 -0.37568650242E+02 -0.12392900525E+03  0.12955181623E+03  0.00000000000E+00 0.  1.
</event>
<event>
 7    1  0.2564986E-009  0.9162887E+02  0.7561462E-02  0.1298954E+00
          2   -1    0    0  501    0  0.00000000000E+00  0.00000000000E+00  0.53472128423E+03  0.53472128423E+03  0.00000000000E+00 0.  1.
         -2   -1    0    0    0  501 -0.00000000000E+00 -0.00000000000E+00 -0.34774044049E+02  0.34774044049E+02  0.00000000000E+00 0. -1.
         25    2    1    2    0    0 -0.92224736674E+01  0.37544528368E+02  0.12407970171E+03  0.18038211122E+03  0.12508912039E+03 0.  0.
          5    1    3    3  502    0 -0.25528668046E+01 -0.26928745241E+02  0.11074275853E+03  0.11407499909E+03  0.41800000000E+01 0. -1.
         -5    1    3    3    0  502 -0.66696068628E+01  0.64473273609E+02  0.13336943176E+02  0.66307112129E+02  0.41800000000E+01 0. -1.
        -11    1    1    2    0    0  0.43553770984E+01  0.26424641174E+02  0.47429813907E+02  0.54468506663E+02  0.00000000000E+00 0. -1.
         11    1    1    2    0    0  0.48670965690E+01 -0.63969169542E+02  0.32843772456E+03  0.33464471040E+03  0.00000000000E+00 0.  1.
</event>
<event>
 7    1  0.2564986E-009  0.1060408E+03  0.7561462E-02  0.1268082E+00
         -2   -1    0    0    0  501 -0.00000000000E+00  0.00000000000E+00  0.46377021551E+03  0.46377021551E+03  0.00000000000E+00 0. -1.
          2   -1    0    0  501    0  0.00000000000E+00 -0.00000000000E+00 -0.47626782244E+02  0.47626782244E+02  0.00000000000E+00 0.  1.
         25    2    1    2    0    0  0.35090216000E+02 -0.26210242290E+02  0.38269823588E+03  0.40499883633E+03  0.12509123720E+03 0.  0.
          5    1    3    3  502    0  0.12757812841E+01  0.41250145487E+02  0.56099817851E+02  0.69770080145E+02  0.41800000000E+01 0.  1.
         -5    1    3    3    0  502  0.33814434715E+02 -0.67460387776E+02  0.32659841803E+03  0.33522875619E+03  0.41800000000E+01 0.  1.
        -11    1    1    2    0    0 -0.32675529018E+02 -0.26615394042E+02 -0.28818315651E+01  0.42241855425E+02  0.00000000000E+00 0.  1.
         11    1    1    2    0    0 -0.24146869816E+01  0.52825636331E+02  0.36327028950E+02  0.64156305999E+02  0.00000000000E+00 0. -1.
</event>
<event>
 7    1  0.2564986E-009  0.1416661E+03  0.7561462E-02  0.1211105E+00
         -2   -1    0    0    0  501 -0.00000000000E+00  0.00000000000E+00  0.24403860762E+02  0.24403860762E+02  0.00000000000E+00 0.  1.
          2   -1    0    0  501    0  0.00000000000E+00 -0.00000000000E+00 -0.84040490623E+03  0.84040490623E+03  0.00000000000E+00 0. -1.
         25    2    1    2    0    0 -0.46343105433E+02  0.80013930745E+02 -0.44042370988E+03  0.46708863383E+03  0.12509530402E+03 0.  0.
          5    1    3    3  502    0  0.17908325291E+02  0.88114695148E+02 -0.27669097662E+03  0.29096439053E+03  0.41800000000E+01 0. -1.
         -5    1    3    3    0  502 -0.64251430723E+02 -0.81007644024E+01 -0.16373273327E+03  0.17612424330E+03  0.41800000000E+01 0. -1.
        -11    1    1    2    0    0 -0.15108316231E+02 -0.62821998199E+02 -0.15076890749E+03  0.16403087558E+03  0.00000000000E+00 0. -1.
         11    1    1    2    0    0  0.61451421664E+02 -0.17191932547E+02 -0.22480842809E+03  0.23368925759E+03  0.00000000000E+00 0.  1.
</event>
<event>
 7    1  0.2564986E-009  0.8744130E+02  0.7561462E-02  0.1309169E+00
         -3   -1    0    0    0  501 -0.00000000000E+00  0.00000000000E+00  0.64621639750E+03  0.64621639750E+03  0.00000000000E+00 0.  1.
          3   -1    0    0  501    0  0.00000000000E+00 -0.00000000000E+00 -0.18575763344E+02  0.18575763344E+02  0.00000000000E+00 0. -1.
         25    2    1    2    0    0  0.21207172280E+01 -0.27411340725E+02  0.42290828288E+03  0.44187567128E+03  0.12508722596E+03 0.  0.
          5    1    3    3  502    0  0.47335498333E+02  0.26468004001E+02  0.23441662367E+03  0.24064461451E+03  0.41800000000E+01 0.  1.
         -5    1    3    3    0  502 -0.45214781106E+02 -0.53879344726E+02  0.18849165922E+03  0.20123105678E+03  0.41800000000E+01 0.  1.
        -11    1    1    2    0    0 -0.13830268974E+02 -0.56604037607E+01 -0.25757886289E+00  0.14945998043E+02  0.00000000000E+00 0. -1.
         11    1    1    2    0    0  0.11709551746E+02  0.33071744485E+02  0.20498993013E+03  0.20797049152E+03  0.00000000000E+00 0.  1.
</event>
<event>
 7    1  0.2564986E-009  0.8578495E+02  0.7561462E-02  0.1313392E+00
          2   -1    0    0  501    0  0.00000000000E+00  0.00000000000E+00  0.28350465610E+03  0.28350465610E+03  0.00000000000E+00 0. -1.
         -2   -1    0    0    0  501 -0.00000000000E+00 -0.00000000000E+00 -0.50665794882E+02  0.50665794882E+02  0.00000000000E+00 0.  1.
         25    2    1    2    0    0 -0.26688163941E+02  0.38489364612E+02  0.14735749618E+03  0.19888441500E+03  0.12508832707E+03 0.  0.
          5    1    3    3  502    0 -0.41296732669E+02  0.31373465655E+02  0.14867407811E+01  0.52051871000E+02  0.41800000000E+01 0.  1.
         -5    1    3    3    0  502  0.14608568729E+02  0.71158989570E+01  0.14587075540E+03  0.14683254400E+03  0.41800000000E+01 0.  1.
        -11    1    1    2    0    0  0.18382409388E+02 -0.68861790348E+02  0.46177874413E+02  0.84924997675E+02  0.00000000000E+00 0.  1.
         11    1    1    2    0    0  0.83057545531E+01  0.30372425735E+02  0.39303490628E+02  0.50361038307E+02  0.00000000000E+00 0. -1.
</event>
<event>
 7    1  0.2564986E-009  0.1083800E+03  0.7561462E-02  0.1263600E+00
          1   -1    0    0  501    0  0.00000000000E+00  0.00000000000E+00  0.92473223429E+02  0.92473223429E+02  0.00000000000E+00 0. -1.
         -1   -1    0    0    0  501 -0.00000000000E+00 -0.00000000000E+00 -0.23690462376E+03  0.23690462376E+03  0.00000000000E+00 0.  1.
         25    2    1    2    0    0  0.18481594432E+02 -0.36915206780E+02  0.23967061759E+02  0.13389009444E+03  0.12509130871E+03 0.  0.
          5    1    3    3  502    0  0.66682821269E+01  0.39568095181E+02 -0.19738610681E+02  0.44913086004E+02  0.41800000000E+01 0.  1.
         -5    1    3    3    0  502  0.11813312306E+02 -0.76483301960E+02  0.43705672441E+02  0.88977008434E+02  0.41800000000E+01 0.  1.
        -11    1    1    2    0    0 -0.50993448119E+02  0.41928581214E+02 -0.12013874336E+03  0.13708265875E+03  0.00000000000E+00 0. -1.
         11    1    1    2    0    0  0.32511853687E+02 -0.50133744343E+01 -0.48259718725E+02  0.58405093997E+02  0.00000000000E+00 0.  1.
</event>
<event>
 7    1  0.2564986E-009  0.1583102E+03  0.7561462E-02  0.1190618E+00
         -2   -1    0    0    0  501 -0.00000000000E+00  0.00000000000E+00  0.27372860075E+02  0.27372860075E+02  0.00000000000E+00 0.  1.
          2   -1    0    0  501    0  0.00000000000E+00 -0.00000000000E+00 -0.10223329005E+04  0.10223329005E+04  0.00000000000E+00 0. -1.
         25    2    1    2    0    0 -0.82540648349E+01  0.12541210775E+03 -0.54588248711E+03  0.57396196730E+03  0.12509326048E+03 0.  0.
          5    1    3    3  502    0  0.52568749936E+02  0.27847754407E+02 -0.14202444516E+03  0.15403696413E+03  0.41800000000E+01 0.  1.
         -5    1    3    3    0  502 -0.60822814771E+02  0.97564353341E+02 -0.40385804195E+03  0.41992500317E+03  0.41800000000E+01 0.  1.
        -11    1    1    2    0    0  0.37329231746E+02 -0.73599922097E+02 -0.15373468177E+03  0.17448430432E+03  0.00000000000E+00 0.  1.
         11    1    1    2    0    0 -0.29075166911E+02 -0.51812185650E+02 -0.29534287160E+03  0.30125948901E+03  0.00000000000E+00 0. -1.
</event>
<event>
 7    1  0.2637412E-009  0.1259574E+03  0.7561462E-02  0.1233581E+00
          2   -1    0    0  501    0  0.00000000000E+00  0.00000000000E+00  0.97240375417E+03  0.97240375417E+03  0.00000000000E+00 0. -1.
         -2   -1    0    0    0  501 -0.00000000000E+00 -0.00000000000E+00 -0.22168158114E+02  0.22168158114E+02  0.00000000000E+00 0.  1.
         25    2    1    2    0    0  0.49127331348E+02 -0.61938833726E+02  0.71717913348E+03  0.73228735554E+03  0.12509575444E+03 0.  0.
          5    1    3    3  502    0  0.81405035014E+02 -0.24419039122E+02  0.58363686812E+03  0.58980720192E+03  0.41800000000E+01 0. -1.
         -5    1    3    3    0  502 -0.32277703666E+02 -0.37519794604E+02  0.13354226535E+03  0.14248015363E+03  0.41800000000E+01 0. -1.
        -11    1    1    2    0    0 -0.38237865812E+01  0.70874531021E+02  0.11065199528E+03  0.13145982105E+03  0.00000000000E+00 0.  1.
         11    1    1    2    0    0 -0.45303544767E+02 -0.89356972959E+01  0.12240446730E+03  0.13082473569E+03  0.00000000000E+00 0. -1.
</event>
<event>
 7    1  0.2564986E-009  0.8783678E+02  0.7561462E-02  0.1308176E+00
         -1   -1    0    0    0  501 -0.00000000000E+00  0.00000000000E+00  0.56856948145E+02  0.56856948145E+02  0.00000000000E+00 0.  1.
          1   -1    0    0  501    0  0.00000000000E+00 -0.00000000000E+00 -0.26747832479E+03  0.26747832479E+03  0.00000000000E+00 0. -1.
         25    2    1    2    0    0  0.14930653002E+02  0.56249260909E+02 -0.11075746045E+03  0.17692131558E+03  0.12508810139E+03 0.  0.
          5    1    3    3  502    0 -0.15739401601E+02  0.20771283218E+02  0.23068619854E+02  0.35054366222E+02  0.41800000000E+01 0.  1.
         -5    1    3    3    0  502  0.30670054603E+02  0.35477977691E+02 -0.13382608031E+03  0.14186694936E+03  0.41800000000E+01 0.  1.
        -11    1    1    2    0    0  0.33355891920E+02 -0.87972000960E+01 -0.12066113101E+02  0.36545825215E+02  0.00000000000E+00 0.  1.
         11    1    1    2    0    0 -0.48286544922E+02 -0.47452060813E+02 -0.87797803092E+02  0.11086813214E+03  0.00000000000E+00 0. -1.
</event>
<event>
 7    1  0.2564986E-009  0.8483514E+02  0.7561462E-02  0.1315864E+00
         -1   -1    0    0    0  501 -0.00000000000E+00  0.00000000000E+00  0.34328236495E+02  0.34328236495E+02  0.00000000000E+00 0.  1.
          1   -1    0    0  501    0  0.00000000000E+00 -0.00000000000E+00 -0.46001532026E+03  0.46001532026E+03  0.00000000000E+00 0. -1.
         25    2    1    2    0    0 -0.28000280106E+02 -0.28467345785E+02 -0.13821033393E+03  0.19064074158E+03  0.12508952987E+03 0.  0.
          5    1    3    3  502    0  0.26080431487E+02 -0.22599924637E+02  0.70521981405E+01  0.35470429920E+02  0.41800000000E+01 0. -1.
         -5    1    3    3    0  502 -0.54080711592E+02 -0.58674211487E+01 -0.14526253207E+03  0.15517031166E+03  0.41800000000E+01 0. -1.
        -11    1    1    2    0    0  0.14449925706E+02  0.51575514866E+02 -0.25949675161E+03  0.26496678695E+03  0.00000000000E+00 0. -1.
         11    1    1    2    0    0  0.13550354399E+02 -0.23108169080E+02 -0.27979998229E+02  0.38736028236E+02  0.00000000000E+00 0.  1.
</event>
<event>
 7    1  0.2564986E-009  0.1047697E+03  0.7561462E-02  0.1270574E+00
         -1   -1    0    0    0  501 -0.00000000000E+00  0.00000000000E+00  0.52062102614E+02  0.52062102614E+02  0.00000000000E+00 0.  1.
          1   -1    0    0  501    0  0.00000000000E+00 -0.00000000000E+00 -0.23499163027E+03  0.23499163027E+03  0.00000000000E+00 0. -1.
         25    2    1    2    0    0  0.56715900311E+01 -0.13448135229E+02 -0.83717277149E+02  0.15122233385E+03  0.12508634013E+03 0.  0.
          5    1    3    3  502    0  0.40736602398E+02 -0.56798641155E+02 -0.46614057093E+02  0.84118363813E+02  0.41800000000E+01 0.  1.
         -5    1    3    3    0  502 -0.35065012367E+02  0.43350505926E+02 -0.37103220056E+02  0.67103970038E+02  0.41800000000E+01 0.  1.
        -11    1    1    2    0    0 -0.11890989363E+02 -0.33861093405E+02 -0.73107218002E+02  0.81440988443E+02  0.00000000000E+00 0. -1.
         11    1    1    2    0    0  0.62193993319E+01  0.47309228633E+02 -0.26105032506E+02  0.54390410589E+02  0.00000000000E+00 0.  1.
</event>
<event>
 7    1  0.2564986E-009  0.7674742E+02  0.7561462E-02  0.1338544E+00
         -2   -1    0    0    0  501 -0.00000000000E+00  0.00000000000E+00  0.28865846928E+02  0.28865846928E+02  0.00000000000E+00 0.  1.
          2   -1    0    0  501    0  0.00000000000E+00 -0.00000000000E+00 -0.54947290905E+03  0.54947290905E+03  0.00000000000E+00 0. -1.
         25    2    1    2    0    0  0.64901715601E+01 -0.30783397389E+02 -0.41550733244E+03  0.43506661314E+03  0.12508746809E+03 0.  0.
          5    1    3    3  502    0  0.37512579198E+02  0.19334175708E+02 -0.31971437496E+03  0.32251474060E+03  0.41800000000E+01 0.  1.
         -5    1    3    3    0  502 -0.31022407637E+02 -0.50117573097E+02 -0.95792957480E+02  0.11255187254E+03  0.41800000000E+01 0.  1.
        -11    1    1    2    0    0 -0.84772853002E+01  0.40857729020E+02 -0.11893499220E+03  0.12604265451E+03  0.00000000000E+00 0. -1.
         11    1    1    2    0    0  0.19871137401E+01 -0.10074331631E+02  0.13835262524E+02  0.17229488325E+02  0.00000000000E+00 0.  1.
</event>
<event>
 7    1  0.2564986E-009  0.9132308E+02  0.7561462E-02  0.1299679E+00
         -1   -1    0    0    0  501 -0.00000000000E+00  0.00000000000E+00  0.19620506264E+03  0.19620506264E+03  0.00000000000E+00 0.  1.
          1   -1    0    0  501    0  0.00000000000E+00 -0.00000000000E+00 -0.86576901739E+02  0.86576901739E+02  0.00000000000E+00 0. -1.
         25    2    1    2    0    0 -0.62179403455E+02  0.10733956488E+02  0.10882862051E+03  0.17740053044E+03  0.12508310647E+03 0.  0.
          5    1    3    3  502    0  0.71318150271E+01  0.31457659170E+02 -0.13503247351E+02  0.35217285459E+02  0.41800000000E+01 0.  1.
         -5    1    3    3    0  502 -0.69311218482E+02 -0.20723702683E+02  0.12233186786E+03  0.14218324498E+03  0.41800000000E+01 0.  1.
        -11    1    1    2    0    0  0.23532253148E+02  0.17892811014E+02 -0.34714065434E+02  0.45595898535E+02  0.00000000000E+00 0. -1.
         11    1    1    2    0    0  0.38647150306E+02 -0.28626767501E+02  0.35513605828E+02  0.59785535402E+02  0.00000000000E+00 0.  1.
</event>
<event>
 7    1  0.2564986E-009  0.1461596E+03  0.7561462E-02  0.1205273E+00
          2   -1    0    0  501    0  0.00000000000E+00  0.00000000000E+00  0.47270832014E+03  0.47270832014E+03  0.00000000000E+00 0. -1.
         -2   -1    0    0    0  501 -0.00000000000E+00 -0.00000000000E+00 -0.55778363209E+02  0.55778363209E+02  0.00000000000E+00 0.  1.
         25    2    1    2    0    0  0.11559058630E+03  0.29293366811E+02  0.25368502315E+03  0.30695748422E+03  0.12509005224E+03 0.  0.
          5    1    3    3  502    0  0.98302773831E+02  0.56895354959E+02  0.10515261800E+03  0.15483882663E+03  0.41800000000E+01 0.  1.
         -5    1    3    3    0  502  0.17287812466E+02 -0.27601988148E+02  0.14853240515E+03  0.15211865760E+03  0.41800000000E+01 0.  1.
        -11    1    1    2    0    0 -0.47817216363E+02  0.29432032129E+02  0.39264325515E+02  0.68515822655E+02  0.00000000000E+00 0.  1.
         11    1    1    2    0    0 -0.67773369934E+02 -0.58725398940E+02  0.12398060827E+03  0.15301337647E+03  0.00000000000E+00 0. -1.
</event>
<event>
 7    1  0.2564986E-009  0.1961646E+03  0.7561462E-02  0.1153016E+00
          4   -1    0    0  501    0  0.00000000000E+00  0.00000000000E+00  0.13888086554E+03  0.13888086554E+03  0.00000000000E+00 0. -1.
         -4   -1    0    0    0  501 -0.00000000000E+00 -0.00000000000E+00 -0.35167104328E+03  0.35167104328E+03  0.00000000000E+00 0.  1.
         25    2    1    2    0    0  0.66378881507E+02  0.17821396336E+03 -0.13636050669E+03  0.26534421980E+03  0.12508794725E+03 0.  0.
          5    1    3    3  502    0  0.94171160215E+01 -0.40620695710E+01 -0.57722878878E+02  0.58775723129E+02  0.41800000000E+01 0.  1.
         -5    1    3    3    0  502  0.56961765485E+02  0.18227603293E+03 -0.78637627817E+02  0.20656849667E+03  0.41800000000E+01 0.  1.
        -11    1    1    2    0    0 -0.17628291097E+02 -0.41290456360E+02 -0.65559047328E+02  0.79458461601E+02  0.00000000000E+00 0.  1.
         11    1    1    2    0    0 -0.48750590409E+02 -0.13692350700E+03 -0.10870623724E+02  0.14574922742E+03  0.00000000000E+00 0. -1.
</event>
<event>
 7    1  0.2979027E-009  0.1602603E+03  0.7561462E-02  0.1188403E+00
         -2   -1    0    0    0  501 -0.00000000000E+00  0.00000000000E+00  0.33007147759E+02  0.33007147759E+02  0.00000000000E+00 0. -1.
          2   -1    0    0  501    0  0.00000000000E+00 -0.00000000000E+00 -0.10995874948E+04  0.10995874948E+04  0.00000000000E+00 0.  1.
         25    2    1    2    0    0 -0.12795051675E+03  0.86117517772E+02 -0.63909554254E+03  0.66923711258E+03  0.12509052224E+03 0.  0.
          5    1    3    3  502    0 -0.11981374252E+03  0.84200786427E+02 -0.34278161656E+03  0.37277582323E+03  0.41800000000E+01 0.  1.
         -5    1    3    3    0  502 -0.81367742311E+01  0.19167313450E+01 -0.29631392598E+03  0.29646128935E+03  0.41800000000E+01 0.  1.
        -11    1    1    2    0    0  0.75042243362E+02 -0.82674266815E+02 -0.19314852313E+03  0.22309801583E+03  0.00000000000E+00 0. -1.
         11    1    1    2    0    0  0.52908273390E+02 -0.34432509566E+01 -0.23433628137E+03  0.24025951414E+03  0.00000000000E+00 0.  1.
</event>
<event>
 7    1  0.2564986E-009  0.1276264E+03  0.7561462E-02  0.1231021E+00
         -1   -1    0    0    0  501 -0.00000000000E+00  0.00000000000E+00  0.69036008337E+02  0.69036008337E+02  0.00000000000E+00 0.  1.
          1   -1    0    0  501    0  0.00000000000E+00 -0.00000000000E+00 -0.32122198843E+03  0.32122198843E+03  0.00000000000E+00 0. -1.
         25    2    1    2    0    0 -0.73980620144E+02  0.18751385683E+02 -0.48056999171E+02  0.15421257574E+03  0.12508915511E+03 0.  0.
          5    1    3    3  502    0 -0.97516272861E+02 -0.15491089931E+02 -0.12982305280E+02  0.99676526777E+02  0.41800000000E+01 0. -1.
         -5    1    3    3    0  502  0.23535652717E+02  0.34242475613E+02 -0.35074693891E+02  0.54536048963E+02  0.41800000000E+01 0. -1.
        -11    1    1    2    0    0  0.25514831649E+02 -0.50601533666E+02 -0.71078064442E+02  0.90904417320E+02  0.00000000000E+00 0.  1.
         11    1    1    2    0    0  0.48465788495E+02  0.31850147984E+02 -0.13305091648E+03  0.14514100371E+03  0.00000000000E+00 0. -1.
</event>
<event>
 7    1  0.2564986E-009  0.1422586E+03  0.7561462E-02  0.1210322E+00
         -2   -1    0    0    0  501 -0.00000000000E+00  0.00000000000E+00  0.43447515168E+02  0.43447515168E+02  0.00000000000E+00 0.  1.
          2   -1    0    0  501    0  0.00000000000E+00 -0.00000000000E+00 -0.67248753081E+03  0.67248753081E+03  0.00000000000E+00 0. -1.
         25    2    1    2    0    0  0.12992113681E+03  0.17353085367E+02 -0.30822451928E+03  0.35753295202E+03  0.12508727406E+03 0.  0.
          5    1    3    3  502    0  0.13327672601E+03  0.24828236986E+02 -0.31701371586E+03  0.34481052115E+03  0.41800000000E+01 0. -1.
         -5    1    3    3    0  502 -0.33555891955E+01 -0.74751516193E+01  0.87891965878E+01  0.12722430870E+02  0.41800000000E+01 0. -1.
        -11    1    1    2    0    0 -0.71133484307E+02  0.14832107825E+02 -0.25230787345E+03  0.26256280585E+03  0.00000000000E+00 0. -1.
         11    1    1    2    0    0 -0.58787652506E+02 -0.32185193192E+02 -0.68507622920E+02  0.95839288114E+02  0.00000000000E+00 0.  1.
</event>
<event>
 7    1  0.2564986E-009  0.2104224E+03  0.7561462E-02  0.1141232E+00
         -2   -1    0    0    0  501 -0.00000000000E+00  0.00000000000E+00  0.15675728633E+03  0.15675728633E+03  0.00000000000E+00 0. -1.
          2   -1    0    0  501    0  0.00000000000E+00 -0.00000000000E+00 -0.35579330540E+03  0.35579330540E+03  0.00000000000E+00 0.  1.
         25    2    1    2    0    0  0.17363456715E+03  0.74020005519E+02 -0.20216473616E+03  0.30355820518E+03  0.12509627995E+03 0.  0.
          5    1    3    3  502    0  0.18372541486E+03  0.56182828349E+02 -0.13941450942E+03  0.23741401834E+03  0.41800000000E+01 0. -1.
         -5    1    3    3    0  502 -0.10090847707E+02  0.17837177170E+02 -0.62750226738E+02  0.66144186838E+02  0.41800000000E+01 0. -1.
        -11    1    1    2    0    0  0.42415829917E+01 -0.22039898842E+02 -0.66803232071E+01  0.23417405607E+02  0.00000000000E+00 0.  1.
         11    1    1    2    0    0 -0.17787615015E+03 -0.51980106677E+02  0.98090402965E+01  0.18557498094E+03  0.00000000000E+00 0. -1.
</event>
<event>
 7    1  0.2892500E-009  0.1102001E+03  0.7561462E-02  0.1260200E+00
          2   -1    0    0  501    0  0.00000000000E+00  0.00000000000E+00  0.95176153317E+03  0.95176153317E+03  0.00000000000E+00 0. -1.
         -2   -1    0    0    0  501 -0.00000000000E+00 -0.00000000000E+00 -0.19640855976E+02  0.19640855976E+02  0.00000000000E+00 0.  1.
         25    2    1    2    0    0 -0.70500914421E+02 -0.28148344797E+02  0.62981132741E+03  0.64658535382E+03  0.12509038089E+03 0.  0.
          5    1    3    3  502    0  0.22008217703E+02  0.75463091106E+01  0.32852021338E+03  0.32936956663E+03  0.41800000000E+01 0. -1.
         -5    1    3    3    0  502 -0.92509132124E+02 -0.35694653907E+02  0.30129111403E+03  0.31721578718E+03  0.41800000000E+01 0. -1.
        -11    1    1    2    0    0  0.40223608917E+02 -0.16578200203E+02  0.23259168832E+03  0.23662558803E+03  0.00000000000E+00 0. -1.
         11    1    1    2    0    0  0.30277305504E+02  0.44726545000E+02  0.69717661469E+02  0.88191447300E+02  0.00000000000E+00 0.  1.
</event>
<event>
 7    1  0.2564986E-009  0.2941505E+03  0.7561462E-02  0.1088202E+00
         -1   -1    0    0    0  501 -0.00000000000E+00  0.00000000000E+00  0.75451692271E+02  0.75451692271E+02  0.00000000000E+00 0.  1.
          1   -1    0    0  501    0  0.00000000000E+00 -0.00000000000E+00 -0.12163279455E+04  0.12163279455E+04  0.00000000000E+00 0. -1.
         25    2    1    2    0    0  0.19859099758E+03  0.18936964202E+03 -0.71127346961E+03  0.77256508960E+03  0.12509046110E+03 0.  0.
          5    1    3    3  502    0  0.12310083417E+03  0.38520657963E+02 -0.24896141674E+03  0.28042274495E+03  0.41800000000E+01 0.  1.
         -5    1    3    3    0  502  0.75490163413E+02  0.15084898406E+03 -0.46231205287E+03  0.49214234465E+03  0.41800000000E+01 0.  1.
        -11    1    1    2    0    0 -0.24965208717E+02 -0.83502262909E+02 -0.10904370903E+03  0.13959376790E+03  0.00000000000E+00 0.  1.
         11    1    1    2    0    0 -0.17362578886E+03 -0.10586737911E+03 -0.32055907462E+03  0.37962078031E+03  0.00000000000E+00 0. -1.
</event>
<event>
 7    1  0.2564986E-009  0.1191515E+03  0.7561462E-02  0.1244503E+00
         -1   -1    0    0    0  501 -0.00000000000E+00  0.00000000000E+00  0.24761604865E+03  0.24761604865E+03  0.00000000000E+00 0.  1.
          1   -1    0    0  501    0  0.00000000000E+00 -0.00000000000E+00 -0.58197732502E+02  0.58197732502E+02  0.00000000000E+00 0. -1.
         25    2    1    2    0    0  0.50543626223E+02 -0.83827531639E+01  0.97369459716E+02  0.16659271622E+03  0.12508953878E+03 0.  0.
          5    1    3    3  502    0  0.86529319041E+02 -0.30190874979E+02  0.76434001157E+02  0.11940871375E+03  0.41800000000E+01 0. -1.
         -5    1    3    3    0  502 -0.35985692818E+02  0.21808121815E+02  0.20935458559E+02  0.47184002478E+02  0.41800000000E+01 0. -1.
        -11    1    1    2    0    0  0.14930560465E+02 -0.26256654078E+02  0.23111597976E+02  0.38032610746E+02  0.00000000000E+00 0. -1.
         11    1    1    2    0    0 -0.65474186687E+02  0.34639407242E+02  0.68937258457E+02  0.10118845418E+03  0.00000000000E+00 0.  1.
</event>
<event>
 7    1  0.2564986E-009  0.1004801E+03  0.7561462E-02  0.1279290E+00
          1   -1    0    0  501    0  0.00000000000E+00  0.00000000000E+00  0.81755106413E+02  0.81755106413E+02  0.00000000000E+00 0. -1.
         -1   -1    0    0    0  501 -0.00000000000E+00 -0.00000000000E+00 -0.20427626464E+03  0.20427626464E+03  0.00000000000E+00 0.  1.
         25    2    1    2    0    0  0.35473423774E+02 -0.15298862617E+02 -0.28235295097E+01  0.13095063526E+03  0.12509067737E+03 0.  0.
          5    1    3    3  502    0 -0.15391137994E+02 -0.53525366753E+02  0.25232898501E+02  0.61286406172E+02  0.41800000000E+01 0.  1.
         -5    1    3    3    0  502  0.50864561768E+02  0.38226504136E+02 -0.28056428011E+02  0.69664229092E+02  0.41800000000E+01 0.  1.
        -11    1    1    2    0    0 -0.20872051920E+02  0.44246778334E+02 -0.24905409739E+02  0.54897170952E+02  0.00000000000E+00 0. -1.
         11    1    1    2    0    0 -0.14601371854E+02 -0.28947915717E+02 -0.94792218983E+02  0.10018356484E+03  0.00000000000E+00 0.  1.
</event>
<event>
 7    1  0.2564986E-009  0.1551903E+03  0.7561462E-02  0.1194236E+00
         -3   -1    0    0    0  501 -0.00000000000E+00  0.00000000000E+00  0.76112906876E+02  0.76112906876E+02  0.00000000000E+00 0.  1.
          3   -1    0    0  501    0  0.00000000000E+00 -0.00000000000E+00 -0.39169205114E+03  0.39169205114E+03  0.00000000000E+00 0. -1.
         25    2    1    2    0    0  0.10678597337E+03 -0.81482865972E+02 -0.15329652941E+03  0.23914646834E+03  0.12509398800E+03 0.  0.
          5    1    3    3  502    0  0.59559477067E+02 -0.98775538913E+02 -0.53287747051E+02  0.12712590130E+03  0.41800000000E+01 0. -1.
         -5    1    3    3    0  502  0.47226496303E+02  0.17292672941E+02 -0.10000878236E+03  0.11202056704E+03  0.41800000000E+01 0. -1.
        -11    1    1    2    0    0 -0.10852690406E+03  0.62106160416E+02 -0.90682121192E+02  0.15446200559E+03  0.00000000000E+00 0.  1.
         11    1    1    2    0    0  0.17409306943E+01  0.19376705556E+02 -0.71600493665E+02  0.74196484088E+02  0.00000000000E+00 0. -1.
</event>
<event>
 7    1  0.2564986E-009  0.2379218E+03  0.7561462E-02  0.1121185E+00
         -1   -1    0    0    0  501 -0.00000000000E+00  0.00000000000E+00  0.29797751441E+03  0.29797751441E+03  0.00000000000E+00 0.  1.
          1   -1    0    0  501    0  0.00000000000E+00 -0.00000000000E+00 -0.26588767203E+03  0.26588767203E+03  0.00000000000E+00 0. -1.
         25    2    1    2    0    0  0.16374996179E+01 -0.22193118553E+03  0.15422081457E+03  0.29780620023E+03  0.12509332809E+03 0.  0.
          5    1    3    3  502    0 -0.22427232977E+02 -0.21271502729E+03  0.16437891163E+03  0.26979355552E+03  0.41800000000E+01 0. -1.
         -5    1    3    3    0  502  0.24064732595E+02 -0.92161582459E+01 -0.10158097062E+02  0.28012644709E+02  0.41800000000E+01 0. -1.
        -11    1    1    2    0    0 -0.40660367685E+02  0.11358978584E+03 -0.53261879622E+02  0.13188151034E+03  0.00000000000E+00 0.  1.
         11    1    1    2    0    0  0.39022868067E+02  0.10834139969E+03 -0.68869092561E+02  0.13417747587E+03  0.00000000000E+00 0. -1.
</event>
<event>
 7    1  0.2564986E-009  0.8236113E+02  0.7561462E-02  0.1322481E+00
         -1   -1    0    0    0  501 -0.00000000000E+00  0.00000000000E+00  0.26352762425E+02  0.26352762425E+02  0.00000000000E+00 0.  1.
          1   -1    0    0  501    0  0.00000000000E+00 -0.00000000000E+00 -0.53685215478E+03  0.53685215478E+03  0.00000000000E+00 0. -1.
         25    2    1    2    0    0  0.41766293944E+02 -0.17889785153E+02 -0.27641635062E+03  0.30678557136E+03  0.12508764999E+03 0.  0.
          5    1    3    3  502    0 -0.17074308208E+02 -0.51101402648E+01 -0.22978512160E+03  0.23051316675E+03  0.41800000000E+01 0. -1.
         -5    1    3    3    0  502  0.58840602152E+02 -0.12779644889E+02 -0.46631229018E+02  0.76272404608E+02  0.41800000000E+01 0. -1.
        -11    1    1    2    0    0  0.21117897230E+02  0.69349649329E+01 -0.11825542647E+02  0.25177426019E+02  0.00000000000E+00 0.  1.
         11    1    1    2    0    0 -0.62884191174E+02  0.10954820221E+02 -0.22225749909E+03  0.23124191983E+03  0.00000000000E+00 0. -1.
</event>
<event>
 7    1  0.2564986E-009  0.8569758E+02  0.7561462E-02  0.1313618E+00
         -3   -1    0    0    0  501 -0.00000000000E+00  0.00000000000E+00  0.33405095751E+03  0.33405095751E+03  0.00000000000E+00 0.  1.
          3   -1    0    0  501    0  0.00000000000E+00 -0.00000000000E+00 -0.38034948309E+02  0.38034948309E+02  0.00000000000E+00 0. -1.
         25    2    1    2    0    0 -0.11070385470E+02 -0.18775353367E+02  0.13465975766E+03  0.18507365000E+03  0.12507573011E+03 0.  0.
          5    1    3    3  502    0 -0.38961732582E+02  0.33880585287E+02  0.10775754299E+03  0.11956199704E+03  0.41800000000E+01 0. -1.
         -5    1    3    3    0  502  0.27891347112E+02 -0.52655938654E+02  0.26902214670E+02  0.65511652959E+02  0.41800000000E+01 0. -1.
        -11    1    1    2    0    0  0.29196607675E+02  0.27171760052E+02  0.16218645171E+03  0.16701853658E+03  0.00000000000E+00 0.  1.
         11    1    1    2    0    0 -0.18126222205E+02 -0.83964066842E+01 -0.83020016822E+00  0.19993719238E+02  0.00000000000E+00 0. -1.
</event>
<event>
 7    1  0.2564986E-009  0.1359155E+03  0.7561462E-02  0.1218933E+00
         -1   -1    0    0    0  501 -0.00000000000E+00  0.00000000000E+00  0.11124298061E+03  0.11124298061E+03  0.00000000000E+00 0. -1.
          1   -1    0    0  501    0  0.00000000000E+00 -0.00000000000E+00 -0.26506291624E+03  0.26506291624E+03  0.00000000000E+00 0.  1.
         25    2    1    2    0    0 -0.12255866366E+03 -0.54480937499E+01 -0.34028671098E+02  0.17848180565E+03  0.12508995454E+03 0.  0.
          5    1    3    3  502    0 -0.86937061880E+02 -0.16293715169E+02  0.38724270511E+02  0.96646673036E+02  0.41800000000E+01 0. -1.
         -5    1    3    3    0  502 -0.35621601784E+02  0.10845621419E+02 -0.72752941609E+02  0.81835132616E+02  0.41800000000E+01 0. -1.
        -11    1    1    2    0    0  0.99591282049E+02 -0.29610232142E+02 -0.11602041902E+03  0.15574314411E+03  0.00000000000E+00 0.  1.
         11    1    1    2    0    0  0.22967381615E+02  0.35058325892E+02 -0.37708455110E+01  0.42080947096E+02  0.00000000000E+00 0. -1.
</event>
<event>
 7    1  0.2564986E-009  0.1504417E+03  0.7561462E-02  0.1199931E+00
         -2   -1    0    0    0  501 -0.00000000000E+00  0.00000000000E+00  0.65774823960E+02  0.65774823960E+02  0.00000000000E+00 0.  1.
          2   -1    0    0  501    0  0.00000000000E+00 -0.00000000000E+00 -0.68081210671E+03  0.68081210671E+03  0.00000000000E+00 0. -1.
         25    2    1    2    0    0 -0.73708088705E+02 -0.78193014361E+02 -0.57555487203E+03  0.59871370547E+03  0.12509060942E+03 0.  0.
          5    1    3    3  502    0 -0.73590352839E+02  0.11381522440E+02 -0.28806217662E+03  0.29756069815E+03  0.41800000000E+01 0. -1.
         -5    1    3    3    0  502 -0.11773586574E+00 -0.89574536801E+02 -0.28749269541E+03  0.30115300733E+03  0.41800000000E+01 0. -1.
        -11    1    1    2    0    0  0.89418841779E+02  0.81021161465E+02 -0.47901700133E+02  0.12982577073E+03  0.00000000000E+00 0. -1.
         11    1    1    2    0    0 -0.15710753074E+02 -0.28281471041E+01  0.84192894200E+01  0.18047454462E+02  0.00000000000E+00 0.  1.
</event>
<event>
 7    1  0.2564986E-009  0.1243770E+03  0.7561462E-02  0.1236046E+00
          2   -1    0    0  501    0  0.00000000000E+00  0.00000000000E+00  0.10322292076E+04  0.10322292076E+04  0.00000000000E+00 0. -1.
         -2   -1    0    0    0  501 -0.00000000000E+00 -0.00000000000E+00 -0.17129196431E+02  0.17129196431E+02  0.00000000000E+00 0.  1.
         25    2    1    2    0    0 -0.58485291673E+02 -0.19845023171E+02  0.73507292765E+03  0.74819348483E+03  0.12508767924E+03 0.  0.
          5    1    3    3  502    0  0.86815378857E+01  0.44716099230E+02  0.27266350071E+03  0.27647378836E+03  0.41800000000E+01 0.  1.
         -5    1    3    3    0  502 -0.67166829559E+02 -0.64561122401E+02  0.46240942694E+03  0.47171969648E+03  0.41800000000E+01 0.  1.
        -11    1    1    2    0    0  0.39112961172E+02  0.56252085749E+02  0.19449519955E+03  0.20620985314E+03  0.00000000000E+00 0.  1.
         11    1    1    2    0    0  0.19372330501E+02 -0.36407062578E+02  0.85531883928E+02  0.94955066020E+02  0.00000000000E+00 0. -1.
</event>
<event>
 7    1  0.2564986E-009  0.1159134E+03  0.7561462E-02  0.1249995E+00
         -2   -1    0    0    0  501 -0.00000000000E+00  0.00000000000E+00  0.56631046936E+03  0.56631046936E+03  0.00000000000E+00 0.  1.
          2   -1    0    0  501    0  0.00000000000E+00 -0.00000000000E+00 -0.25875609967E+02  0.25875609967E+02  0.00000000000E+00 0. -1.
         25    2    1    2    0    0 -0.30726085475E+02  0.42545608757E+02  0.34781989580E+03  0.37333771067E+03  0.12509254629E+03 0.  0.
          5    1    3    3  502    0  0.73712284054E+01  0.76824427271E+02  0.26326255190E+03  0.27437378021E+03  0.41800000000E+01 0. -1.
         -5    1    3    3    0  502 -0.38097313880E+02 -0.34278818514E+02  0.84557343901E+02  0.98963930456E+02  0.41800000000E+01 0. -1.
        -11    1    1    2    0    0  0.19839937365E+02  0.26564264635E+02  0.74936333528E+02  0.81943500981E+02  0.00000000000E+00 0.  1.
         11    1    1    2    0    0  0.10886148110E+02 -0.69109873393E+02  0.11767863006E+03  0.13690486768E+03  0.00000000000E+00 0. -1.
</event>
<event>
 7    1  0.2564986E-009  0.1080972E+03  0.7561462E-02  0.1264135E+00
          2   -1    0    0  501    0  0.00000000000E+00  0.00000000000E+00  0.89097340454E+02  0.89097340454E+02  0.00000000000E+00 0.  1.
         -2   -1    0    0    0  501 -0.00000000000E+00 -0.00000000000E+00 -0.14817200528E+03  0.14817200528E+03  0.00000000000E+00 0. -1.
         25    2    1    2    0    0  0.35504025781E+02  0.17927112813E+02 -0.44415588277E+02  0.13856851559E+03  0.12508625748E+03 0.  0.
          5    1    3    3  502    0  0.65247497767E+02  0.45267028580E+02 -0.15789757480E+01  0.79538075195E+02  0.41800000000E+01 0.  1.
         -5    1    3    3    0  502 -0.29743471986E+02 -0.27339915767E+02 -0.42836612529E+02  0.59030440392E+02  0.41800000000E+01 0.  1.
        -11    1    1    2    0    0 -0.56837318154E+02  0.13171862688E+02 -0.17415507738E+02  0.60887425725E+02  0.00000000000E+00 0.  1.
         11    1    1    2    0    0  0.21333292373E+02 -0.31098975501E+02  0.27564311937E+01  0.37813404417E+02  0.00000000000E+00 0. -1.
</event>
<event>
 7    1  0.2564986E-009  0.1234032E+03  0.7561462E-02  0.1237586E+00
         -3   -1    0    0    0  501 -0.00000000000E+00  0.00000000000E+00  0.23799926170E+03  0.23799926170E+03  0.00000000000E+00 0.  1.
          3   -1    0    0  501    0  0.00000000000E+00 -0.00000000000E+00 -0.10751131728E+03  0.10751131728E+03  0.00000000000E+00 0. -1.
         25    2    1    2    0    0 -0.48457359803E+02 -0.47976791857E+02  0.17102312410E+03  0.22259213252E+03  0.12509380563E+03 0.  0.
          5    1    3    3  502    0  0.18306171078E+02 -0.67464374986E+02  0.10755354270E+03  0.12834249000E+03  0.41800000000E+01 0.  1.
         -5    1    3    3    0  502 -0.66763530881E+02  0.19487583129E+02  0.63469581397E+02  0.94249642518E+02  0.41800000000E+01 0.  1.
        -11    1    1    2    0    0  0.66549695834E+01  0.62496838030E+02 -0.46615183556E+02  0.78250359244E+02  0.00000000000E+00 0. -1.
         11    1    1    2    0    0  0.41802390220E+02 -0.14520046174E+02  0.60800038840E+01  0.44668087224E+02  0.00000000000E+00 0.  1.
</event>
<event>
 7    1  0.2564986E-009  0.1405746E+03  0.7561462E-02  0.1212558E+00
         -2   -1    0    0    0  501 -0.00000000000E+00  0.00000000000E+00  0.20972626231E+02  0.20972626231E+02  0.00000000000E+00 0.  1.
          2   -1    0    0  501    0  0.00000000000E+00 -0.00000000000E+00 -0.11486488131E+04  0.11486488131E+04  0.00000000000E+00 0. -1.
         25    2    1    2    0    0 -0.15134444367E+01  0.93873102502E+02 -0.82669390915E+03  0.84135869514E+03  0.12508870678E+03 0.  0.
          5    1    3    3  502    0 -0.18904881713E+02 -0.27541764848E+02 -0.17396839590E+03  0.17719598905E+03  0.41800000000E+01 0. -1.
         -5    1    3    3    0  502  0.17391437277E+02  0.12141486735E+03 -0.65272551326E+03  0.66416270609E+03  0.41800000000E+01 0. -1.
        -11    1    1    2    0    0 -0.40255627278E+02 -0.49811430044E+02 -0.10401628552E+03  0.12215187982E+03  0.00000000000E+00 0.  1.
         11    1    1    2    0    0  0.41769071714E+02 -0.44061672459E+02 -0.19696599224E+03  0.20611086442E+03  0.00000000000E+00 0. -1.
</event>
<event>
 7    1  0.2564986E-009  0.1121475E+03  0.7561462E-02  0.1256644E+00
          2   -1    0    0  501    0  0.00000000000E+00  0.00000000000E+00  0.39654888487E+03  0.39654888487E+03  0.00000000000E+00 0.  1.
         -2   -1    0    0    0  501 -0.00000000000E+00 -0.00000000000E+00 -0.55457208286E+02  0.55457208286E+02  0.00000000000E+00 0. -1.
         25    2    1    2    0    0 -0.49100308971E+02  0.84246658917E+02  0.14945433636E+03  0.21792743645E+03  0.12508968390E+03 0.  0.
          5    1    3    3  502    0 -0.54051719282E+02  0.91920270495E+02  0.49793120628E+02  0.11776141875E+03  0.41800000000E+01 0. -1.
         -5    1    3    3    0  502  0.49514103114E+01 -0.76736115778E+01  0.99661215735E+02  0.10016601769E+03  0.41800000000E+01 0. -1.
        -11    1    1    2    0    0  0.37097217221E+02 -0.19937947391E+02  0.15168772306E+03  0.15742582570E+03  0.00000000000E+00 0.  1.
         11    1    1    2    0    0  0.12003091750E+02 -0.64308711526E+02  0.39949617164E+02  0.76652831006E+02  0.00000000000E+00 0. -1.
</event>
<event>
 7    1  0.2564986E-009  0.1060027E+03  0.7561462E-02  0.1268157E+00
          1   -1    0    0  501    0  0.00000000000E+00  0.00000000000E+00  0.27578807411E+03  0.27578807411E+03  0.00000000000E+00 0. -1.
         -1   -1    0    0    0  501 -0.00000000000E+00 -0.00000000000E+00 -0.77333433355E+02  0.77333433355E+02  0.00000000000E+00 0.  1.
         25    2    1    2    0    0  0.40148392911E+02  0.79331056781E+02  0.16531385704E+03  0.22557504986E+03  0.12510044672E+03 0.  0.
          5    1    3    3  502    0  0.65238781636E+02  0.42923788485E+02  0.31027974307E+02  0.84135354263E+02  0.41800000000E+01 0. -1.
         -5    1    3    3    0  502 -0.25090388726E+02  0.36407268296E+02  0.13428588273E+03  0.14143969560E+03  0.41800000000E+01 0. -1.
        -11    1    1    2    0    0 -0.26072148247E+02 -0.41363860184E+02 -0.26380239312E+02  0.55557563569E+02  0.00000000000E+00 0.  1.
         11    1    1    2    0    0 -0.14076244664E+02 -0.37967196597E+02  0.59521023026E+02  0.71988894028E+02  0.00000000000E+00 0. -1.
</event>
<event>
 7    1  0.2564986E-009  0.2125016E+03  0.7561462E-02  0.1139600E+00
          2   -1    0    0  501    0  0.00000000000E+00  0.00000000000E+00  0.49520884262E+03  0.49520884262E+03  0.00000000000E+00 0. -1.
         -2   -1    0    0    0  501 -0.00000000000E+00 -0.00000000000E+00 -0.15088899900E+03  0.15088899900E+03  0.00000000000E+00 0.  1.
         25    2    1    2    0    0 -0.18796075871E+03 -0.78375215216E+02  0.31876815182E+03  0.39841281475E+03  0.12509082766E+03 0.  0.
          5    1    3    3  502    0  0.76934141119E+01  0.32198233441E+01  0.73978872969E+02  0.74564749908E+02  0.41800000000E+01 0.  1.
         -5    1    3    3    0  502 -0.19565417282E+03 -0.81595038560E+02  0.24478927885E+03  0.32384806484E+03  0.41800000000E+01 0.  1.
        -11    1    1    2    0    0  0.11959426892E+03  0.49951793944E+02  0.83057296280E+02  0.15393662768E+03  0.00000000000E+00 0. -1.
         11    1    1    2    0    0  0.68366489786E+02  0.28423421273E+02 -0.57505604484E+02  0.93748399184E+02  0.00000000000E+00 0.  1.
</event>
<event>
 7    1  0.2564986E-009  0.2070695E+03  0.7561462E-02  0.1143908E+00
          1   -1    0    0  501    0  0.00000000000E+00  0.00000000000E+00  0.86920134791E+03  0.86920134791E+03  0.00000000000E+00 0. -1.
         -1   -1    0    0    0  501 -0.00000000000E+00 -0.00000000000E+00 -0.66799415553E+02  0.66799415553E+02  0.00000000000E+00 0.  1.
         25    2    1    2    0    0  0.72297202561E+02 -0.18020770406E+03  0.22926569216E+03  0.32544032041E+03  0.12508773899E+03 0.  0.
          5    1    3    3  502    0  0.96178884716E+02 -0.11262030756E+03  0.19757000421E+03  0.24695159546E+03  0.41800000000E+01 0. -1.
         -5    1    3    3    0  502 -0.23881682155E+02 -0.67587396502E+02  0.31695687951E+02  0.78488724942E+02  0.41800000000E+01 0. -1.
        -11    1    1    2    0    0 -0.28349917636E+02  0.72695834914E+02  0.35452718862E+03  0.36301229967E+03  0.00000000000E+00 0. -1.
         11    1    1    2    0    0 -0.43947284925E+02  0.10751186915E+03  0.21860905159E+03  0.24754814339E+03  0.00000000000E+00 0.  1.
</event>
<event>
 7    1  0.2564986E-009  0.1003812E+03  0.7561462E-02  0.1279496E+00
         -2   -1    0    0    0  501 -0.00000000000E+00  0.00000000000E+00  0.90727730156E+02  0.90727730156E+02  0.00000000000E+00 0.  1.
          2   -1    0    0  501    0  0.00000000000E+00 -0.00000000000E+00 -0.21683690432E+03  0.21683690432E+03  0.00000000000E+00 0. -1.
         25    2    1    2    0    0 -0.13148893216E+01  0.74985450743E+02 -0.19130011686E+02  0.14709099794E+03  0.12508100404E+03 0.  0.
          5    1    3    3  502    0  0.31218052720E+02  0.60339051427E+02  0.39230462962E+02  0.78561247233E+02  0.41800000000E+01 0. -1.
         -5    1    3    3    0  502 -0.32532942041E+02  0.14646399316E+02 -0.58360474648E+02  0.68529750707E+02  0.41800000000E+01 0. -1.
        -11    1    1    2    0    0 -0.29789732954E+02 -0.32041305613E+02 -0.97147542096E+02  0.10654444326E+03  0.00000000000E+00 0. -1.
         11    1    1    2    0    0  0.31104622275E+02 -0.42944145130E+02 -0.98316203832E+01  0.53929193274E+02  0.00000000000E+00 0.  1.
</event>
<event>
 7    1  0.2564986E-009  0.1349054E+03  0.7561462E-02  0.1220353E+00
         -1   -1    0    0    0  501 -0.00000000000E+00  0.00000000000E+00  0.33645938269E+02  0.33645938269E+02  0.00000000000E+00 0.  1.
          1   -1    0    0  501    0  0.00000000000E+00 -0.00000000000E+00 -0.77988128836E+03  0.77988128836E+03  0.00000000000E+00 0. -1.
         25    2    1    2    0    0 -0.96865941613E+02 -0.53151747835E+02 -0.28356679045E+03  0.32903948509E+03  0.12509492060E+03 0.  0.
          5    1    3    3  502    0 -0.10448572980E+03 -0.34341146851E+01 -0.12704354392E+03  0.16458005751E+03  0.41800000000E+01 0. -1.
         -5    1    3    3    0  502  0.76197881910E+01 -0.49717633150E+02 -0.15652324652E+03  0.16445942758E+03  0.41800000000E+01 0. -1.
        -11    1    1    2    0    0  0.28860647837E+02  0.76596645032E+00 -0.24131352210E+02  0.37627727245E+02  0.00000000000E+00 0.  1.
         11    1    1    2    0    0  0.68005293776E+02  0.52385781384E+02 -0.43853720744E+03  0.44686001430E+03  0.00000000000E+00 0. -1.
</event>
<event>
 7    1  0.2564986E-009  0.9244988E+02  0.7561462E-02  0.1297025E+00
         -1   -1    0    0    0  501 -0.00000000000E+00  0.00000000000E+00  0.42518053069E+02  0.42518053069E+02  0.00000000000E+00 0.  1.
          1   -1    0    0  501    0  0.00000000000E+00 -0.00000000000E+00 -0.36925676316E+03  0.36925676316E+03  0.00000000000E+00 0. -1.
         25    2    1    2    0    0  0.27231626380E+02  0.12780583149E+01 -0.91291122120E+02  0.15724307736E+03  0.12509245178E+03 0.  0.
          5    1    3    3  502    0  0.45291991455E+02  0.35615833868E+02 -0.10160589880E+03  0.11688063647E+03  0.41800000000E+01 0. -1.
         -5    1    3    3    0  502 -0.18060365075E+02 -0.34337775553E+02  0.10314776676E+02  0.40362440888E+02  0.41800000000E+01 0. -1.
        -11    1    1    2    0    0 -0.54058692234E+02 -0.17423477132E+02 -0.95405756702E+02  0.11103232941E+03  0.00000000000E+00 0. -1.
         11    1    1    2    0    0  0.26827065854E+02  0.16145418817E+02 -0.14004183127E+03  0.14349940947E+03  0.00000000000E+00 0.  1.
</event>
<event>
 7    1  0.2564986E-009  0.1106536E+03  0.7561462E-02  0.1259364E+00
          2   -1    0    0  501    0  0.00000000000E+00  0.00000000000E+00  0.51943740474E+03  0.51943740474E+03  0.00000000000E+00 0. -1.
         -2   -1    0    0    0  501 -0.00000000000E+00 -0.00000000000E+00 -0.31328189276E+02  0.31328189276E+02  0.00000000000E+00 0.  1.
         25    2    1    2    0    0  0.12142366011E+02  0.49612940930E+02  0.36740109518E+03  0.39145897970E+03  0.12509071546E+03 0.  0.
          5    1    3    3  502    0 -0.43084639229E+02 -0.11065886781E+01  0.54163953789E+02  0.69344913051E+02  0.41800000000E+01 0. -1.
         -5    1    3    3    0  502  0.55227005240E+02  0.50719529608E+02  0.31323714139E+03  0.32211406665E+03  0.41800000000E+01 0. -1.
        -11    1    1    2    0    0 -0.32976309175E+02 -0.67708039332E+02  0.77714196989E+02  0.10821881523E+03  0.00000000000E+00 0.  1.
         11    1    1    2    0    0  0.20833943164E+02  0.18095098402E+02  0.42993923294E+02  0.51087799073E+02  0.00000000000E+00 0. -1.
</event>
<event>
 7    1  0.2564986E-009  0.1104923E+03  0.7561462E-02  0.1259661E+00
         -2   -1    0    0    0  501 -0.00000000000E+00  0.00000000000E+00  0.29952232309E+03  0.29952232309E+03  0.00000000000E+00 0.  1.
          2   -1    0    0  501    0  0.00000000000E+00 -0.00000000000E+00 -0.46201136010E+02  0.46201136010E+02  0.00000000000E+00 0. -1.
         25    2    1    2    0    0  0.17667069279E+02  0.40109642897E+02  0.15824863033E+03  0.20642462644E+03  0.12509032181E+03 0.  0.
          5    1    3    3  502    0  0.64561547346E+02  0.41825722840E+02  0.13107329166E+03  0.15203705033E+03  0.41800000000E+01 0.  1.
         -5    1    3    3    0  502 -0.46894478067E+02 -0.17160799427E+01  0.27175338671E+02  0.54387576113E+02  0.41800000000E+01 0.  1.
        -11    1    1    2    0    0 -0.52745001618E+02 -0.20065712220E+02  0.33414244702E+02  0.65583380148E+02  0.00000000000E+00 0.  1.
         11    1    1    2    0    0  0.35077932339E+02 -0.20043930677E+02  0.61658312051E+02  0.73715452513E+02  0.00000000000E+00 0. -1.
</event>
<event>
 7    1  0.2657872E-009  0.1197031E+03  0.7561462E-02  0.1243588E+00
          1   -1    0    0  501    0  0.00000000000E+00  0.00000000000E+00  0.22904098466E+03  0.22904098466E+03  0.00000000000E+00 0. -1.
         -1   -1    0    0    0  501 -0.00000000000E+00 -0.00000000000E+00 -0.73367678984E+02  0.73367678984E+02  0.00000000000E+00 0.  1.
         25    2    1    2    0    0 -0.22603442640E+02  0.63399211567E+02  0.61529515688E+02  0.15480359785E+03  0.12509155431E+03 0.  0.
          5    1    3    3  502    0 -0.71113602356E+02  0.23445757245E+02  0.51622799709E+02  0.91045229543E+02  0.41800000000E+01 0.  1.
         -5    1    3    3    0  502  0.48510159716E+02  0.39953454322E+02  0.99067159786E+01  0.63758368309E+02  0.41800000000E+01 0.  1.
        -11    1    1    2    0    0  0.14850489161E+02  0.15895874483E+02 -0.30091612288E+01  0.21960667231E+02  0.00000000000E+00 0.  1.
         11    1    1    2    0    0  0.77529534784E+01 -0.79295086050E+02  0.97152951215E+02  0.12564439856E+03  0.00000000000E+00 0. -1.
</event>
<event>
 7    1  0.2564986E-009  0.1466295E+03  0.7561462E-02  0.1204677E+00
          3   -1    0    0  501    0  0.00000000000E+00  0.00000000000E+00  0.32454811472E+03  0.32454811472E+03  0.00000000000E+00 0. -1.
         -3   -1    0    0    0  501 -0.00000000000E+00 -0.00000000000E+00 -0.69261138438E+02  0.69261138438E+02  0.00000000000E+00 0.  1.
         25    2    1    2    0    0 -0.41991064972E+02  0.93289773833E+02  0.14920029763E+03  0.21994604000E+03  0.12509716327E+03 0.  0.
          5    1    3    3  502    0  0.22655568828E+02 -0.17950712475E+02  0.48057171471E+02  0.56235816052E+02  0.41800000000E+01 0. -1.
         -5    1    3    3    0  502 -0.64646633800E+02  0.11124048631E+03  0.10114312616E+03  0.16371022395E+03  0.41800000000E+01 0. -1.
        -11    1    1    2    0    0  0.48226173680E+02 -0.10858196702E+03  0.80873857579E+02  0.14372330441E+03  0.00000000000E+00 0. -1.
         11    1    1    2    0    0 -0.62351087085E+01  0.15292193187E+02  0.25212821074E+02  0.30139908752E+02  0.00000000000E+00 0.  1.
</event>
<event>
 7    1  0.2564986E-009  0.7605187E+02  0.7561462E-02  0.1340644E+00
         -1   -1    0    0    0  501 -0.00000000000E+00  0.00000000000E+00  0.28086571055E+02  0.28086571055E+02  0.00000000000E+00 0.  1.
          1   -1    0    0  501    0  0.00000000000E+00 -0.00000000000E+00 -0.46812393612E+03  0.46812393612E+03  0.00000000000E+00 0. -1.
         25    2    1    2    0    0 -0.26044635364E+02 -0.23994424042E+02 -0.27461903218E+03  0.30383941226E+03  0.12509484479E+03 0.  0.
          5    1    3    3  502    0 -0.37733774791E+02 -0.19967311490E+02 -0.28434545620E+03  0.28756276210E+03  0.41800000000E+01 0. -1.
         -5    1    3    3    0  502  0.11689139427E+02 -0.40271125515E+01  0.97264240212E+01  0.16276650156E+02  0.41800000000E+01 0. -1.
        -11    1    1    2    0    0 -0.19431037993E+02 -0.23439305753E+02 -0.35407976255E+02  0.46697870125E+02  0.00000000000E+00 0.  1.
         11    1    1    2    0    0  0.45475673357E+02  0.47433729795E+02 -0.13001035664E+03  0.14567322479E+03  0.00000000000E+00 0. -1.
</event>
<event>
 7    1  0.2564986E-009  0.1247871E+03  0.7561462E-02  0.1235402E+00
          4   -1    0    0  501    0  0.00000000000E+00  0.00000000000E+00  0.10081553762E+03  0.10081553762E+03  0.00000000000E+00 0. -1.
         -4   -1    0    0    0  501 -0.00000000000E+00 -0.00000000000E+00 -0.24495815922E+03  0.24495815922E+03  0.00000000000E+00 0.  1.
         25    2    1    2    0    0 -0.34640415110E+02  0.94271621467E+02 -0.13641030755E+03  0.21057686350E+03  0.12509095275E+03 0.  0.
          5    1    3    3  502    0  0.53825126670E+01 -0.21999400376E+02 -0.63526176355E+02  0.67572128439E+02  0.41800000000E+01 0.  1.
         -5    1    3    3    0  502 -0.40022927777E+02  0.11627102184E+03 -0.72884131198E+02  0.14300473506E+03  0.41800000000E+01 0.  1.
        -11    1    1    2    0    0  0.13029108060E+02 -0.69153412309E+02 -0.46387084436E+02  0.84283531567E+02  0.00000000000E+00 0.  1.
         11    1    1    2    0    0  0.21611307050E+02 -0.25118209158E+02  0.38654770390E+02  0.50913301775E+02  0.00000000000E+00 0. -1.
</event>
<event>
 7    1  0.2564986E-009  0.9904753E+02  0.7561462E-02  0.1282312E+00
          2   -1    0    0  501    0  0.00000000000E+00  0.00000000000E+00  0.18108313303E+03  0.18108313303E+03  0.00000000000E+00 0. -1.
         -2   -1    0    0    0  501 -0.00000000000E+00 -0.00000000000E+00 -0.65975780156E+02  0.65975780156E+02  0.00000000000E+00 0.  1.
         25    2    1    2    0    0  0.19486308124E+02 -0.58941296273E+01  0.60155320745E+02  0.14027549242E+03  0.12507635344E+03 0.  0.
          5    1    3    3  502    0 -0.36291588063E+02  0.28624518615E+02  0.58305393003E+02  0.74521363938E+02  0.41800000000E+01 0.  1.
         -5    1    3    3    0  502  0.55777896187E+02 -0.34518648242E+02  0.18499277428E+01  0.65754128480E+02  0.41800000000E+01 0.  1.
        -11    1    1    2    0    0 -0.21618034004E+02 -0.37084335862E+02  0.90570783863E+01  0.43870468762E+02  0.00000000000E+00 0.  1.
         11    1    1    2    0    0  0.21317258800E+01  0.42978465489E+02  0.45894953744E+02  0.62912952007E+02  0.00000000000E+00 0. -1.
</event>
<event>
 7    1  0.2564986E-009  0.8686079E+02  0.7561462E-02  0.1310637E+00
          1   -1    0    0  501    0  0.00000000000E+00  0.00000000000E+00  0.30527796030E+03  0.30527796030E+03  0.00000000000E+00 0. -1.
         -1   -1    0    0    0  501 -0.00000000000E+00 -0.00000000000E+00 -0.11709545840E+03  0.11709545840E+03  0.00000000000E+00 0.  1.
         25    2    1    2    0    0  0.39104396484E+02  0.75222750151E+02  0.23467717286E+03  0.27912137506E+03  0.12509096927E+03 0.  0.
          5    1    3    3  502    0  0.11464528220E+02  0.94830009113E+01 -0.13714049080E+02  0.20661806692E+02  0.41800000000E+01 0.  1.
         -5    1    3    3    0  502  0.27639868264E+02  0.65739749240E+02  0.24839122194E+03  0.25845956837E+03  0.41800000000E+01 0.  1.
        -11    1    1    2    0    0 -0.10474004848E+02 -0.63603155097E+01  0.32429108952E+02  0.34667066481E+02  0.00000000000E+00 0. -1.
         11    1    1    2    0    0 -0.28630391636E+02 -0.68862434642E+02 -0.78923779909E+02  0.10858497716E+03  0.00000000000E+00 0.  1.
</event>
<event>
 7    1  0.3473743E-009  0.1233813E+03  0.7561462E-02  0.1237621E+00
         -2   -1    0    0    0  501 -0.00000000000E+00  0.00000000000E+00  0.92138196447E+02  0.92138196447E+02  0.00000000000E+00 0.  1.
          2   -1    0    0  501    0  0.00000000000E+00 -0.00000000000E+00 -0.23512271597E+03  0.23512271597E+03  0.00000000000E+00 0. -1.
         25    2    1    2    0    0  0.35850212772E+02  0.81565466728E+02 -0.29064403084E+02  0.15630281321E+03  0.12509063423E+03 0.  0.
          5    1    3    3  502    0 -0.36080123576E+02 -0.94131023135E+01 -0.68204408742E+01  0.38136237703E+02  0.41800000000E+01 0.  1.
         -5    1    3    3    0  502  0.71930336348E+02  0.90978569042E+02 -0.22243962209E+02  0.11816657551E+03  0.41800000000E+01 0.  1.
        -11    1    1    2    0    0 -0.18728996126E+02 -0.70155367235E+02 -0.20715422311E+02  0.75509466753E+02  0.00000000000E+00 0.  1.
         11    1    1    2    0    0 -0.17121216646E+02 -0.11410099493E+02 -0.93204694125E+02  0.95448632451E+02  0.00000000000E+00 0. -1.
</event>
<event>
 7    1  0.2564986E-009  0.1483654E+03  0.7561462E-02  0.1202496E+00
         -2   -1    0    0    0  501 -0.00000000000E+00  0.00000000000E+00  0.16273341971E+03  0.16273341971E+03  0.00000000000E+00 0.  1.
          2   -1    0    0  501    0  0.00000000000E+00 -0.00000000000E+00 -0.16189662446E+03  0.16189662446E+03  0.00000000000E+00 0. -1.
         25    2    1    2    0    0  0.70267176095E+02 -0.90704726021E+02  0.37763950889E+02  0.17389305798E+03  0.12509139166E+03 0.  0.
          5    1    3    3  502    0  0.96382026389E+02 -0.90573632349E+02  0.58666603895E+01  0.13245741954E+03  0.41800000000E+01 0. -1.
         -5    1    3    3    0  502 -0.26114850294E+02 -0.13109367226E+00  0.31897290499E+02  0.41435638436E+02  0.41800000000E+01 0. -1.
        -11    1    1    2    0    0 -0.37366589846E+02 -0.41129857174E+01 -0.33439534696E+02  0.50312833044E+02  0.00000000000E+00 0. -1.
         11    1    1    2    0    0 -0.32900586249E+02  0.94817711738E+02 -0.34876209424E+01  0.10042415314E+03  0.00000000000E+00 0.  1.
</event>
<event>
 7    1  0.2564986E-009  0.1715720E+03  0.7561462E-02  0.1176218E+00
         -1   -1    0    0    0  501 -0.00000000000E+00  0.00000000000E+00  0.18272892745E+03  0.18272892745E+03  0.00000000000E+00 0.  1.
          1   -1    0    0  501    0  0.00000000000E+00 -0.00000000000E+00 -0.18859611645E+03  0.18859611645E+03  0.00000000000E+00 0. -1.
         25    2    1    2    0    0  0.97935010210E+02  0.11232315503E+03 -0.23378069886E+02  0.19596191791E+03  0.12508709662E+03 0.  0.
          5    1    3    3  502    0  0.25687538218E+02  0.11359981063E+03  0.85438187288E+01  0.11685561961E+03  0.41800000000E+01 0. -1.
         -5    1    3    3    0  502  0.72247471992E+02 -0.12766556041E+01 -0.31921888615E+02  0.79106298305E+02  0.41800000000E+01 0. -1.
        -11    1    1    2    0    0 -0.46161305687E+02 -0.24465951977E+02 -0.32762366684E+02  0.61667022140E+02  0.00000000000E+00 0. -1.
         11    1    1    2    0    0 -0.51773704524E+02 -0.87857203052E+02  0.50273247566E+02  0.11369610384E+03  0.00000000000E+00 0.  1.
</event>
<event>
 7    1  0.2564986E-009  0.4133027E+03  0.7561462E-02  0.1039268E+00
         -1   -1    0    0    0  501 -0.00000000000E+00  0.00000000000E+00  0.17716128023E+03  0.17716128023E+03  0.00000000000E+00 0.  1.
          1   -1    0    0  501    0  0.00000000000E+00 -0.00000000000E+00 -0.14264767273E+04  0.14264767273E+04  0.00000000000E+00 0. -1.
         25    2    1    2    0    0  0.35365820297E+03 -0.18858845315E+03 -0.17755107398E+03  0.45586145017E+03  0.12508216775E+03 0.  0.
          5    1    3    3  502    0 -0.64202095477E+01 -0.18486231075E+02 -0.17720511456E+02  0.26729174253E+02  0.41800000000E+01 0.  1.
         -5    1    3    3    0  502  0.36007841252E+03 -0.17010222207E+03 -0.15983056253E+03  0.42913227591E+03  0.41800000000E+01 0.  1.
        -11    1    1    2    0    0 -0.48715989933E+02  0.60271173459E+02 -0.15844935944E+03  0.17638611491E+03  0.00000000000E+00 0.  1.
         11    1    1    2    0    0 -0.30494221304E+03  0.12831727969E+03 -0.91331501365E+03  0.97139044246E+03  0.00000000000E+00 0. -1.
</event>
<event>
 7    1  0.2564986E-009  0.1195512E+03  0.7561462E-02  0.1243839E+00
         -2   -1    0    0    0  501 -0.00000000000E+00  0.00000000000E+00  0.39216810002E+03  0.39216810002E+03  0.00000000000E+00 0.  1.
          2   -1    0    0  501    0  0.00000000000E+00 -0.00000000000E+00 -0.69022508688E+02  0.69022508688E+02  0.00000000000E+00 0. -1.
         25    2    1    2    0    0  0.55672682181E+02  0.80745205985E+02  0.27771695397E+03  0.31998943601E+03  0.12508915541E+03 0.  0.
          5    1    3    3  502    0  0.24039087591E+02  0.72779484906E+02  0.53961336758E+02  0.93829789619E+02  0.41800000000E+01 0. -1.
         -5    1    3    3    0  502  0.31633594591E+02  0.79657210790E+01  0.22375561721E+03  0.22615964639E+03  0.41800000000E+01 0. -1.
        -11    1    1    2    0    0  0.16946545005E+01  0.16479295267E+02 -0.53640684259E+01  0.17412991025E+02  0.00000000000E+00 0.  1.
         11    1    1    2    0    0 -0.57367336682E+02 -0.97224501252E+02  0.50792705787E+02  0.12378818168E+03  0.00000000000E+00 0. -1.
</event>
<event>
 7    1  0.2564986E-009  0.1031022E+03  0.7561462E-02  0.1273904E+00
         -2   -1    0    0    0  501 -0.00000000000E+00  0.00000000000E+00  0.14798004176E+02  0.14798004176E+02  0.00000000000E+00 0. -1.
          2   -1    0    0  501    0  0.00000000000E+00 -0.00000000000E+00 -0.80627949773E+03  0.80627949773E+03  0.00000000000E+00 0.  1.
         25    2    1    2    0    0  0.36853260554E+01  0.55965862493E+01 -0.48897257009E+03  0.50476349751E+03  0.12508841159E+03 0.  0.
          5    1    3    3  502    0 -0.42221628368E+02 -0.33695885951E+02 -0.13197210829E+03  0.14266109630E+03  0.41800000000E+01 0.  1.
         -5    1    3    3    0  502  0.45906954423E+02  0.39292472201E+02 -0.35700046180E+03  0.36210240121E+03  0.41800000000E+01 0.  1.
        -11    1    1    2    0    0  0.32986467985E+02  0.26815163068E+02 -0.16369519694E+03  0.16912503523E+03  0.00000000000E+00 0.  1.
         11    1    1    2    0    0 -0.36671794041E+02 -0.32411749318E+02 -0.13881372653E+03  0.14718896917E+03  0.00000000000E+00 0. -1.
</event>
<event>
 7    1  0.2564986E-009  0.1854507E+03  0.7561462E-02  0.1162630E+00
          3   -1    0    0  501    0  0.00000000000E+00  0.00000000000E+00  0.18782570265E+03  0.18782570265E+03  0.00000000000E+00 0. -1.
         -3   -1    0    0    0  501 -0.00000000000E+00 -0.00000000000E+00 -0.20553670287E+03  0.20553670287E+03  0.00000000000E+00 0.  1.
         25    2    1    2    0    0 -0.15382457188E+03 -0.56481914384E+02  0.33111983699E+01  0.20617699730E+03  0.12508311084E+03 0.  0.
          5    1    3    3  502    0 -0.26927229214E+02 -0.71683636409E+02  0.13623106281E+02  0.77888900536E+02  0.41800000000E+01 0.  1.
         -5    1    3    3    0  502 -0.12689734266E+03  0.15201722025E+02 -0.10311907911E+02  0.12828809677E+03  0.41800000000E+01 0.  1.
        -11    1    1    2    0    0  0.63143800344E+02  0.38310028209E+02 -0.51239578217E+02  0.89890445316E+02  0.00000000000E+00 0.  1.
         11    1    1    2    0    0  0.90680771533E+02  0.18171886175E+02  0.30217379624E+02  0.97294962893E+02  0.00000000000E+00 0. -1.
</event>
<event>
 7    1  0.2564986E-009  0.1305826E+03  0.7561462E-02  0.1226594E+00
         -2   -1    0    0    0  501 -0.00000000000E+00  0.00000000000E+00  0.36303274606E+03  0.36303274606E+03  0.00000000000E+00 0.  1.
          2   -1    0    0  501    0  0.00000000000E+00 -0.00000000000E+00 -0.72844229514E+02  0.72844229514E+02  0.00000000000E+00 0. -1.
         25    2    1    2    0    0 -0.95732872023E+02 -0.23808889207E+02  0.24568624137E+03  0.29281659663E+03  0.12509270190E+03 0.  0.
          5    1    3    3  502    0  0.47188413833E+01  0.39283422312E+02  0.49356308057E+02  0.63395364796E+02  0.41800000000E+01 0. -1.
         -5    1    3    3    0  502 -0.10045171341E+03 -0.63092311519E+02  0.19632993331E+03  0.22942123183E+03  0.41800000000E+01 0. -1.
        -11    1    1    2    0    0  0.41500352025E+02 -0.40795768080E+01  0.66278820033E+02  0.78305837267E+02  0.00000000000E+00 0.  1.
         11    1    1    2    0    0  0.54232519998E+02  0.27888466015E+02 -0.21776544861E+02  0.64754541679E+02  0.00000000000E+00 0. -1.
</event>
<event>
 7    1  0.2564986E-009  0.7184779E+02  0.7561462E-02  0.1353920E+00
          4   -1    0    0  501    0  0.00000000000E+00  0.00000000000E+00  0.11764416244E+03  0.11764416244E+03  0.00000000000E+00 0. -1.
         -4   -1    0    0    0  501 -0.00000000000E+00 -0.00000000000E+00 -0.11470628349E+03  0.11470628349E+03  0.00000000000E+00 0.  1.
         25    2    1    2    0    0 -0.33235043034E+02  0.84473551346E+00 -0.26120205518E+02  0.13204169547E+03  0.12508981790E+03 0.  0.
          5    1    3    3  502    0 -0.35175207955E+02  0.49835698562E+02 -0.48443826271E+02  0.78007492009E+02  0.41800000000E+01 0.  1.
         -5    1    3    3    0  502  0.19401649208E+01 -0.48990963049E+02  0.22323620753E+02  0.54034203463E+02  0.41800000000E+01 0.  1.
        -11    1    1    2    0    0  0.12970997441E+02  0.93175964645E+00 -0.32751014655E+02  0.35238386904E+02  0.00000000000E+00 0.  1.
         11    1    1    2    0    0  0.20264045593E+02 -0.17764951599E+01  0.61809099120E+02  0.65070363553E+02  0.00000000000E+00 0. -1.
</event>
<event>
 7    1  0.2564986E-009  0.1500241E+03  0.7561462E-02  0.1200443E+00
          3   -1    0    0  501    0  0.00000000000E+00  0.00000000000E+00  0.39898343290E+02  0.39898343290E+02  0.00000000000E+00 0. -1.
         -3   -1    0    0    0  501 -0.00000000000E+00 -0.00000000000E+00 -0.60736932619E+03  0.60736932619E+03  0.00000000000E+00 0.  1.
         25    2    1    2    0    0  0.93122526051E+02  0.47921563351E+02 -0.37732872113E+03  0.41108619132E+03  0.12508641736E+03 0.  0.
          5    1    3    3  502    0  0.10415433630E+03  0.77705885464E+02 -0.28224460876E+03  0.31075041750E+03  0.41800000000E+01 0.  1.
         -5    1    3    3    0  502 -0.11031810246E+02 -0.29784322113E+02 -0.95084112371E+02  0.10033577381E+03  0.41800000000E+01 0.  1.
        -11    1    1    2    0    0 -0.58081515236E+02  0.20116557627E+02 -0.64746693522E+02  0.89276383355E+02  0.00000000000E+00 0.  1.
         11    1    1    2    0    0 -0.35041010815E+02 -0.68038120979E+02 -0.12539556825E+03  0.14690509481E+03  0.00000000000E+00 0. -1.
</event>
<event>
 7    1  0.2564986E-009  0.9608919E+02  0.7561462E-02  0.1288742E+00
         -2   -1    0    0    0  501 -0.00000000000E+00  0.00000000000E+00  0.54200744676E+02  0.54200744676E+02  0.00000000000E+00 0.  1.
          2   -1    0    0  501    0  0.00000000000E+00 -0.00000000000E+00 -0.26113926478E+03  0.26113926478E+03  0.00000000000E+00 0. -1.
         25    2    1    2    0    0  0.32173141971E+01 -0.47056429752E+02 -0.13192368530E+03  0.18781392911E+03  0.12508219111E+03 0.  0.
          5    1    3    3  502    0 -0.21741997753E+02  0.28220477943E+02 -0.92374808574E+02  0.99094336371E+02  0.41800000000E+01 0. -1.
         -5    1    3    3    0  502  0.24959311950E+02 -0.75276907695E+02 -0.39548876724E+02  0.88719592736E+02  0.41800000000E+01 0. -1.
        -11    1    1    2    0    0 -0.22206654011E+02 -0.38695611659E+01  0.11538394958E+02  0.25322787054E+02  0.00000000000E+00 0.  1.
         11    1    1    2    0    0  0.18989339814E+02  0.50925990918E+02 -0.86553229761E+02  0.10220329329E+03  0.00000000000E+00 0. -1.
</event>
<event>
 7    1  0.2564986E-009  0.1084501E+03  0.7561462E-02  0.1263467E+00
         -2   -1    0    0    0  501 -0.00000000000E+00  0.00000000000E+00  0.31173697081E+02  0.31173697081E+02  0.00000000000E+00 0.  1.
          2   -1    0    0  501    0  0.00000000000E+00 -0.00000000000E+00 -0.50738799957E+03  0.50738799957E+03  0.00000000000E+00 0. -1.
         25    2    1    2    0    0 -0.44392861967E+02 -0.40932249784E+02 -0.25264705474E+03  0.28831784698E+03  0.12510184392E+03 0.  0.
          5    1    3    3  502    0 -0.77988791887E+02 -0.68915397633E+00 -0.19617278736E+03  0.21114914514E+03  0.41800000000E+01 0.  1.
         -5    1    3    3    0  502  0.33595929920E+02 -0.40243095807E+02 -0.56474267385E+02  0.77168701842E+02  0.41800000000E+01 0.  1.
        -11    1    1    2    0    0 -0.11410656026E+02  0.26070267319E+02 -0.16699501408E+03  0.16940246939E+03  0.00000000000E+00 0. -1.
         11    1    1    2    0    0  0.55803517992E+02  0.14861982465E+02 -0.56572233666E+02  0.80841380277E+02  0.00000000000E+00 0.  1.
</event>
<event>
 7    1  0.2564986E-009  0.1012596E+03  0.7561462E-02  0.1277669E+00
         -3   -1    0    0    0  501 -0.00000000000E+00  0.00000000000E+00  0.79168110772E+02  0.79168110772E+02  0.00000000000E+00 0.  1.
          3   -1    0    0  501    0  0.00000000000E+00 -0.00000000000E+00 -0.18422807218E+03  0.18422807218E+03  0.00000000000E+00 0. -1.
         25    2    1    2    0    0  0.22020236203E+02  0.43654678638E+02 -0.33262388468E+02  0.13836463905E+03  0.12509102719E+03 0.  0.
          5    1    3    3  502    0  0.25838685140E+02  0.71035595370E+02 -0.62307989380E+02  0.98048209570E+02  0.41800000000E+01 0.  1.
         -5    1    3    3    0  502 -0.38184489373E+01 -0.27380916732E+02  0.29045600912E+02  0.40316429476E+02  0.41800000000E+01 0.  1.
        -11    1    1    2    0    0 -0.15800624289E+02 -0.70012346390E+02 -0.65631761283E+02  0.97256961006E+02  0.00000000000E+00 0. -1.
         11    1    1    2    0    0 -0.62196119138E+01  0.26357667752E+02 -0.61658116530E+01  0.27774582896E+02  0.00000000000E+00 0.  1.
</event>
<event>
 7    1  0.2564986E-009  0.1146928E+03  0.7561462E-02  0.1252118E+00
          2   -1    0    0  501    0  0.00000000000E+00  0.00000000000E+00  0.64824601005E+03  0.64824601005E+03  0.00000000000E+00 0. -1.
         -2   -1    0    0    0  501 -0.00000000000E+00 -0.00000000000E+00 -0.39557111067E+02  0.39557111067E+02  0.00000000000E+00 0.  1.
         25    2    1    2    0    0 -0.41483983759E+02  0.44450167028E+02  0.52944320698E+03  0.54740384397E+03  0.12507645952E+03 0.  0.
          5    1    3    3  502    0 -0.70539166552E+02  0.61629290583E+02  0.27164219710E+03  0.28736892511E+03  0.41800000000E+01 0. -1.
         -5    1    3    3    0  502  0.29055182793E+02 -0.17179123555E+02  0.25780100988E+03  0.26003491886E+03  0.41800000000E+01 0. -1.
        -11    1    1    2    0    0  0.18878749569E+02  0.23416477212E+02 -0.43325219397E+01  0.30389296416E+02  0.00000000000E+00 0.  1.
         11    1    1    2    0    0  0.22605234191E+02 -0.67866644239E+02  0.83578213947E+02  0.11000998073E+03  0.00000000000E+00 0. -1.
</event>
<event>
 7    1  0.2564986E-009  0.1186844E+03  0.7561462E-02  0.1245283E+00
          3   -1    0    0  501    0  0.00000000000E+00  0.00000000000E+00  0.98625589315E+02  0.98625589315E+02  0.00000000000E+00 0. -1.
         -3   -1    0    0    0  501 -0.00000000000E+00 -0.00000000000E+00 -0.29263595920E+03  0.29263595920E+03  0.00000000000E+00 0.  1.
         25    2    1    2    0    0 -0.48210144318E+02  0.17175153652E+02  0.34687474219E+02  0.13953646173E+03  0.12509196363E+03 0.  0.
          5    1    3    3  502    0 -0.58551200452E+02 -0.43301658772E+02  0.25950820023E+02  0.77422181490E+02  0.41800000000E+01 0.  1.
         -5    1    3    3    0  502  0.10341056135E+02  0.60476812425E+02  0.87366541965E+01  0.62114280239E+02  0.41800000000E+01 0.  1.
        -11    1    1    2    0    0  0.30214499811E+02  0.35878456593E+02 -0.78845942968E+02  0.91743459543E+02  0.00000000000E+00 0.  1.
         11    1    1    2    0    0  0.17995644507E+02 -0.53053610245E+02 -0.14985190114E+03  0.15998162725E+03  0.00000000000E+00 0. -1.
</event>
<event>
 7    1  0.2564986E-009  0.1074849E+03  0.7561462E-02  0.1265300E+00
          2   -1    0    0  501    0  0.00000000000E+00  0.00000000000E+00  0.21665031838E+03  0.21665031838E+03  0.00000000000E+00 0. -1.
         -2   -1    0    0    0  501 -0.00000000000E+00 -0.00000000000E+00 -0.76900534381E+02  0.76900534381E+02  0.00000000000E+00 0.  1.
         25    2    1    2    0    0  0.57648739829E+02  0.38457245882E+02  0.71574351964E+02  0.15991749761E+03  0.12509348992E+03 0.  0.
          5    1    3    3  502    0 -0.11213940281E+02 -0.32973101005E+02 -0.37471631219E+01  0.35277350779E+02  0.41800000000E+01 0. -1.
         -5    1    3    3    0  502  0.68862680110E+02  0.71430346887E+02  0.75321515086E+02  0.12464014684E+03  0.41800000000E+01 0. -1.
        -11    1    1    2    0    0 -0.25209174699E+02  0.56487226592E+01 -0.18034842505E+02  0.31506604083E+02  0.00000000000E+00 0.  1.
         11    1    1    2    0    0 -0.32439565130E+02 -0.44105968541E+02  0.86210274544E+02  0.10212675107E+03  0.00000000000E+00 0. -1.
</event>
<event>
 7    1  0.2564986E-009  0.1092836E+03  0.7561462E-02  0.1261902E+00
          2   -1    0    0  501    0  0.00000000000E+00  0.00000000000E+00  0.15306021342E+03  0.15306021342E+03  0.00000000000E+00 0. -1.
         -2   -1    0    0    0  501 -0.00000000000E+00 -0.00000000000E+00 -0.98469555538E+02  0.98469555538E+02  0.00000000000E+00 0.  1.
         25    2    1    2    0    0 -0.48258106484E+02  0.31683747192E+02  0.42269892578E+02  0.14410740843E+03  0.12508995430E+03 0.  0.
          5    1    3    3  502    0 -0.28529337630E+02 -0.40218591164E+02 -0.13042779206E+02  0.51176602762E+02  0.41800000000E+01 0. -1.
         -5    1    3    3    0  502 -0.19728768854E+02  0.71902338356E+02  0.55312671784E+02  0.92930805665E+02  0.41800000000E+01 0. -1.
        -11    1    1    2    0    0  0.46350908567E+02 -0.54478986282E+02  0.30934214878E+02  0.77931330807E+02  0.00000000000E+00 0. -1.
         11    1    1    2    0    0  0.19071979174E+01  0.22795239090E+02 -0.18613449575E+02  0.29491029723E+02  0.00000000000E+00 0.  1.
</event>
<event>
 7    1  0.2564986E-009  0.2291441E+03  0.7561462E-02  0.1127244E+00
          2   -1    0    0  501    0  0.00000000000E+00  0.00000000000E+00  0.24075022744E+04  0.24075022744E+04  0.00000000000E+00 0.  1.
         -2   -1    0    0    0  501 -0.00000000000E+00 -0.00000000000E+00 -0.25041212137E+02  0.25041212137E+02  0.00000000000E+00 0. -1.
         25    2    1    2    0    0 -0.17144807604E+03  0.12997106191E+03  0.14302349531E+04  0.14517254049E+04  0.12509080958E+03 0.  0.
          5    1    3    3  502    0 -0.22886896712E+02  0.56973679231E+02  0.71185467449E+03  0.71450987408E+03  0.41800000000E+01 0.  1.
         -5    1    3    3    0  502 -0.14856117932E+03  0.72997382678E+02  0.71838027857E+03  0.73721553084E+03  0.41800000000E+01 0.  1.
        -11    1    1    2    0    0  0.86437261540E+02 -0.14291168315E+02  0.27800831587E+03  0.29148629705E+03  0.00000000000E+00 0. -1.
         11    1    1    2    0    0  0.85010814495E+02 -0.11567989359E+03  0.67421779336E+03  0.68933178459E+03  0.00000000000E+00 0.  1.
</event>
<event>
 7    1  0.2564986E-009  0.1366595E+03  0.7561462E-02  0.1217896E+00
         -1   -1    0    0    0  501 -0.00000000000E+00  0.00000000000E+00  0.55707494039E+02  0.55707494039E+02  0.00000000000E+00 0.  1.
          1   -1    0    0  501    0  0.00000000000E+00 -0.00000000000E+00 -0.46944541501E+03  0.46944541501E+03  0.00000000000E+00 0. -1.
         25    2    1    2    0    0 -0.85274099825E+02 -0.72691575385E+02 -0.29168969022E+03  0.33658041084E+03  0.12509100826E+03 0.  0.
          5    1    3    3  502    0  0.16458854600E+02 -0.54408300908E+02 -0.15508044658E+03  0.16522280234E+03  0.41800000000E+01 0. -1.
         -5    1    3    3    0  502 -0.10173295443E+03 -0.18283274476E+02 -0.13660924364E+03  0.17135760849E+03  0.41800000000E+01 0. -1.
        -11    1    1    2    0    0  0.50989495305E+02  0.34567605980E+02 -0.62348904641E+01  0.61917056404E+02  0.00000000000E+00 0.  1.
         11    1    1    2    0    0  0.34284604521E+02  0.38123969404E+02 -0.11581334029E+03  0.12665544180E+03  0.00000000000E+00 0. -1.
</event>
<event>
 7    1  0.2564986E-009  0.1108969E+03  0.7561462E-02  0.1258918E+00
          1   -1    0    0  501    0  0.00000000000E+00  0.00000000000E+00  0.48046897792E+03  0.48046897792E+03  0.00000000000E+00 0. -1.
         -1   -1    0    0    0  501 -0.00000000000E+00 -0.00000000000E+00 -0.58333275226E+02  0.58333275226E+02  0.00000000000E+00 0.  1.
         25    2    1    2    0    0 -0.51683008149E+02 -0.63193178106E+02  0.38397780532E+03  0.41200831441E+03  0.12508950826E+03 0.  0.
          5    1    3    3  502    0  0.26234474397E+02 -0.55703293476E+02  0.24288161750E+03  0.25059939559E+03  0.41800000000E+01 0.  1.
         -5    1    3    3    0  502 -0.77917482546E+02 -0.74898846297E+01  0.14109618781E+03  0.16140891882E+03  0.41800000000E+01 0.  1.
        -11    1    1    2    0    0  0.35221571224E+02  0.40811597318E+02 -0.23772032059E+02  0.58917357912E+02  0.00000000000E+00 0.  1.
         11    1    1    2    0    0  0.16461436925E+02  0.22381580789E+02  0.61929929433E+02  0.67876580819E+02  0.00000000000E+00 0. -1.
</event>
<event>
 7    1  0.2564986E-009  0.1141507E+03  0.7561462E-02  0.1253071E+00
         -2   -1    0    0    0  501 -0.00000000000E+00  0.00000000000E+00  0.18382389215E+03  0.18382389215E+03  0.00000000000E+00 0.  1.
          2   -1    0    0  501    0  0.00000000000E+00 -0.00000000000E+00 -0.86302700455E+02  0.86302700455E+02  0.00000000000E+00 0. -1.
         25    2    1    2    0    0  0.55928271557E+01  0.41475260073E+02  0.35482385679E+01  0.13195305414E+03  0.12509013385E+03 0.  0.
          5    1    3    3  502    0  0.64080134604E+02  0.15199254713E+02  0.12230681445E+02  0.67114402056E+02  0.41800000000E+01 0.  1.
         -5    1    3    3    0  502 -0.58487307448E+02  0.26276005360E+02 -0.86824428769E+01  0.64838652088E+02  0.41800000000E+01 0.  1.
        -11    1    1    2    0    0  0.40754904713E+02 -0.29122044199E+02  0.65271179156E+02  0.82276257480E+02  0.00000000000E+00 0.  1.
         11    1    1    2    0    0 -0.46347731869E+02 -0.12353215874E+02  0.28701773968E+02  0.55897280978E+02  0.00000000000E+00 0. -1.
</event>
<event>
 7    1  0.2564986E-009  0.1179803E+03  0.7561462E-02  0.1246467E+00
         -1   -1    0    0    0  501 -0.00000000000E+00  0.00000000000E+00  0.31831392860E+03  0.31831392860E+03  0.00000000000E+00 0.  1.
          1   -1    0    0  501    0  0.00000000000E+00 -0.00000000000E+00 -0.59961653879E+02  0.59961653879E+02  0.00000000000E+00 0. -1.
         25    2    1    2    0    0  0.49566843551E+02  0.52189955984E+02  0.81413908425E+02  0.16569551302E+03  0.12508443174E+03 0.  0.
          5    1    3    3  502    0  0.19261657635E+02 -0.33058706118E+02  0.62142814089E+02  0.73096451678E+02  0.41800000000E+01 0. -1.
         -5    1    3    3    0  502  0.30305185916E+02  0.85248662102E+02  0.19271094336E+02  0.92599061337E+02  0.41800000000E+01 0. -1.
        -11    1    1    2    0    0 -0.18096799698E+02 -0.68922428009E+02  0.15534102794E+03  0.17090532526E+03  0.00000000000E+00 0.  1.
         11    1    1    2    0    0 -0.31470043853E+02  0.16732472025E+02  0.21597338359E+02  0.41674744203E+02  0.00000000000E+00 0. -1.
</event>
<event>
 7    1  0.2564986E-009  0.1229274E+03  0.7561462E-02  0.1238344E+00
         -2   -1    0    0    0  501 -0.00000000000E+00  0.00000000000E+00  0.14133907076E+02  0.14133907076E+02  0.00000000000E+00 0.  1.
          2   -1    0    0  501    0  0.00000000000E+00 -0.00000000000E+00 -0.12991861750E+04  0.12991861750E+04  0.00000000000E+00 0. -1.
         25    2    1    2    0    0  0.15787890415E+01 -0.60390103254E+02 -0.97124275726E+03  0.98112676564E+03  0.12509108515E+03 0.  0.
          5    1    3    3  502    0  0.35647362309E+02  0.26714677389E+02 -0.35618060471E+03  0.35897981002E+03  0.41800000000E+01 0. -1.
         -5    1    3    3    0  502 -0.34068573267E+02 -0.87104780643E+02 -0.61506215255E+03  0.62214695562E+03  0.41800000000E+01 0. -1.
        -11    1    1    2    0    0 -0.34959064867E+02 -0.37730518330E+01 -0.12984215752E+03  0.13451898753E+03  0.00000000000E+00 0. -1.
         11    1    1    2    0    0  0.33380275826E+02  0.64163155087E+02 -0.18396735315E+03  0.19767432891E+03  0.00000000000E+00 0.  1.
</event>
<event>
 7    1  0.2564986E-009  0.1455777E+03  0.7561462E-02  0.1206015E+00
          2   -1    0    0  501    0  0.00000000000E+00  0.00000000000E+00  0.25034921812E+02  0.25034921812E+02  0.00000000000E+00 0.  1.
         -2   -1    0    0    0  501 -0.00000000000E+00 -0.00000000000E+00 -0.86073947940E+03  0.86073947940E+03  0.00000000000E+00 0. -1.
         25    2    1    2    0    0 -0.95279089827E+02 -0.23583096311E+02 -0.49031532279E+03  0.51545209494E+03  0.12508988381E+03 0.  0.
          5    1    3    3  502    0 -0.91335291332E+02  0.36390874375E+02 -0.32038003094E+03  0.33515260376E+03  0.41800000000E+01 0. -1.
         -5    1    3    3    0  502 -0.39437984952E+01 -0.59973970686E+02 -0.16993529185E+03  0.18029949118E+03  0.41800000000E+01 0. -1.
        -11    1    1    2    0    0  0.11097947926E+03  0.30867172769E+02 -0.28218370790E+03  0.30478988201E+03  0.00000000000E+00 0.  1.
         11    1    1    2    0    0 -0.15700389436E+02 -0.72840764589E+01 -0.63205526898E+02  0.65532424255E+02  0.00000000000E+00 0. -1.
</event>
<event>
 7    1  0.2564986E-009  0.1047582E+03  0.7561462E-02  0.1270597E+00
          2   -1    0    0  501    0  0.00000000000E+00  0.00000000000E+00  0.90444257250E+03  0.90444257250E+03  0.00000000000E+00 0. -1.
         -2   -1    0    0    0  501 -0.00000000000E+00 -0.00000000000E+00 -0.17462216256E+02  0.17462216256E+02  0.00000000000E+00 0.  1.
         25    2    1    2    0    0 -0.31892149379E+02 -0.51040139695E+02  0.47933714935E+03  0.49903294118E+03  0.12509024177E+03 0.  0.
          5    1    3    3  502    0 -0.52384972146E+02 -0.13509362072E+02  0.43083155149E+03  0.43423494370E+03  0.41800000000E+01 0.  1.
         -5    1    3    3    0  502  0.20492822768E+02 -0.37530777623E+02  0.48505597856E+02  0.64797997479E+02  0.41800000000E+01 0.  1.
        -11    1    1    2    0    0 -0.11780910068E+02 -0.23278848975E+02  0.10487334734E+03  0.10806994788E+03  0.00000000000E+00 0.  1.
         11    1    1    2    0    0  0.43673059447E+02  0.74318988670E+02  0.30276985956E+03  0.31480189970E+03  0.00000000000E+00 0. -1.
</event>
<event>
 7    1  0.2564986E-009  0.9622702E+02  0.7561462E-02  0.1288436E+00
          1   -1    0    0  501    0  0.00000000000E+00  0.00000000000E+00  0.62884781074E+03  0.62884781074E+03  0.00000000000E+00 0. -1.
         -1   -1    0    0    0  501 -0.00000000000E+00 -0.00000000000E+00 -0.61500762509E+02  0.61500762509E+02  0.00000000000E+00 0.  1.
         25    2    1    2    0    0 -0.48389062717E+01 -0.61121017955E+02  0.56278958890E+03  0.57977422110E+03  0.12508729845E+03 0.  0.
          5    1    3    3  502    0 -0.57017183978E+02 -0.53389966913E+02  0.23334291545E+03  0.24610533604E+03  0.41800000000E+01 0. -1.
         -5    1    3    3    0  502  0.52178277706E+02 -0.77310510426E+01  0.32944667344E+03  0.33366888506E+03  0.41800000000E+01 0. -1.
        -11    1    1    2    0    0  0.17318588014E+01  0.26789687621E+02 -0.43689320005E+02  0.51278098446E+02  0.00000000000E+00 0.  1.
         11    1    1    2    0    0  0.31070474703E+01  0.34331330334E+02  0.48246779343E+02  0.59296253705E+02  0.00000000000E+00 0. -1.
</event>
<event>
 7    1  0.2564986E-009  0.1385203E+03  0.7561462E-02  0.1215334E+00
         -1   -1    0    0    0  501 -0.00000000000E+00  0.00000000000E+00  0.51796024379E+02  0.51796024379E+02  0.00000000000E+00 0.  1.
          1   -1    0    0  501    0  0.00000000000E+00 -0.00000000000E+00 -0.43129010359E+03  0.43129010359E+03  0.00000000000E+00 0. -1.
         25    2    1    2    0    0  0.47136246155E+02 -0.89982580061E+02 -0.24442829063E+03  0.29276748568E+03  0.12509564739E+03 0.  0.
          5    1    3    3  502    0 -0.27939657749E+02 -0.70017417814E+02 -0.75444378983E+02  0.10673513945E+03  0.41800000000E+01 0.  1.
         -5    1    3    3    0  502  0.75075903904E+02 -0.19965162247E+02 -0.16898391164E+03  0.18603234623E+03  0.41800000000E+01 0.  1.
        -11    1    1    2    0    0 -0.55288071692E+02  0.29412172061E+02 -0.31588230347E+02  0.70140309617E+02  0.00000000000E+00 0.  1.
         11    1    1    2    0    0  0.81518255373E+01  0.60570408001E+02 -0.10347755823E+03  0.12017833267E+03  0.00000000000E+00 0. -1.
</event>
<event>
 7    1  0.2564986E-009  0.1153421E+03  0.7561462E-02  0.1250985E+00
         -2   -1    0    0    0  501 -0.00000000000E+00  0.00000000000E+00  0.28446658329E+03  0.28446658329E+03  0.00000000000E+00 0.  1.
          2   -1    0    0  501    0  0.00000000000E+00 -0.00000000000E+00 -0.60560236469E+02  0.60560236469E+02  0.00000000000E+00 0. -1.
         25    2    1    2    0    0 -0.57917906229E+02 -0.13229762309E+01  0.65371931028E+02  0.15256758066E+03  0.12508854134E+03 0.  0.
          5    1    3    3  502    0 -0.73612005315E+02 -0.37069878957E+02  0.78153901315E+01  0.82894245731E+02  0.41800000000E+01 0. -1.
         -5    1    3    3    0  502  0.15694099086E+02  0.35746902726E+02  0.57556540896E+02  0.69673334932E+02  0.41800000000E+01 0. -1.
        -11    1    1    2    0    0  0.44641120603E+02  0.44915360476E+02  0.98238219061E+02  0.11688013920E+03  0.00000000000E+00 0. -1.
         11    1    1    2    0    0  0.13276785626E+02 -0.43592384245E+02  0.60296196736E+02  0.75579099899E+02  0.00000000000E+00 0.  1.
</event>
<event>
 7    1  0.2564986E-009  0.1751271E+03  0.7561462E-02  0.1172604E+00
         -2   -1    0    0    0  501 -0.00000000000E+00  0.00000000000E+00  0.48556896951E+02  0.48556896951E+02  0.00000000000E+00 0.  1.
          2   -1    0    0  501    0  0.00000000000E+00 -0.00000000000E+00 -0.82027294346E+03  0.82027294346E+03  0.00000000000E+00 0. -1.
         25    2    1    2    0    0 -0.14901690818E+03  0.10120119303E+01 -0.57082821989E+03  0.60307605735E+03  0.12509520868E+03 0.  0.
          5    1    3    3  502    0 -0.41438021461E+02 -0.57753050425E+02 -0.23499870594E+03  0.24554915729E+03  0.41800000000E+01 0.  1.
         -5    1    3    3    0  502 -0.10757888672E+03  0.58765062355E+02 -0.33582951395E+03  0.35752690006E+03  0.41800000000E+01 0.  1.
        -11    1    1    2    0    0  0.83408060792E+02  0.23016648174E+02 -0.16703249952E+03  0.18811306864E+03  0.00000000000E+00 0. -1.
         11    1    1    2    0    0  0.65608847391E+02 -0.24028660104E+02 -0.33855327100E+02  0.77640714418E+02  0.00000000000E+00 0.  1.
</event>
<event>
 7    1  0.2564986E-009  0.1706574E+03  0.7561462E-02  0.1177164E+00
         -2   -1    0    0    0  501 -0.00000000000E+00  0.00000000000E+00  0.29799524017E+02  0.29799524017E+02  0.00000000000E+00 0. -1.
          2   -1    0    0  501    0  0.00000000000E+00 -0.00000000000E+00 -0.10389603434E+04  0.10389603434E+04  0.00000000000E+00 0.  1.
         25    2    1    2    0    0  0.49369742367E+02 -0.12747603338E+03 -0.58024037102E+03  0.60910954735E+03  0.12509213392E+03 0.  0.
          5    1    3    3  502    0  0.30903739046E+02 -0.15134529870E+03 -0.49705737556E+03  0.52052276369E+03  0.41800000000E+01 0. -1.
         -5    1    3    3    0  502  0.18466003321E+02  0.23869265318E+02 -0.83182995455E+02  0.88586783655E+02  0.41800000000E+01 0. -1.
        -11    1    1    2    0    0 -0.68317249594E+02  0.79969114400E+02 -0.35119566140E+03  0.36660700817E+03  0.00000000000E+00 0.  1.
         11    1    1    2    0    0  0.18947507227E+02  0.47506918978E+02 -0.77724786973E+02  0.93043311908E+02  0.00000000000E+00 0. -1.
</event>
<event>
 7    1  0.2648617E-009  0.1407425E+03  0.7561462E-02  0.1212333E+00
          2   -1    0    0  501    0  0.00000000000E+00  0.00000000000E+00  0.12271696557E+04  0.12271696557E+04  0.00000000000E+00 0.  1.
         -2   -1    0    0    0  501 -0.00000000000E+00 -0.00000000000E+00 -0.28693711200E+02  0.28693711200E+02  0.00000000000E+00 0. -1.
         25    2    1    2    0    0  0.78353372415E+02 -0.11465921163E+03  0.84352463608E+03  0.86398337312E+03  0.12508985402E+03 0.  0.
          5    1    3    3  502    0  0.37857042154E+01 -0.20695574900E+02  0.49321166272E+03  0.49367788590E+03  0.41800000000E+01 0. -1.
         -5    1    3    3    0  502  0.74567668200E+02 -0.93963636732E+02  0.35031297336E+03  0.37030548723E+03  0.41800000000E+01 0. -1.
        -11    1    1    2    0    0 -0.70922131215E+02  0.92027193267E+02  0.34827154843E+03  0.36714033344E+03  0.00000000000E+00 0.  1.
         11    1    1    2    0    0 -0.74312412005E+01  0.22632018365E+02  0.66797600249E+01  0.24739660366E+02  0.00000000000E+00 0. -1.
</event>
<event>
 7    1  0.2564986E-009  0.1121368E+03  0.7561462E-02  0.1256663E+00
         -1   -1    0    0    0  501 -0.00000000000E+00  0.00000000000E+00  0.70524296791E+02  0.70524296791E+02  0.00000000000E+00 0.  1.
          1   -1    0    0  501    0  0.00000000000E+00 -0.00000000000E+00 -0.25577450785E+03  0.25577450785E+03  0.00000000000E+00 0. -1.
         25    2    1    2    0    0  0.63698202971E+02  0.41529258675E+02 -0.12316842035E+03  0.19132009239E+03  0.12510306788E+03 0.  0.
          5    1    3    3  502    0  0.96137746694E+02  0.36877868073E+02 -0.11993177414E+03  0.15812509713E+03  0.41800000000E+01 0. -1.
         -5    1    3    3    0  502 -0.32439543723E+02  0.46513906019E+01 -0.32366462046E+01  0.33194995257E+02  0.41800000000E+01 0. -1.
        -11    1    1    2    0    0  0.16121301505E+01 -0.19042554713E+02 -0.63066694977E+02  0.65898602936E+02  0.00000000000E+00 0. -1.
         11    1    1    2    0    0 -0.65310333122E+02 -0.22486703962E+02  0.98490426069E+00  0.69080109322E+02  0.00000000000E+00 0.  1.
</event>
<event>
 7    1  0.2564986E-009  0.1181154E+03  0.7561462E-02  0.1246239E+00
          1   -1    0    0  501    0  0.00000000000E+00  0.00000000000E+00  0.23016074570E+03  0.23016074570E+03  0.00000000000E+00 0. -1.
         -1   -1    0    0    0  501 -0.00000000000E+00 -0.00000000000E+00 -0.16779294557E+03  0.16779294557E+03  0.00000000000E+00 0.  1.
         25    2    1    2    0    0 -0.71799099461E+02 -0.12104061140E+02 -0.11539913587E+03  0.18511110534E+03  0.12509013463E+03 0.  0.
          5    1    3    3  502    0  0.25937727462E+02  0.28551463434E+02 -0.30701656596E+02  0.49477428065E+02  0.41800000000E+01 0.  1.
         -5    1    3    3    0  502 -0.97736826924E+02 -0.40655524574E+02 -0.84697479276E+02  0.13563367728E+03  0.41800000000E+01 0.  1.
        -11    1    1    2    0    0  0.96218362857E+01  0.26050815957E+02  0.43764837990E+01  0.28113668490E+02  0.00000000000E+00 0.  1.
         11    1    1    2    0    0  0.62177263176E+02 -0.13946754817E+02  0.17339045220E+03  0.18472891744E+03  0.00000000000E+00 0. -1.
</event>
<event>
 7    1  0.2564986E-009  0.1460165E+03  0.7561462E-02  0.1205455E+00
         -1   -1    0    0    0  501 -0.00000000000E+00  0.00000000000E+00  0.45827746891E+02  0.45827746891E+02  0.00000000000E+00 0.  1.
          1   -1    0    0  501    0  0.00000000000E+00 -0.00000000000E+00 -0.52004676902E+03  0.52004676902E+03  0.00000000000E+00 0. -1.
         25    2    1    2    0    0  0.54988983758E+02 -0.88244618702E+02 -0.29167500123E+03  0.33395769077E+03  0.12507010761E+03 0.  0.
          5    1    3    3  502    0  0.28286633210E+02 -0.11539245623E+03 -0.17841239742E+03  0.21439218391E+03  0.41800000000E+01 0.  1.
         -5    1    3    3    0  502  0.26702350548E+02  0.27147837524E+02 -0.11326260381E+03  0.11956550685E+03  0.41800000000E+01 0.  1.
        -11    1    1    2    0    0  0.22964990591E+02  0.12483231086E+02 -0.73225456459E+02  0.77750815589E+02  0.00000000000E+00 0.  1.
         11    1    1    2    0    0 -0.77953974348E+02  0.75761387616E+02 -0.10931856445E+03  0.15416600956E+03  0.00000000000E+00 0. -1.
</event>
<event>
 7    1  0.2564986E-009  0.1381854E+03  0.7561462E-02  0.1215792E+00
         -2   -1    0    0    0  501 -0.00000000000E+00  0.00000000000E+00  0.45311089961E+02  0.45311089961E+02  0.00000000000E+00 0.  1.
          2   -1    0    0  501    0  0.00000000000E+00 -0.00000000000E+00 -0.51789366850E+03  0.51789366850E+03  0.00000000000E+00 0. -1.
         25    2    1    2    0    0  0.61307559209E+02 -0.62240193161E+02 -0.36820276765E+03  0.39856603394E+03  0.12509655010E+03 0.  0.
          5    1    3    3  502    0  0.74131933769E+02 -0.91902984542E+02 -0.31169498448E+03  0.33333607354E+03  0.41800000000E+01 0.  1.
         -5    1    3    3    0  502 -0.12824374560E+02  0.29662791381E+02 -0.56507783164E+02  0.65229960398E+02  0.41800000000E+01 0.  1.
        -11    1    1    2    0    0 -0.34227128933E+02  0.84123008272E+02 -0.86830508322E+02  0.12564917052E+03  0.00000000000E+00 0.  1.
         11    1    1    2    0    0 -0.27080430276E+02 -0.21882815111E+02 -0.17549302574E+02  0.38989554011E+02  0.00000000000E+00 0. -1.
</event>
<event>
 7    1  0.2564986E-009  0.1422988E+03  0.7561462E-02  0.1210269E+00
         -1   -1    0    0    0  501 -0.00000000000E+00  0.00000000000E+00  0.49144414422E+03  0.49144414422E+03  0.00000000000E+00 0.  1.
          1   -1    0    0  501    0  0.00000000000E+00 -0.00000000000E+00 -0.83425621843E+02  0.83425621843E+02  0.00000000000E+00 0. -1.
         25    2    1    2    0    0 -0.46546791304E+02  0.35873990400E+02  0.26433511256E+02  0.14070364913E+03  0.12508093138E+03 0.  0.
          5    1    3    3  502    0 -0.67087335784E+02  0.63485313294E+02  0.43365385045E+02  0.10212308577E+03  0.41800000000E+01 0. -1.
         -5    1    3    3    0  502  0.20540544480E+02 -0.27611322894E+02 -0.16931873789E+02  0.38580563365E+02  0.41800000000E+01 0. -1.
        -11    1    1    2    0    0 -0.41819410111E+02  0.26321159465E+02  0.14485335811E+02  0.51492634922E+02  0.00000000000E+00 0. -1.
         11    1    1    2    0    0  0.88366201416E+02 -0.62195149865E+02  0.36709967531E+03  0.38267348201E+03  0.00000000000E+00 0.  1.
</event>
<event>
 7    1  0.2564986E-009  0.2464211E+03  0.7561462E-02  0.1115588E+00
         -1   -1    0    0    0  501 -0.00000000000E+00  0.00000000000E+00  0.21747896794E+03  0.21747896794E+03  0.00000000000E+00 0.  1.
          1   -1    0    0  501    0  0.00000000000E+00 -0.00000000000E+00 -0.35638662874E+03  0.35638662874E+03  0.00000000000E+00 0. -1.
         25    2    1    2    0    0 -0.21960002011E+03 -0.72369865784E+02  0.37846842237E+02  0.26560135840E+03  0.12510048686E+03 0.  0.
          5    1    3    3  502    0 -0.51418410015E+02  0.24696977615E+02 -0.23618571463E+02  0.61879745554E+02  0.41800000000E+01 0.  1.
         -5    1    3    3    0  502 -0.16818161009E+03 -0.97066843399E+02  0.61465413700E+02  0.20372161285E+03  0.41800000000E+01 0.  1.
        -11    1    1    2    0    0  0.19842127319E+03  0.39496126191E+02 -0.10842595276E+03  0.22953677891E+03  0.00000000000E+00 0.  1.
         11    1    1    2    0    0  0.21178746916E+02  0.32873739593E+02 -0.68328550277E+02  0.78727459369E+02  0.00000000000E+00 0. -1.
</event>
<event>
 7    1  0.2564986E-009  0.9333201E+02  0.7561462E-02  0.1294978E+00
          2   -1    0    0  501    0  0.00000000000E+00  0.00000000000E+00  0.11268400691E+03  0.11268400691E+03  0.00000000000E+00 0.  1.
         -2   -1    0    0    0  501 -0.00000000000E+00 -0.00000000000E+00 -0.11989943342E+03  0.11989943342E+03  0.00000000000E+00 0. -1.
         25    2    1    2    0    0  0.39094078828E+02  0.10858182474E+02  0.69062605285E+01  0.13168177198E+03  0.12508455345E+03 0.  0.
          5    1    3    3  502    0  0.32762104989E+02 -0.53689640489E+02 -0.11627904187E+02  0.64098467805E+02  0.41800000000E+01 0. -1.
         -5    1    3    3    0  502  0.63319738390E+01  0.64547822963E+02  0.18534164715E+02  0.67583304179E+02  0.41800000000E+01 0. -1.
        -11    1    1    2    0    0 -0.41836562431E+02 -0.21926242276E+02 -0.46677501271E+02  0.66406680246E+02  0.00000000000E+00 0. -1.
         11    1    1    2    0    0  0.27424836024E+01  0.11068059802E+02  0.32555814229E+02  0.34494988103E+02  0.00000000000E+00 0.  1.
</event>
<event>
 7    1  0.2564986E-009  0.1559872E+03  0.7561462E-02  0.1193303E+00
          1   -1    0    0  501    0  0.00000000000E+00  0.00000000000E+00  0.13015428630E+03  0.13015428630E+03  0.00000000000E+00 0. -1.
         -1   -1    0    0    0  501 -0.00000000000E+00 -0.00000000000E+00 -0.26814479042E+03  0.26814479042E+03  0.00000000000E+00 0.  1.
         25    2    1    2    0    0 -0.12391515689E+03 -0.79666204762E+02 -0.34302676340E+02  0.19627988999E+03  0.12508977305E+03 0.  0.
          5    1    3    3  502    0  0.68240363852E+01 -0.16919616547E+01 -0.42978295516E+02  0.43749702768E+02  0.41800000000E+01 0.  1.
         -5    1    3    3    0  502 -0.13073919327E+03 -0.77974243107E+02  0.86756191766E+01  0.15253018722E+03  0.41800000000E+01 0.  1.
        -11    1    1    2    0    0  0.56749352613E+02  0.57486082581E+02 -0.10349284298E+03  0.13128559426E+03  0.00000000000E+00 0.  1.
         11    1    1    2    0    0  0.67165804273E+02  0.22180122181E+02 -0.19498479248E+00  0.70733592463E+02  0.00000000000E+00 0. -1.
</event>
<event>
 7    1  0.2564986E-009  0.1079861E+03  0.7561462E-02  0.1264345E+00
          1   -1    0    0  501    0  0.00000000000E+00  0.00000000000E+00  0.24659758469E+03  0.24659758469E+03  0.00000000000E+00 0. -1.
         -1   -1    0    0    0  501 -0.00000000000E+00 -0.00000000000E+00 -0.54536247551E+02  0.54536247551E+02  0.00000000000E+00 0.  1.
         25    2    1    2    0    0  0.17826944932E+02 -0.79733516433E+01  0.60845154434E+02  0.14046307764E+03  0.12508544703E+03 0.  0.
          5    1    3    3  502    0  0.21553706181E+02 -0.63771969594E+02  0.17761626955E+02  0.69745065403E+02  0.41800000000E+01 0. -1.
         -5    1    3    3    0  502 -0.37267612491E+01  0.55798617950E+02  0.43083527479E+02  0.70718012236E+02  0.41800000000E+01 0. -1.
        -11    1    1    2    0    0 -0.40776717669E+02  0.37262711659E+02  0.72268733248E+02  0.90961641307E+02  0.00000000000E+00 0.  1.
         11    1    1    2    0    0  0.22949772737E+02 -0.29289360016E+02  0.58947449459E+02  0.69709113296E+02  0.00000000000E+00 0. -1.
</event>
<event>
 7    1  0.2564986E-009  0.8423240E+02  0.7561462E-02  0.1317452E+00
          2   -1    0    0  501    0  0.00000000000E+00  0.00000000000E+00  0.46217753033E+02  0.46217753033E+02  0.00000000000E+00 0. -1.
         -2   -1    0    0    0  501 -0.00000000000E+00 -0.00000000000E+00 -0.23788143209E+03  0.23788143209E+03  0.00000000000E+00 0.  1.
         25    2    1    2    0    0  0.51790572500E+00 -0.16649127788E+02 -0.10186089226E+03  0.16217393818E+03  0.12508910092E+03 0.  0.
          5    1    3    3  502    0  0.46570150210E+02  0.20745373375E+02 -0.90539757263E+01  0.51948015203E+02  0.41800000000E+01 0.  1.
         -5    1    3    3    0  502 -0.46052244485E+02 -0.37394501163E+02 -0.92806916535E+02  0.11022592298E+03  0.41800000000E+01 0.  1.
        -11    1    1    2    0    0 -0.18183483718E+02 -0.13672253943E+02 -0.83152497683E+02  0.86208511639E+02  0.00000000000E+00 0.  1.
         11    1    1    2    0    0  0.17665577993E+02  0.30321381730E+02 -0.66502891173E+01  0.35716735310E+02  0.00000000000E+00 0. -1.
</event>
<event>
 7    1  0.2564986E-009  0.6435319E+02  0.7561462E-02  0.1380421E+00
          1   -1    0    0  501    0  0.00000000000E+00  0.00000000000E+00  0.42054200298E+02  0.42054200298E+02  0.00000000000E+00 0. -1.
         -1   -1    0    0    0  501 -0.00000000000E+00 -0.00000000000E+00 -0.36392512683E+03  0.36392512683E+03  0.00000000000E+00 0.  1.
         25    2    1    2    0    0 -0.57182792565E+02  0.15160044707E+02 -0.19441095884E+03  0.23863086720E+03  0.12509744659E+03 0.  0.
          5    1    3    3  502    0 -0.16814101861E+01 -0.72985118325E+01  0.16905189479E+02  0.18956614848E+02  0.41800000000E+01 0. -1.
         -5    1    3    3    0  502 -0.55501382379E+02  0.22458556539E+02 -0.21131614831E+03  0.21967425235E+03  0.41800000000E+01 0. -1.
        -11    1    1    2    0    0  0.12699586084E+02 -0.81197074215E+01  0.12962496635E+02  0.19880529528E+02  0.00000000000E+00 0. -1.
         11    1    1    2    0    0  0.44483206481E+02 -0.70403372850E+01 -0.14042246433E+03  0.14746793040E+03  0.00000000000E+00 0.  1.
</event>
<event>
 7    1  0.2564986E-009  0.1002882E+03  0.7561462E-02  0.1279691E+00
          1   -1    0    0  501    0  0.00000000000E+00  0.00000000000E+00  0.26768299406E+03  0.26768299406E+03  0.00000000000E+00 0. -1.
         -1   -1    0    0    0  501 -0.00000000000E+00 -0.00000000000E+00 -0.71955168280E+02  0.71955168280E+02  0.00000000000E+00 0.  1.
         25    2    1    2    0    0  0.64949115029E+02  0.56882786560E+01  0.17952695666E+03  0.22831567825E+03  0.12508947480E+03 0.  0.
          5    1    3    3  502    0  0.83445437763E+02 -0.22614534027E+02  0.17325753273E+03  0.19367551028E+03  0.41800000000E+01 0. -1.
         -5    1    3    3    0  502 -0.18496322733E+02  0.28302812683E+02  0.62694239298E+01  0.34640167968E+02  0.41800000000E+01 0. -1.
        -11    1    1    2    0    0 -0.12677762984E+01  0.13408866735E+02  0.38825322126E+02  0.41095140857E+02  0.00000000000E+00 0. -1.
         11    1    1    2    0    0 -0.63681338731E+02 -0.19097145391E+02 -0.22624453006E+02  0.70227343240E+02  0.00000000000E+00 0.  1.
</event>
<event>
 7    1  0.2564986E-009  0.1066112E+03  0.7561462E-02  0.1266977E+00
         -2   -1    0    0    0  501 -0.00000000000E+00  0.00000000000E+00  0.73532221654E+03  0.73532221654E+03  0.00000000000E+00 0.  1.
          2   -1    0    0  501    0  0.00000000000E+00 -0.00000000000E+00 -0.20272206539E+02  0.20272206539E+02  0.00000000000E+00 0. -1.
         25    2    1    2    0    0  0.25148149668E+02  0.48282886936E+02  0.45968947748E+03  0.47950440994E+03  0.12508555808E+03 0.  0.
          5    1    3    3  502    0 -0.48547677138E+02  0.13024879695E+01  0.15292783405E+03  0.16050846787E+03  0.41800000000E+01 0. -1.
         -5    1    3    3    0  502  0.73695826806E+02  0.46980398967E+02  0.30676164343E+03  0.31899594207E+03  0.41800000000E+01 0. -1.
        -11    1    1    2    0    0 -0.36382921856E+02 -0.53415481838E+02  0.25569245851E+03  0.26373388869E+03  0.00000000000E+00 0.  1.
         11    1    1    2    0    0  0.11234772188E+02  0.51325949024E+01 -0.33192599639E+00  0.12356124449E+02  0.00000000000E+00 0. -1.
</event>
<event>
 7    1  0.2564986E-009  0.1507767E+03  0.7561462E-02  0.1199522E+00
          4   -1    0    0  501    0  0.00000000000E+00  0.00000000000E+00  0.17781267658E+03  0.17781267658E+03  0.00000000000E+00 0. -1.
         -4   -1    0    0    0  501 -0.00000000000E+00 -0.00000000000E+00 -0.13763729175E+03  0.13763729175E+03  0.00000000000E+00 0.  1.
         25    2    1    2    0    0  0.16328653512E+02 -0.10688773700E+03  0.54468260266E+02  0.17408263376E+03  0.12508540584E+03 0.  0.
          5    1    3    3  502    0  0.53809790098E+02 -0.11451865528E+03  0.45889960243E+02  0.13466022713E+03  0.41800000000E+01 0.  1.
         -5    1    3    3    0  502 -0.37481136587E+02  0.76309182817E+01  0.85783000235E+01  0.39422406636E+02  0.41800000000E+01 0.  1.
        -11    1    1    2    0    0  0.30920391582E+02  0.17914420216E+02  0.11203392939E+02  0.37450141263E+02  0.00000000000E+00 0.  1.
         11    1    1    2    0    0 -0.47249045094E+02  0.88973316787E+02 -0.25496268382E+02  0.10391719330E+03  0.00000000000E+00 0. -1.
</event>
<event>
 7    1  0.2564986E-009  0.9560823E+02  0.7561462E-02  0.1289812E+00
          2   -1    0    0  501    0  0.00000000000E+00  0.00000000000E+00  0.88194116144E+03  0.88194116144E+03  0.00000000000E+00 0. -1.
         -2   -1    0    0    0  501 -0.00000000000E+00 -0.00000000000E+00 -0.40411157411E+02  0.40411157411E+02  0.00000000000E+00 0.  1.
         25    2    1    2    0    0 -0.21587631276E+02  0.43915932771E+02  0.79551485393E+03  0.80677703045E+03  0.12510259417E+03 0.  0.
          5    1    3    3  502    0 -0.72796759043E+02  0.35653396035E+02  0.53417393777E+03  0.54030528497E+03  0.41800000000E+01 0.  1.
         -5    1    3    3    0  502  0.51209127767E+02  0.82625367364E+01  0.26134091616E+03  0.26647174548E+03  0.41800000000E+01 0.  1.
        -11    1    1    2    0    0  0.15038260349E+02 -0.15237600689E+01 -0.26970774269E+02  0.30917531980E+02  0.00000000000E+00 0.  1.
         11    1    1    2    0    0  0.65493709274E+01 -0.42392172702E+02  0.72985924363E+02  0.84657756414E+02  0.00000000000E+00 0. -1.
</event>
<event>
 7    1  0.2564986E-009  0.1068895E+03  0.7561462E-02  0.1266441E+00
         -1   -1    0    0    0  501 -0.00000000000E+00  0.00000000000E+00  0.34804389969E+02  0.34804389969E+02  0.00000000000E+00 0.  1.
          1   -1    0    0  501    0  0.00000000000E+00 -0.00000000000E+00 -0.37535410994E+03  0.37535410994E+03  0.00000000000E+00 0. -1.
         25    2    1    2    0    0 -0.35759728256E+01  0.24275577054E+02 -0.14243523586E+03  0.19114597454E+03  0.12508755312E+03 0.  0.
          5    1    3    3  502    0  0.42931407336E+02 -0.29462449654E+02 -0.37346127560E+02  0.64213295502E+02  0.41800000000E+01 0.  1.
         -5    1    3    3    0  502 -0.46507380162E+02  0.53738026708E+02 -0.10508910830E+03  0.12693267904E+03  0.41800000000E+01 0.  1.
        -11    1    1    2    0    0 -0.10674190893E+02 -0.55241975054E+02 -0.14863467968E+03  0.15892728577E+03  0.00000000000E+00 0. -1.
         11    1    1    2    0    0  0.14250163719E+02  0.30966398000E+02 -0.49479804420E+02  0.60085239590E+02  0.00000000000E+00 0.  1.
</event>
<event>
 7    1  0.2564986E-009  0.1852105E+03  0.7561462E-02  0.1162853E+00
          2   -1    0    0  501    0  0.00000000000E+00  0.00000000000E+00  0.48567680030E+03  0.48567680030E+03  0.00000000000E+00 0. -1.
         -2   -1    0    0    0  501 -0.00000000000E+00 -0.00000000000E+00 -0.16596016657E+03  0.16596016657E+03  0.00000000000E+00 0.  1.
         25    2    1    2    0    0  0.97643268629E+02  0.12218407230E+03  0.40466814660E+03  0.45151556819E+03  0.12508734554E+03 0.  0.
          5    1    3    3  502    0  0.85047855047E+02  0.21693893633E+02  0.26321156260E+03  0.27749155258E+03  0.41800000000E+01 0. -1.
         -5    1    3    3    0  502  0.12595413582E+02  0.10049017866E+03  0.14145658401E+03  0.17402401561E+03  0.41800000000E+01 0. -1.
        -11    1    1    2    0    0  0.11881833540E+02 -0.46657034454E+02 -0.21762666452E+02  0.52836261066E+02  0.00000000000E+00 0. -1.
         11    1    1    2    0    0 -0.10952510217E+03 -0.75527037842E+02 -0.63188846423E+02  0.14728513762E+03  0.00000000000E+00 0.  1.
</event>
<event>
 7    1  0.2564986E-009  0.1447660E+03  0.7561462E-02  0.1207056E+00
         -1   -1    0    0    0  501 -0.00000000000E+00  0.00000000000E+00  0.29454597434E+02  0.29454597434E+02  0.00000000000E+00 0.  1.
          1   -1    0    0  501    0  0.00000000000E+00 -0.00000000000E+00 -0.86811721471E+03  0.86811721471E+03  0.00000000000E+00 0. -1.
         25    2    1    2    0    0 -0.11262231342E+03  0.29632150642E+02 -0.48960062300E+03  0.51857420608E+03  0.12509431377E+03 0.  0.
          5    1    3    3  502    0 -0.12738145817E+03  0.12523404913E+02 -0.47350958775E+03  0.49052183809E+03  0.41800000000E+01 0.  1.
         -5    1    3    3    0  502  0.14759144748E+02  0.17108745729E+02 -0.16091035247E+02  0.28052367982E+02  0.41800000000E+01 0.  1.
        -11    1    1    2    0    0  0.10305799980E+01  0.17371918680E+02 -0.12813085694E+02  0.21610664469E+02  0.00000000000E+00 0.  1.
         11    1    1    2    0    0  0.11159173342E+03 -0.47004069322E+02 -0.33624890859E+03  0.35738694160E+03  0.00000000000E+00 0. -1.
</event>
<event>
 7    1  0.2564986E-009  0.1043268E+03  0.7561462E-02  0.1271452E+00
         -2   -1    0    0    0  501 -0.00000000000E+00  0.00000000000E+00  0.46642442794E+02  0.46642442794E+02  0.00000000000E+00 0.  1.
          2   -1    0    0  501    0  0.00000000000E+00 -0.00000000000E+00 -0.33946465829E+03  0.33946465829E+03  0.00000000000E+00 0. -1.
         25    2    1    2    0    0 -0.63459544579E+02 -0.86443670712E+01 -0.17093847164E+03  0.22128955902E+03  0.12508904413E+03 0.  0.
          5    1    3    3  502    0 -0.15590428790E+02 -0.50699617919E+02 -0.14111498773E+03  0.15081254884E+03  0.41800000000E+01 0. -1.
         -5    1    3    3    0  502 -0.47869115789E+02  0.42055250848E+02 -0.29823483919E+02  0.70477010176E+02  0.41800000000E+01 0. -1.
        -11    1    1    2    0    0  0.44821898750E+02 -0.26313367833E+02 -0.20328573909E+02  0.55809021237E+02  0.00000000000E+00 0.  1.
         11    1    1    2    0    0  0.18637645829E+02  0.34957734904E+02 -0.10155516995E+03  0.10900852083E+03  0.00000000000E+00 0. -1.
</event>
<event>
 7    1  0.2564986E-009  0.6796395E+02  0.7561462E-02  0.1367157E+00
         -1   -1    0    0    0  501 -0.00000000000E+00  0.00000000000E+00  0.18556939296E+02  0.18556939296E+02  0.00000000000E+00 0.  1.
          1   -1    0    0  501    0  0.00000000000E+00 -0.00000000000E+00 -0.60677457334E+03  0.60677457334E+03  0.00000000000E+00 0. -1.
         25    2    1    2    0    0 -0.79701798167E+01 -0.27725461196E+00 -0.34065367734E+03  0.36298287014E+03  0.12509210803E+03 0.  0.
          5    1    3    3  502    0  0.17631561973E+01  0.27478498312E+02 -0.33037458168E+03  0.33154639677E+03  0.41800000000E+01 0.  1.
         -5    1    3    3    0  502 -0.97333360140E+01 -0.27755752924E+02 -0.10279095660E+02  0.31436473369E+02  0.41800000000E+01 0.  1.
        -11    1    1    2    0    0  0.40585677937E+02  0.14072253031E+02 -0.18974552203E+03  0.19454713745E+03  0.00000000000E+00 0. -1.
         11    1    1    2    0    0 -0.32615498120E+02 -0.13794998419E+02 -0.57818434673E+02  0.67801505050E+02  0.00000000000E+00 0.  1.
</event>
<event>
 7    1  0.2564986E-009  0.2100326E+03  0.7561462E-02  0.1141540E+00
         -1   -1    0    0    0  501 -0.00000000000E+00  0.00000000000E+00  0.55858600189E+02  0.55858600189E+02  0.00000000000E+00 0.  1.
          1   -1    0    0  501    0  0.00000000000E+00 -0.00000000000E+00 -0.98377883809E+03  0.98377883809E+03  0.00000000000E+00 0. -1.
         25    2    1    2    0    0 -0.17134129303E+03  0.87524235284E+02 -0.65405279735E+03  0.69314574896E+03  0.12509051566E+03 0.  0.
          5    1    3    3  502    0  0.15857214714E+02  0.39821147715E+01 -0.17181371104E+02  0.24082782430E+02  0.41800000000E+01 0.  1.
         -5    1    3    3    0  502 -0.18719850775E+03  0.83542120513E+02 -0.63687142625E+03  0.66906296653E+03  0.41800000000E+01 0.  1.
        -11    1    1    2    0    0  0.69883751564E+02 -0.62265180909E+02 -0.68319491288E+02  0.11588030193E+03  0.00000000000E+00 0.  1.
         11    1    1    2    0    0  0.10145754147E+03 -0.25259054375E+02 -0.20554794926E+03  0.23061138739E+03  0.00000000000E+00 0. -1.
</event>
<event>
 7    1  0.2564986E-009  0.1622958E+03  0.7561462E-02  0.1186129E+00
         -2   -1    0    0    0  501 -0.00000000000E+00  0.00000000000E+00  0.31591551262E+02  0.31591551262E+02  0.00000000000E+00 0.  1.
          2   -1    0    0  501    0  0.00000000000E+00 -0.00000000000E+00 -0.88129266991E+03  0.88129266991E+03  0.00000000000E+00 0. -1.
         25    2    1    2    0    0 -0.55151376619E+02  0.10705581943E+03 -0.54806026852E+03  0.57490759451E+03  0.12508421757E+03 0.  0.
          5    1    3    3  502    0  0.18388528173E+02  0.96377356061E+02 -0.28081827386E+03  0.29749471939E+03  0.41800000000E+01 0.  1.
         -5    1    3    3    0  502 -0.73539904792E+02  0.10678463367E+02 -0.26724199466E+03  0.27741287513E+03  0.41800000000E+01 0.  1.
        -11    1    1    2    0    0  0.51995247711E+02 -0.77120388142E+01 -0.91730775847E+02  0.10572377483E+03  0.00000000000E+00 0.  1.
         11    1    1    2    0    0  0.31561289080E+01 -0.99343780613E+02 -0.20991007429E+03  0.23225285183E+03  0.00000000000E+00 0. -1.
</event>
<event>
 7    1  0.2564986E-009  0.1541499E+03  0.7561462E-02  0.1195464E+00
         -1   -1    0    0    0  501 -0.00000000000E+00  0.00000000000E+00  0.19331977267E+02  0.19331977267E+02  0.00000000000E+00 0.  1.
          1   -1    0    0  501    0  0.00000000000E+00 -0.00000000000E+00 -0.20334200364E+04  0.20334200364E+04  0.00000000000E+00 0. -1.
         25    2    1    2    0    0  0.13065080065E+03 -0.33185537237E+01 -0.15796226062E+04  0.15899484204E+04  0.12509099459E+03 0.  0.
          5    1    3    3  502    0  0.10503552513E+03 -0.32572263490E+02 -0.63133202367E+03  0.64085178505E+03  0.41800000000E+01 0. -1.
         -5    1    3    3    0  502  0.25615275523E+02  0.29253709766E+02 -0.94829058255E+03  0.94909663535E+03  0.41800000000E+01 0. -1.
        -11    1    1    2    0    0 -0.14426415545E+03 -0.26264817214E+01 -0.40170866774E+03  0.42683591542E+03  0.00000000000E+00 0.  1.
         11    1    1    2    0    0  0.13613354799E+02  0.59450354451E+01 -0.32756785171E+02  0.35967677852E+02  0.00000000000E+00 0. -1.
</event>
<event>
 7    1  0.2564986E-009  0.1016665E+03  0.7561462E-02  0.1276830E+00
         -4   -1    0    0    0  501 -0.00000000000E+00  0.00000000000E+00  0.52496114402E+03  0.52496114402E+03  0.00000000000E+00 0.  1.
          4   -1    0    0  501    0  0.00000000000E+00 -0.00000000000E+00 -0.27341651206E+02  0.27341651206E+02  0.00000000000E+00 0. -1.
         25    2    1    2    0    0  0.44909747311E+02 -0.25053982937E+02  0.30095967311E+03  0.32994826840E+03  0.12507816561E+03 0.  0.
          5    1    3    3  502    0  0.36516364721E+02  0.44671589551E+02  0.84997113210E+02  0.10281525888E+03  0.41800000000E+01 0.  1.
         -5    1    3    3    0  502  0.83933825896E+01 -0.69725572488E+02  0.21596255991E+03  0.22713300951E+03  0.41800000000E+01 0.  1.
        -11    1    1    2    0    0 -0.54174139018E+02  0.67200695783E+01  0.19412807721E+03  0.20165740015E+03  0.00000000000E+00 0.  1.
         11    1    1    2    0    0  0.92643917070E+01  0.18333913358E+02  0.25317424902E+01  0.20697126679E+02  0.00000000000E+00 0. -1.
</event>
<event>
 7    1  0.2564986E-009  0.1133154E+03  0.7561462E-02  0.1254551E+00
          2   -1    0    0  501    0  0.00000000000E+00  0.00000000000E+00  0.18214350544E+03  0.18214350544E+03  0.00000000000E+00 0. -1.
         -2   -1    0    0    0  501 -0.00000000000E+00 -0.00000000000E+00 -0.10277926884E+03  0.10277926884E+03  0.00000000000E+00 0.  1.
         25    2    1    2    0    0 -0.74985376794E+02 -0.33572721221E+02  0.36554657687E+02  0.15405767137E+03  0.12509032243E+03 0.  0.
          5    1    3    3  502    0 -0.25525348592E+02 -0.52204956498E+02  0.70228805536E+02  0.91249429756E+02  0.41800000000E+01 0.  1.
         -5    1    3    3    0  502 -0.49460028202E+02  0.18632235278E+02 -0.33674147849E+02  0.62808241614E+02  0.41800000000E+01 0.  1.
        -11    1    1    2    0    0  0.49307624699E+02  0.60563693385E+02  0.57365263299E+01  0.78307793636E+02  0.00000000000E+00 0.  1.
         11    1    1    2    0    0  0.25677752095E+02 -0.26990972164E+02  0.37073052577E+02  0.52557309277E+02  0.00000000000E+00 0. -1.
</event>
<event>
 7    1  0.2564986E-009  0.8060439E+02  0.7561462E-02  0.1327345E+00
         -1   -1    0    0    0  501 -0.00000000000E+00  0.00000000000E+00  0.45189677656E+03  0.45189677656E+03  0.00000000000E+00 0.  1.
          1   -1    0    0  501    0  0.00000000000E+00 -0.00000000000E+00 -0.31183712017E+02  0.31183712017E+02  0.00000000000E+00 0. -1.
         25    2    1    2    0    0 -0.19430163176E+01  0.47500439873E+02  0.26804607116E+03  0.29959312748E+03  0.12508908293E+03 0.  0.
          5    1    3    3  502    0 -0.16466691685E+02  0.60445006715E+02  0.48998147720E+02  0.79643214726E+02  0.41800000000E+01 0. -1.
         -5    1    3    3    0  502  0.14523675367E+02 -0.12944566842E+02  0.21904792344E+03  0.21994991275E+03  0.41800000000E+01 0. -1.
        -11    1    1    2    0    0 -0.30221756358E+02 -0.25634211275E+02  0.13513338659E+03  0.14082435697E+03  0.00000000000E+00 0.  1.
         11    1    1    2    0    0  0.32164772676E+02 -0.21866228599E+02  0.17533606802E+02  0.42663004136E+02  0.00000000000E+00 0. -1.
</event>
<event>
 7    1  0.2564986E-009  0.1515851E+03  0.7561462E-02  0.1198539E+00
         -2   -1    0    0    0  501 -0.00000000000E+00  0.00000000000E+00  0.48237993606E+02  0.48237993606E+02  0.00000000000E+00 0.  1.
          2   -1    0    0  501    0  0.00000000000E+00 -0.00000000000E+00 -0.50385897717E+03  0.50385897717E+03  0.00000000000E+00 0. -1.
         25    2    1    2    0    0  0.50668266717E+02 -0.98459773817E+02 -0.26260244560E+03  0.31123801209E+03  0.12508978944E+03 0.  0.
          5    1    3    3  502    0  0.16724491443E+02 -0.11851397846E+03 -0.15052637043E+03  0.19235626400E+03  0.41800000000E+01 0. -1.
         -5    1    3    3    0  502  0.33943775274E+02  0.20054204641E+02 -0.11207607517E+03  0.11888174809E+03  0.41800000000E+01 0. -1.
        -11    1    1    2    0    0  0.26794716223E+02  0.31647384655E+02 -0.63004877873E+02  0.75426311117E+02  0.00000000000E+00 0.  1.
         11    1    1    2    0    0 -0.77462982940E+02  0.66812389162E+02 -0.13001366008E+03  0.16543264756E+03  0.00000000000E+00 0. -1.
</event>
<event>
 7    1  0.2564986E-009  0.1229540E+03  0.7561462E-02  0.1238302E+00
          2   -1    0    0  501    0  0.00000000000E+00  0.00000000000E+00  0.61818889302E+02  0.61818889302E+02  0.00000000000E+00 0. -1.
         -2   -1    0    0    0  501 -0.00000000000E+00 -0.00000000000E+00 -0.29183681243E+03  0.29183681243E+03  0.00000000000E+00 0.  1.
         25    2    1    2    0    0 -0.66158013801E+02  0.35503035902E+02 -0.16003998748E+03  0.21655883337E+03  0.12509029685E+03 0.  0.
          5    1    3    3  502    0  0.21428989690E+02  0.51400275455E+02 -0.73788680175E+02  0.92538811522E+02  0.41800000000E+01 0. -1.
         -5    1    3    3    0  502 -0.87587003491E+02 -0.15897239553E+02 -0.86251307309E+02  0.12402002184E+03  0.41800000000E+01 0. -1.
        -11    1    1    2    0    0  0.11988224134E+02 -0.44454482373E+02  0.25709058189E+01  0.46114293638E+02  0.00000000000E+00 0.  1.
         11    1    1    2    0    0  0.54169789667E+02  0.89514464713E+01 -0.72548841462E+02  0.90982574727E+02  0.00000000000E+00 0. -1.
</event>
<event>
 7    1  0.2564986E-009  0.1183036E+03  0.7561462E-02  0.1245922E+00
          2   -1    0    0  501    0  0.00000000000E+00  0.00000000000E+00  0.10748995440E+03  0.10748995440E+03  0.00000000000E+00 0. -1.
         -2   -1    0    0    0  501 -0.00000000000E+00 -0.00000000000E+00 -0.18267465739E+03  0.18267465739E+03  0.00000000000E+00 0.  1.
         25    2    1    2    0    0 -0.44646428731E+02 -0.70296461791E+02 -0.84700823348E+01  0.15051556641E+03  0.12509315448E+03 0.  0.
          5    1    3    3  502    0 -0.48594148206E+02 -0.10313432296E+03  0.58434593102E+01  0.11423527576E+03  0.41800000000E+01 0.  1.
         -5    1    3    3    0  502  0.39477194749E+01  0.32837861165E+02 -0.14313541645E+02  0.36280290646E+02  0.41800000000E+01 0.  1.
        -11    1    1    2    0    0  0.18663965169E+02  0.57038809480E+02  0.69534617843E+01  0.60416223099E+02  0.00000000000E+00 0. -1.
         11    1    1    2    0    0  0.25982463562E+02  0.13257652311E+02 -0.73668082433E+02  0.79232822283E+02  0.00000000000E+00 0.  1.
</event>
<event>
 7    1  0.2564986E-009  0.8171500E+02  0.7561462E-02  0.1324254E+00
         -2   -1    0    0    0  501 -0.00000000000E+00  0.00000000000E+00  0.12247323331E+03  0.12247323331E+03  0.00000000000E+00 0.  1.
          2   -1    0    0  501    0  0.00000000000E+00 -0.00000000000E+00 -0.15522861647E+03  0.15522861647E+03  0.00000000000E+00 0. -1.
         25    2    1    2    0    0  0.12453242147E+02  0.90536570998E+01  0.65007729533E+02  0.14181718643E+03  0.12509619307E+03 0.  0.
          5    1    3    3  502    0 -0.50428509022E+01  0.50706102402E+02  0.79208255995E+02  0.94275974584E+02  0.41800000000E+01 0.  1.
         -5    1    3    3    0  502  0.17496093050E+02 -0.41652445302E+02 -0.14200526462E+02  0.47541211843E+02  0.41800000000E+01 0.  1.
        -11    1    1    2    0    0 -0.33746245518E+02 -0.23568939138E+02 -0.72765966956E+01  0.41800153565E+02  0.00000000000E+00 0.  1.
         11    1    1    2    0    0  0.21293003370E+02  0.14515282038E+02 -0.90486516001E+02  0.94084509794E+02  0.00000000000E+00 0. -1.
</event>
<event>
 7    1  0.2564986E-009  0.1374843E+03  0.7561462E-02  0.1216755E+00
          4   -1    0    0  501    0  0.00000000000E+00  0.00000000000E+00  0.73710116322E+02  0.73710116322E+02  0.00000000000E+00 0. -1.
         -4   -1    0    0    0  501 -0.00000000000E+00 -0.00000000000E+00 -0.36173410377E+03  0.36173410377E+03  0.00000000000E+00 0.  1.
         25    2    1    2    0    0 -0.71688766351E+01 -0.11401018625E+03 -0.20815028648E+03  0.26837092470E+03  0.12508675431E+03 0.  0.
          5    1    3    3  502    0 -0.45979562486E+02 -0.10462142810E+03 -0.96195545300E+02  0.14943499831E+03  0.41800000000E+01 0. -1.
         -5    1    3    3    0  502  0.38810685851E+02 -0.93887581575E+01 -0.11195474118E+03  0.11893592640E+03  0.41800000000E+01 0. -1.
        -11    1    1    2    0    0  0.23012438934E+02  0.70375859388E+02  0.74273607958E+00  0.74046509622E+02  0.00000000000E+00 0. -1.
         11    1    1    2    0    0 -0.15843562298E+02  0.43634326866E+02 -0.80616437051E+02  0.93026785767E+02  0.00000000000E+00 0.  1.
</event>
<event>
 7    1  0.2564986E-009  0.1030860E+03  0.7561462E-02  0.1273937E+00
         -1   -1    0    0    0  501 -0.00000000000E+00  0.00000000000E+00  0.48460418270E+02  0.48460418270E+02  0.00000000000E+00 0.  1.
          1   -1    0    0  501    0  0.00000000000E+00 -0.00000000000E+00 -0.28308352407E+03  0.28308352407E+03  0.00000000000E+00 0. -1.
         25    2    1    2    0    0  0.88031164589E+01 -0.18927863274E+01 -0.19154190797E+03  0.22895451233E+03  0.12510311230E+03 0.  0.
          5    1    3    3  502    0 -0.11137985532E+02  0.56232205646E+02 -0.56823457047E+02  0.80823841435E+02  0.41800000000E+01 0.  1.
         -5    1    3    3    0  502  0.19941101990E+02 -0.58124991973E+02 -0.13471845092E+03  0.14813067089E+03  0.41800000000E+01 0.  1.
        -11    1    1    2    0    0 -0.47390823556E+02 -0.58351169326E+01 -0.53113808760E+01  0.48043204657E+02  0.00000000000E+00 0.  1.
         11    1    1    2    0    0  0.38587707097E+02  0.77279032599E+01 -0.37769816958E+02  0.54546225358E+02  0.00000000000E+00 0. -1.
</event>
<event>
 7    1  0.2564986E-009  0.1335853E+03  0.7561462E-02  0.1222231E+00
          1   -1    0    0  501    0  0.00000000000E+00  0.00000000000E+00  0.18507908573E+03  0.18507908573E+03  0.00000000000E+00 0. -1.
         -1   -1    0    0    0  501 -0.00000000000E+00 -0.00000000000E+00 -0.99693631257E+02  0.99693631257E+02  0.00000000000E+00 0.  1.
         25    2    1    2    0    0 -0.39693729798E+02  0.71748171607E+02  0.34934659031E+02  0.15360060915E+03  0.12509725982E+03 0.  0.
          5    1    3    3  502    0  0.10121045875E+02 -0.30740764356E+02 -0.45046924029E+01  0.32942295251E+02  0.41800000000E+01 0.  1.
         -5    1    3    3    0  502 -0.49814775673E+02  0.10248893596E+03  0.39439351434E+02  0.12065831389E+03  0.41800000000E+01 0.  1.
        -11    1    1    2    0    0 -0.19058606258E+02 -0.56758555669E+02  0.31449855627E+02  0.67630300407E+02  0.00000000000E+00 0. -1.
         11    1    1    2    0    0  0.58752336057E+02 -0.14989615938E+02  0.19000939813E+02  0.63541807433E+02  0.00000000000E+00 0.  1.
</event>
<event>
 7    1  0.2564986E-009  0.1013151E+03  0.7561462E-02  0.1277555E+00
         -4   -1    0    0    0  501 -0.00000000000E+00  0.00000000000E+00  0.25387247689E+02  0.25387247689E+02  0.00000000000E+00 0.  1.
          4   -1    0    0  501    0  0.00000000000E+00 -0.00000000000E+00 -0.49638268019E+03  0.49638268019E+03  0.00000000000E+00 0. -1.
         25    2    1    2    0    0 -0.41703335960E+00  0.28464927251E-01 -0.19744473605E+03  0.23373651243E+03  0.12509260060E+03 0.  0.
          5    1    3    3  502    0 -0.41943708459E+02  0.40939162022E+02 -0.13980432232E+03  0.15165094990E+03  0.41800000000E+01 0. -1.
         -5    1    3    3    0  502  0.41526675099E+02 -0.40910697094E+02 -0.57640413725E+02  0.82085562530E+02  0.41800000000E+01 0. -1.
        -11    1    1    2    0    0  0.33316809239E+02 -0.27000389963E+02 -0.91105545498E+02  0.10069384915E+03  0.00000000000E+00 0.  1.
         11    1    1    2    0    0 -0.32899775879E+02  0.26971925036E+02 -0.18244515095E+03  0.18733956630E+03  0.00000000000E+00 0. -1.
</event>
<event>
 7    1  0.2564986E-009  0.1729491E+03  0.7561462E-02  0.1174807E+00
         -1   -1    0    0    0  501 -0.00000000000E+00  0.00000000000E+00  0.18297885467E+03  0.18297885467E+03  0.00000000000E+00 0. -1.
          1   -1    0    0  501    0  0.00000000000E+00 -0.00000000000E+00 -0.27228187812E+03  0.27228187812E+03  0.00000000000E+00 0.  1.
         25    2    1    2    0    0  0.66711113309E+02 -0.12031574535E+03 -0.18531289661E+03  0.26251625509E+03  0.12509062043E+03 0.  0.
          5    1    3    3  502    0  0.78020487649E+01 -0.12007098854E+03 -0.89714177097E+02  0.15014666239E+03  0.41800000000E+01 0.  1.
         -5    1    3    3    0  502  0.58909064544E+02 -0.24475680884E+00 -0.95598719514E+02  0.11236959270E+03  0.41800000000E+01 0.  1.
        -11    1    1    2    0    0  0.32963681845E+01 -0.14319993207E+02  0.38062460772E+01  0.15179451830E+02  0.00000000000E+00 0. -1.
         11    1    1    2    0    0 -0.70007481493E+02  0.13463573856E+03  0.92203627079E+02  0.17756502586E+03  0.00000000000E+00 0.  1.
</event>
<event>
 7    1  0.2564986E-009  0.9043530E+02  0.7561462E-02  0.1301801E+00
          1   -1    0    0  501    0  0.00000000000E+00  0.00000000000E+00  0.30199509886E+03  0.30199509886E+03  0.00000000000E+00 0. -1.
         -1   -1    0    0    0  501 -0.00000000000E+00 -0.00000000000E+00 -0.43287815020E+02  0.43287815020E+02  0.00000000000E+00 0.  1.
         25    2    1    2    0    0 -0.28690941101E+02  0.20516082521E+02  0.14121152272E+03  0.19191665006E+03  0.12508887512E+03 0.  0.
          5    1    3    3  502    0  0.25089172594E+02 -0.71860139149E+01 -0.10573212853E+02  0.28467009106E+02  0.41800000000E+01 0. -1.
         -5    1    3    3    0  502 -0.53780113694E+02  0.27702096436E+02  0.15178473557E+03  0.16344964095E+03  0.41800000000E+01 0. -1.
        -11    1    1    2    0    0 -0.25800448751E+02  0.13943483524E+02  0.16798877618E+02  0.33797724446E+02  0.00000000000E+00 0.  1.
         11    1    1    2    0    0  0.54491389852E+02 -0.34459566044E+02  0.10069688350E+03  0.11956853937E+03  0.00000000000E+00 0. -1.
</event>
<event>
 7    1  0.2564986E-009  0.1060255E+03  0.7561462E-02  0.1268112E+00
          4   -1    0    0  501    0  0.00000000000E+00  0.00000000000E+00  0.53385262540E+03  0.53385262540E+03  0.00000000000E+00 0. -1.
         -4   -1    0    0    0  501 -0.00000000000E+00 -0.00000000000E+00 -0.34603159909E+02  0.34603159909E+02  0.00000000000E+00 0.  1.
         25    2    1    2    0    0  0.36726760361E+02 -0.43814808452E+02  0.15540047243E+03  0.20753286808E+03  0.12510792194E+03 0.  0.
          5    1    3    3  502    0 -0.37620377449E+02 -0.17130208406E+02  0.10703726350E+03  0.11481805179E+03  0.41800000000E+01 0. -1.
         -5    1    3    3    0  502  0.74347137810E+02 -0.26684600047E+02  0.48363208929E+02  0.92714816281E+02  0.41800000000E+01 0. -1.
        -11    1    1    2    0    0 -0.96975061788E+00 -0.19052504352E+02  0.15150006071E+02  0.24361055442E+02  0.00000000000E+00 0.  1.
         11    1    1    2    0    0 -0.35757009743E+02  0.62867312804E+02  0.32869898699E+03  0.33656186179E+03  0.00000000000E+00 0. -1.
</event>
<event>
 7    1  0.2564986E-009  0.1890649E+03  0.7561462E-02  0.1159307E+00
          1   -1    0    0  501    0  0.00000000000E+00  0.00000000000E+00  0.16701408557E+04  0.16701408557E+04  0.00000000000E+00 0. -1.
         -1   -1    0    0    0  501 -0.00000000000E+00 -0.00000000000E+00 -0.25150066434E+02  0.25150066434E+02  0.00000000000E+00 0.  1.
         25    2    1    2    0    0  0.36790654636E+02  0.15872279333E+03  0.11009603807E+04  0.11199580112E+04  0.12508281031E+03 0.  0.
          5    1    3    3  502    0  0.81054265640E+01  0.17063221821E+03  0.84645031719E+03  0.86352571687E+03  0.41800000000E+01 0. -1.
         -5    1    3    3    0  502  0.28685228072E+02 -0.11909424876E+02  0.25451006356E+03  0.25643229431E+03  0.41800000000E+01 0. -1.
        -11    1    1    2    0    0  0.18862206710E+02 -0.55905608028E+02  0.99434357790E+02  0.11562184638E+03  0.00000000000E+00 0.  1.
         11    1    1    2    0    0 -0.55652861347E+02 -0.10281718531E+03  0.44459605072E+03  0.45971106457E+03  0.00000000000E+00 0. -1.
</event>
<event>
 7    1  0.2564986E-009  0.2504204E+03  0.7561462E-02  0.1113039E+00
          2   -1    0    0  501    0  0.00000000000E+00  0.00000000000E+00  0.74938447314E+03  0.74938447314E+03  0.00000000000E+00 0. -1.
         -2   -1    0    0    0  501 -0.00000000000E+00 -0.00000000000E+00 -0.12142129221E+03  0.12142129221E+03  0.00000000000E+00 0.  1.
         25    2    1    2    0    0  0.15089930705E+03  0.17764352094E+03  0.93444546978E+02  0.28054550363E+03  0.12508427098E+03 0.  0.
          5    1    3    3  502    0 -0.12857623491E+01  0.72672324057E+02  0.56046629309E+02  0.91878272326E+02  0.41800000000E+01 0. -1.
         -5    1    3    3    0  502  0.15218506940E+03  0.10497119688E+03  0.37397917669E+02  0.18866723131E+03  0.41800000000E+01 0. -1.
        -11    1    1    2    0    0 -0.55566506425E+02 -0.11861531665E+03  0.35725058317E+03  0.38050651658E+03  0.00000000000E+00 0. -1.
         11    1    1    2    0    0 -0.95332800621E+02 -0.59028204287E+02  0.17726805078E+03  0.20975374514E+03  0.00000000000E+00 0.  1.
</event>
<event>
 7    1  0.2564986E-009  0.9372795E+02  0.7561462E-02  0.1294067E+00
          1   -1    0    0  501    0  0.00000000000E+00  0.00000000000E+00  0.40082736508E+03  0.40082736508E+03  0.00000000000E+00 0. -1.
         -1   -1    0    0    0  501 -0.00000000000E+00 -0.00000000000E+00 -0.37024225188E+02  0.37024225188E+02  0.00000000000E+00 0.  1.
         25    2    1    2    0    0 -0.44556788423E+02  0.30485727089E+02  0.22537852273E+03  0.26336104694E+03  0.12509546589E+03 0.  0.
          5    1    3    3  502    0 -0.73381092410E+02  0.55309759458E+02  0.11966810695E+03  0.15093668353E+03  0.41800000000E+01 0. -1.
         -5    1    3    3    0  502  0.28824303986E+02 -0.24824032369E+02  0.10571041579E+03  0.11242436341E+03  0.41800000000E+01 0. -1.
        -11    1    1    2    0    0  0.22783905285E+02 -0.43700443648E+01  0.13856028386E+03  0.14048898851E+03  0.00000000000E+00 0. -1.
         11    1    1    2    0    0  0.21772883139E+02 -0.26115682724E+02 -0.13566670654E+00  0.34001554814E+02  0.00000000000E+00 0.  1.
</event>
<event>
 7    1  0.2564986E-009  0.2078208E+03  0.7561462E-02  0.1143303E+00
          1   -1    0    0  501    0  0.00000000000E+00  0.00000000000E+00  0.26635401156E+03  0.26635401156E+03  0.00000000000E+00 0. -1.
         -1   -1    0    0    0  501 -0.00000000000E+00 -0.00000000000E+00 -0.17257248462E+03  0.17257248462E+03  0.00000000000E+00 0.  1.
         25    2    1    2    0    0 -0.15808094189E+03  0.94901290878E+02  0.40629450711E+02  0.22648190930E+03  0.12508982283E+03 0.  0.
          5    1    3    3  502    0 -0.15463804598E+03  0.11777115555E+03  0.20433296735E+02  0.19549414917E+03  0.41800000000E+01 0.  1.
         -5    1    3    3    0  502 -0.34428959192E+01 -0.22869864677E+02  0.20196153976E+02  0.30987760133E+02  0.41800000000E+01 0.  1.
        -11    1    1    2    0    0  0.10510327902E+03 -0.21642240969E+02  0.57862294064E+02  0.12191444102E+03  0.00000000000E+00 0. -1.
         11    1    1    2    0    0  0.52977662876E+02 -0.73259049909E+02 -0.47102178253E+01  0.90530145859E+02  0.00000000000E+00 0.  1.
</event>
<event>
 7    1  0.2564986E-009  0.1041897E+03  0.7561462E-02  0.1271724E+00
          2   -1    0    0  501    0  0.00000000000E+00  0.00000000000E+00  0.13942681981E+03  0.13942681981E+03  0.00000000000E+00 0. -1.
         -2   -1    0    0    0  501 -0.00000000000E+00 -0.00000000000E+00 -0.81612378885E+02  0.81612378885E+02  0.00000000000E+00 0.  1.
         25    2    1    2    0    0  0.24565728307E+01  0.18915545822E+00  0.17863831442E+02  0.12638282277E+03  0.12508969138E+03 0.  0.
          5    1    3    3  502    0  0.32703545327E+02 -0.53794008249E+02  0.90485364321E+01  0.63739043074E+02  0.41800000000E+01 0.  1.
         -5    1    3    3    0  502 -0.30246972496E+02  0.53983163707E+02  0.88152950097E+01  0.62643779700E+02  0.41800000000E+01 0.  1.
        -11    1    1    2    0    0 -0.39688256632E+02  0.15836741485E+02  0.90301385553E+01  0.43674975646E+02  0.00000000000E+00 0.  1.
         11    1    1    2    0    0  0.37231683801E+02 -0.16025896943E+02  0.30920470925E+02  0.50981400272E+02  0.00000000000E+00 0. -1.
</event>
<event>
 7    1  0.2564986E-009  0.8266644E+02  0.7561462E-02  0.1321650E+00
         -1   -1    0    0    0  501 -0.00000000000E+00  0.00000000000E+00  0.29108953898E+02  0.29108953898E+02  0.00000000000E+00 0.  1.
          1   -1    0    0  501    0  0.00000000000E+00 -0.00000000000E+00 -0.77738401394E+03  0.77738401394E+03  0.00000000000E+00 0. -1.
         25    2    1    2    0    0  0.39567880496E+02 -0.10630334957E+02 -0.65851695413E+03  0.67154365472E+03  0.12509068765E+03 0.  0.
          5    1    3    3  502    0  0.19909266904E+02  0.29656045209E+02 -0.57939119801E+03  0.58050623826E+03  0.41800000000E+01 0.  1.
         -5    1    3    3    0  502  0.19658613592E+02 -0.40286380167E+02 -0.79125756117E+02  0.91037416463E+02  0.41800000000E+01 0.  1.
        -11    1    1    2    0    0  0.13043409588E+02  0.26381663058E+02 -0.71095998940E+02  0.76946499236E+02  0.00000000000E+00 0. -1.
         11    1    1    2    0    0 -0.52611290085E+02 -0.15751328100E+02 -0.18662106976E+02  0.58002813881E+02  0.00000000000E+00 0.  1.
</event>
<event>
 7    1  0.2564986E-009  0.8542753E+02  0.7561462E-02  0.1314318E+00
         -3   -1    0    0    0  501 -0.00000000000E+00  0.00000000000E+00  0.33976287424E+03  0.33976287424E+03  0.00000000000E+00 0.  1.
          3   -1    0    0  501    0  0.00000000000E+00 -0.00000000000E+00 -0.45282021308E+02  0.45282021308E+02  0.00000000000E+00 0. -1.
         25    2    1    2    0    0  0.34296678729E+02 -0.50675084227E+02  0.15043144280E+03  0.20498880764E+03  0.12508623401E+03 0.  0.
          5    1    3    3  502    0  0.29780119483E+02 -0.48658741937E+02  0.28573872288E+01  0.57272731252E+02  0.41800000000E+01 0. -1.
         -5    1    3    3    0  502  0.45165592459E+01 -0.20163422893E+01  0.14757405558E+03  0.14771607639E+03  0.41800000000E+01 0. -1.
        -11    1    1    2    0    0 -0.63491499519E+02  0.43948185895E+02  0.11341983941E+03  0.13721032587E+03  0.00000000000E+00 0. -1.
         11    1    1    2    0    0  0.29194820790E+02  0.67268983313E+01  0.30629570721E+02  0.42845762039E+02  0.00000000000E+00 0.  1.
</event>
<event>
 7    1  0.2564986E-009  0.1417415E+03  0.7561462E-02  0.1211005E+00
         -2   -1    0    0    0  501 -0.00000000000E+00  0.00000000000E+00  0.49613406710E+02  0.49613406710E+02  0.00000000000E+00 0.  1.
          2   -1    0    0  501    0  0.00000000000E+00 -0.00000000000E+00 -0.66641853856E+03  0.66641853856E+03  0.00000000000E+00 0. -1.
         25    2    1    2    0    0 -0.13297415938E+03 -0.64635332975E+01 -0.21134970680E+03  0.27935842632E+03  0.12509407446E+03 0.  0.
          5    1    3    3  502    0 -0.67184236917E+01 -0.11211218059E+02  0.14857456200E+02  0.20224861730E+02  0.41800000000E+01 0. -1.
         -5    1    3    3    0  502 -0.12625573569E+03  0.47476847612E+01 -0.22620716300E+03  0.25913356459E+03  0.41800000000E+01 0. -1.
        -11    1    1    2    0    0  0.89125743672E+02 -0.21054227741E+02 -0.34564449700E+03  0.35757068811E+03  0.00000000000E+00 0. -1.
         11    1    1    2    0    0  0.43848415708E+02  0.27517761039E+02 -0.59810928055E+02  0.79102830843E+02  0.00000000000E+00 0.  1.
</event>
<event>
 7    1  0.2564986E-009  0.1196611E+03  0.7561462E-02  0.1243657E+00
         -1   -1    0    0    0  501 -0.00000000000E+00  0.00000000000E+00  0.85111596578E+02  0.85111596578E+02  0.00000000000E+00 0.  1.
          1   -1    0    0  501    0  0.00000000000E+00 -0.00000000000E+00 -0.30121683558E+03  0.30121683558E+03  0.00000000000E+00 0. -1.
         25    2    1    2    0    0  0.59299064102E+02 -0.78108438540E+02 -0.19293601106E+03  0.24997854117E+03  0.12509060519E+03 0.  0.
          5    1    3    3  502    0 -0.18941177858E+01  0.20034090777E+02  0.45768046379E+01  0.21056400836E+02  0.41800000000E+01 0. -1.
         -5    1    3    3    0  502  0.61193181887E+02 -0.98142529317E+02 -0.19751281570E+03  0.22892214033E+03  0.41800000000E+01 0. -1.
        -11    1    1    2    0    0 -0.27112572143E+02  0.12286283791E+02 -0.50109517578E+02  0.58283857881E+02  0.00000000000E+00 0. -1.
         11    1    1    2    0    0 -0.32186491959E+02  0.65822154749E+02  0.26940289631E+02  0.78066033112E+02  0.00000000000E+00 0.  1.
</event>
<event>
 7    1  0.2564986E-009  0.1440588E+03  0.7561462E-02  0.1207970E+00
          2   -1    0    0  501    0  0.00000000000E+00  0.00000000000E+00  0.15389377471E+03  0.15389377471E+03  0.00000000000E+00 0. -1.
         -2   -1    0    0    0  501 -0.00000000000E+00 -0.00000000000E+00 -0.20653367316E+03  0.20653367316E+03  0.00000000000E+00 0.  1.
         25    2    1    2    0    0  0.13275322388E+03 -0.45823599923E+02 -0.35271719389E+02  0.19135008913E+03  0.12509013415E+03 0.  0.
          5    1    3    3  502    0  0.44327161452E+02 -0.37249765669E+02  0.43501722246E+02  0.72541812240E+02  0.41800000000E+01 0.  1.
         -5    1    3    3    0  502  0.88426062428E+02 -0.85738342541E+01 -0.78773441635E+02  0.11880827689E+03  0.41800000000E+01 0.  1.
        -11    1    1    2    0    0 -0.53697778199E+02  0.11358022960E+02 -0.52502253181E+02  0.75953555928E+02  0.00000000000E+00 0.  1.
         11    1    1    2    0    0 -0.79055445680E+02  0.34465576963E+02  0.35134074120E+02  0.93123802818E+02  0.00000000000E+00 0. -1.
</event>
<event>
 7    1  0.2564986E-009  0.7630215E+02  0.7561462E-02  0.1339885E+00
          1   -1    0    0  501    0  0.00000000000E+00  0.00000000000E+00  0.11619436194E+04  0.11619436194E+04  0.00000000000E+00 0. -1.
         -1   -1    0    0    0  501 -0.00000000000E+00 -0.00000000000E+00 -0.65041261281E+01  0.65041261281E+01  0.00000000000E+00 0.  1.
         25    2    1    2    0    0 -0.11235810161E+02 -0.15641021571E+00  0.90343981143E+03  0.91212770936E+03  0.12508875808E+03 0.  0.
          5    1    3    3  502    0 -0.29235620169E+02  0.46982533658E+02  0.71020457288E+03  0.71236934781E+03  0.41800000000E+01 0.  1.
         -5    1    3    3    0  502  0.17999810008E+02 -0.47138943873E+02  0.19323523855E+03  0.19975836155E+03  0.41800000000E+01 0.  1.
        -11    1    1    2    0    0  0.16573893722E+02  0.19974189983E+02  0.15673794116E+03  0.15887241554E+03  0.00000000000E+00 0.  1.
         11    1    1    2    0    0 -0.53380835613E+01 -0.19817779767E+02  0.95261740688E+02  0.97447620647E+02  0.00000000000E+00 0. -1.
</event>
<event>
 7    1  0.2564986E-009  0.1088309E+03  0.7561462E-02  0.1262750E+00
          1   -1    0    0  501    0  0.00000000000E+00  0.00000000000E+00  0.43697937496E+03  0.43697937496E+03  0.00000000000E+00 0. -1.
         -1   -1    0    0    0  501 -0.00000000000E+00 -0.00000000000E+00 -0.37169360270E+02  0.37169360270E+02  0.00000000000E+00 0.  1.
         25    2    1    2    0    0  0.18614117853E+02 -0.41744268152E+02  0.30331393561E+03  0.33126387027E+03  0.12508932372E+03 0.  0.
          5    1    3    3  502    0 -0.42179901990E+02  0.12766983145E+02  0.16262729180E+03  0.16854449985E+03  0.41800000000E+01 0.  1.
         -5    1    3    3    0  502  0.60794019843E+02 -0.54511251297E+02  0.14068664380E+03  0.16271937043E+03  0.41800000000E+01 0.  1.
        -11    1    1    2    0    0  0.22913816293E+02 -0.10240185797E+02  0.64187951455E+02  0.68920225582E+02  0.00000000000E+00 0. -1.
         11    1    1    2    0    0 -0.41527934147E+02  0.51984453949E+02  0.32308127630E+02  0.73964639374E+02  0.00000000000E+00 0.  1.
</event>
<event>
 7    1  0.2564986E-009  0.1041863E+03  0.7561462E-02  0.1271731E+00
          1   -1    0    0  501    0  0.00000000000E+00  0.00000000000E+00  0.42700930230E+02  0.42700930230E+02  0.00000000000E+00 0. -1.
         -1   -1    0    0    0  501 -0.00000000000E+00 -0.00000000000E+00 -0.36294255152E+03  0.36294255152E+03  0.00000000000E+00 0.  1.
         25    2    1    2    0    0 -0.46759974647E+02  0.25625575514E+02 -0.22771014754E+03  0.26522160892E+03  0.12508966863E+03 0.  0.
          5    1    3    3  502    0 -0.62502039750E+02  0.57865325037E+02 -0.20630383403E+03  0.22323450708E+03  0.41800000000E+01 0.  1.
         -5    1    3    3    0  502  0.15742065103E+02 -0.32239749524E+02 -0.21406313505E+02  0.41987101840E+02  0.41800000000E+01 0.  1.
        -11    1    1    2    0    0  0.33250422794E+02 -0.49447944907E+02 -0.95821945779E+02  0.11283853581E+03  0.00000000000E+00 0.  1.
         11    1    1    2    0    0  0.13509551853E+02  0.23822369393E+02  0.32904720290E+01  0.27583337016E+02  0.00000000000E+00 0. -1.
</event>
<event>
 7    1  0.2564986E-009  0.1596177E+03  0.7561462E-02  0.1189129E+00
         -2   -1    0    0    0  501 -0.00000000000E+00  0.00000000000E+00  0.16491148878E+03  0.16491148878E+03  0.00000000000E+00 0.  1.
          2   -1    0    0  501    0  0.00000000000E+00 -0.00000000000E+00 -0.17431275754E+03  0.17431275754E+03  0.00000000000E+00 0. -1.
         25    2    1    2    0    0 -0.16436436760E+02 -0.12299777761E+03  0.35502002732E+02  0.17973811114E+03  0.12508711624E+03 0.  0.
          5    1    3    3  502    0 -0.55530129323E+02 -0.24326528551E+02 -0.14296498818E+02  0.62427858624E+02  0.41800000000E+01 0. -1.
         -5    1    3    3    0  502  0.39093692563E+02 -0.98671249056E+02  0.49798501550E+02  0.11731025252E+03  0.41800000000E+01 0. -1.
        -11    1    1    2    0    0  0.49177716083E+02  0.10232553747E+03 -0.26339713880E+02  0.11654502952E+03  0.00000000000E+00 0. -1.
         11    1    1    2    0    0 -0.32741279323E+02  0.20672240137E+02 -0.18563557619E+02  0.42941105662E+02  0.00000000000E+00 0.  1.
</event>
<event>
 7    1  0.2564986E-009  0.1864214E+03  0.7561462E-02  0.1161729E+00
         -1   -1    0    0    0  501 -0.00000000000E+00  0.00000000000E+00  0.20266262714E+03  0.20266262714E+03  0.00000000000E+00 0.  1.
          1   -1    0    0  501    0  0.00000000000E+00 -0.00000000000E+00 -0.19431770517E+03  0.19431770517E+03  0.00000000000E+00 0. -1.
         25    2    1    2    0    0  0.14239040331E+03  0.72906529326E+02  0.39249055780E+02  0.20682090587E+03  0.12507601589E+03 0.  0.
          5    1    3    3  502    0  0.12355536367E+03  0.99277544486E+02  0.37856329339E+01  0.15859937625E+03  0.41800000000E+01 0. -1.
         -5    1    3    3    0  502  0.18835039645E+02 -0.26371015160E+02  0.35463422846E+02  0.48221529621E+02  0.41800000000E+01 0. -1.
        -11    1    1    2    0    0  0.11973003592E+02 -0.54130536764E+01  0.10328581490E+02  0.16713274984E+02  0.00000000000E+00 0.  1.
         11    1    1    2    0    0 -0.15436340690E+03 -0.67493475649E+02 -0.41232715301E+02  0.17344615146E+03  0.00000000000E+00 0. -1.
</event>
<event>
 7    1  0.2564986E-009  0.6990619E+02  0.7561462E-02  0.1360412E+00
          2   -1    0    0  501    0  0.00000000000E+00  0.00000000000E+00  0.24410080120E+02  0.24410080120E+02  0.00000000000E+00 0.  1.
         -2   -1    0    0    0  501 -0.00000000000E+00 -0.00000000000E+00 -0.49679657611E+03  0.49679657611E+03  0.00000000000E+00 0. -1.
         25    2    1    2    0    0 -0.16008647222E+02 -0.12484726144E+00 -0.23914394285E+03  0.27035687938E+03  0.12508686763E+03 0.  0.
          5    1    3    3  502    0 -0.26946413376E+02  0.16851570160E+02 -0.24641380678E+03  0.24849008266E+03  0.41800000000E+01 0.  1.
         -5    1    3    3    0  502  0.10937766154E+02 -0.16976417422E+02  0.72698639326E+01  0.21866796714E+02  0.41800000000E+01 0.  1.
        -11    1    1    2    0    0 -0.34549758020E+02 -0.91292490230E+01 -0.13880418482E+03  0.14333049463E+03  0.00000000000E+00 0. -1.
         11    1    1    2    0    0  0.50558405242E+02  0.92540962845E+01 -0.94438368324E+02  0.10751928223E+03  0.00000000000E+00 0.  1.
</event>
<event>
 7    1  0.2564986E-009  0.1008160E+03  0.7561462E-02  0.1278589E+00
          3   -1    0    0  501    0  0.00000000000E+00  0.00000000000E+00  0.60276905593E+02  0.60276905593E+02  0.00000000000E+00 0. -1.
         -3   -1    0    0    0  501 -0.00000000000E+00 -0.00000000000E+00 -0.33805148129E+03  0.33805148129E+03  0.00000000000E+00 0.  1.
         25    2    1    2    0    0 -0.10029360095E+02  0.81429688947E+02 -0.76377581160E+02  0.16797143330E+03  0.12509790245E+03 0.  0.
          5    1    3    3  502    0 -0.16783625967E+02  0.80932474613E+02 -0.10760261306E+03  0.13574811338E+03  0.41800000000E+01 0. -1.
         -5    1    3    3    0  502  0.67542658718E+01  0.49721433313E+00  0.31225031904E+02  0.32223319924E+02  0.41800000000E+01 0. -1.
        -11    1    1    2    0    0 -0.18700047907E+02 -0.79991190732E+02 -0.16123997340E+03  0.18096024815E+03  0.00000000000E+00 0.  1.
         11    1    1    2    0    0  0.28729408003E+02 -0.14384982142E+01 -0.40157021138E+02  0.49396705437E+02  0.00000000000E+00 0. -1.
</event>
<event>
 7    1  0.2564986E-009  0.1763953E+03  0.7561462E-02  0.1171338E+00
          1   -1    0    0  501    0  0.00000000000E+00  0.00000000000E+00  0.15200049907E+04  0.15200049907E+04  0.00000000000E+00 0. -1.
         -1   -1    0    0    0  501 -0.00000000000E+00 -0.00000000000E+00 -0.23050905045E+02  0.23050905045E+02  0.00000000000E+00 0.  1.
         25    2    1    2    0    0 -0.10506063187E+03  0.91952012727E+02  0.10393301400E+04  0.10560999236E+04  0.12508796786E+03 0.  0.
          5    1    3    3  502    0 -0.35319968808E+02 -0.29970327148E+02  0.22890046445E+03  0.23357785797E+03  0.41800000000E+01 0.  1.
         -5    1    3    3    0  502 -0.69740663057E+02  0.12192233987E+03  0.81042967560E+03  0.82252206568E+03  0.41800000000E+01 0.  1.
        -11    1    1    2    0    0  0.31145935878E+02 -0.86161154582E+02  0.27481668033E+03  0.28968607434E+03  0.00000000000E+00 0.  1.
         11    1    1    2    0    0  0.73914695987E+02 -0.57908581449E+01  0.18280726523E+03  0.19726989771E+03  0.00000000000E+00 0. -1.
</event>
<event>
 7    1  0.2564986E-009  0.1689017E+03  0.7561462E-02  0.1178998E+00
          2   -1    0    0  501    0  0.00000000000E+00  0.00000000000E+00  0.52043357877E+03  0.52043357877E+03  0.00000000000E+00 0. -1.
         -2   -1    0    0    0  501 -0.00000000000E+00 -0.00000000000E+00 -0.72687077623E+02  0.72687077623E+02  0.00000000000E+00 0.  1.
         25    2    1    2    0    0 -0.15329727638E+03  0.45046108733E+01  0.30985727632E+03  0.36766451116E+03  0.12508123208E+03 0.  0.
          5    1    3    3  502    0 -0.10682964971E+03  0.35029655652E+02  0.28541561971E+03  0.30678852522E+03  0.41800000000E+01 0.  1.
         -5    1    3    3    0  502 -0.46467626670E+02 -0.30525044778E+02  0.24441656610E+02  0.60875985946E+02  0.41800000000E+01 0.  1.
        -11    1    1    2    0    0  0.13836917038E+03 -0.28511410748E+02  0.83363859449E+02  0.16403798620E+03  0.00000000000E+00 0.  1.
         11    1    1    2    0    0  0.14928106005E+02  0.24006799874E+02  0.54525365378E+02  0.61418159031E+02  0.00000000000E+00 0. -1.
</event>
<event>
 7    1  0.2564986E-009  0.1308429E+03  0.7561462E-02  0.1226210E+00
          1   -1    0    0  501    0  0.00000000000E+00  0.00000000000E+00  0.27300813301E+03  0.27300813301E+03  0.00000000000E+00 0. -1.
         -1   -1    0    0    0  501 -0.00000000000E+00 -0.00000000000E+00 -0.13043445505E+03  0.13043445505E+03  0.00000000000E+00 0.  1.
         25    2    1    2    0    0 -0.97938605480E+02  0.14140232528E+02 -0.49221332376E+02  0.16691630895E+03  0.12508556277E+03 0.  0.
          5    1    3    3  502    0 -0.52780220322E+02 -0.38399155096E+02 -0.68674332473E+02  0.94836085484E+02  0.41800000000E+01 0. -1.
         -5    1    3    3    0  502 -0.45158385158E+02  0.52539387624E+02  0.19453000097E+02  0.72080223465E+02  0.41800000000E+01 0. -1.
        -11    1    1    2    0    0  0.47642602575E+02 -0.46898369704E+02  0.14745427587E+03  0.16190132221E+03  0.00000000000E+00 0.  1.
         11    1    1    2    0    0  0.50296002905E+02  0.32758137176E+02  0.44340734461E+02  0.74624956898E+02  0.00000000000E+00 0. -1.
</event>
<event>
 7    1  0.2564986E-009  0.9300920E+02  0.7561462E-02  0.1295724E+00
          1   -1    0    0  501    0  0.00000000000E+00  0.00000000000E+00  0.11166618814E+03  0.11166618814E+03  0.00000000000E+00 0. -1.
         -1   -1    0    0    0  501 -0.00000000000E+00 -0.00000000000E+00 -0.11474690205E+03  0.11474690205E+03  0.00000000000E+00 0.  1.
         25    2    1    2    0    0  0.26059999286E+02  0.19454646005E+02 -0.83053066786E+01  0.12951552005E+03  0.12509070709E+03 0.  0.
          5    1    3    3  502    0 -0.37312478588E+02  0.45389617308E+02  0.67194768301E+01  0.59287959879E+02  0.41800000000E+01 0.  1.
         -5    1    3    3    0  502  0.63372477874E+02 -0.25934971302E+02 -0.15024783509E+02  0.70227560173E+02  0.41800000000E+01 0.  1.
        -11    1    1    2    0    0  0.14132271016E+02 -0.97331593742E+01  0.39578153592E+02  0.43137984622E+02  0.00000000000E+00 0. -1.
         11    1    1    2    0    0 -0.40192270302E+02 -0.97214866312E+01 -0.34353560820E+02  0.53759585521E+02  0.00000000000E+00 0.  1.
</event>
<event>
 7    1  0.2564986E-009  0.1149412E+03  0.7561462E-02  0.1251684E+00
          2   -1    0    0  501    0  0.00000000000E+00  0.00000000000E+00  0.44005065787E+03  0.44005065787E+03  0.00000000000E+00 0. -1.
         -2   -1    0    0    0  501 -0.00000000000E+00 -0.00000000000E+00 -0.83558544893E+02  0.83558544893E+02  0.00000000000E+00 0.  1.
         25    2    1    2    0    0  0.64325719858E+02  0.74678208834E+02  0.19970272968E+02  0.16049180169E+03  0.12507667047E+03 0.  0.
          5    1    3    3  502    0 -0.41414052620E+01  0.53650144796E+02 -0.39841973720E+02  0.67084607356E+02  0.41800000000E+01 0. -1.
         -5    1    3    3    0  502  0.68467125120E+02  0.21028064038E+02  0.59812246687E+02  0.93407194333E+02  0.41800000000E+01 0. -1.
        -11    1    1    2    0    0 -0.34419184737E+02 -0.15270934630E+02  0.26508578871E+02  0.46049826018E+02  0.00000000000E+00 0.  1.
         11    1    1    2    0    0 -0.29906535121E+02 -0.59407274204E+02  0.31001326114E+03  0.31706757506E+03  0.00000000000E+00 0. -1.
</event>
<event>
 7    1  0.2564986E-009  0.1118327E+03  0.7561462E-02  0.1257213E+00
          3   -1    0    0  501    0  0.00000000000E+00  0.00000000000E+00  0.26746757735E+03  0.26746757735E+03  0.00000000000E+00 0.  1.
         -3   -1    0    0    0  501 -0.00000000000E+00 -0.00000000000E+00 -0.71136046970E+02  0.71136046970E+02  0.00000000000E+00 0. -1.
         25    2    1    2    0    0  0.63162850633E+02  0.19739990676E+01  0.17806523299E+03  0.22660039694E+03  0.12508825014E+03 0.  0.
          5    1    3    3  502    0  0.88654302711E+02  0.36289299278E+02  0.13664647834E+03  0.16693181565E+03  0.41800000000E+01 0. -1.
         -5    1    3    3    0  502 -0.25491452078E+02 -0.34315300211E+02  0.41418754642E+02  0.59668581295E+02  0.41800000000E+01 0. -1.
        -11    1    1    2    0    0  0.83200262954E+01 -0.98724846108E+01 -0.24954950958E+02  0.28096945871E+02  0.00000000000E+00 0. -1.
         11    1    1    2    0    0 -0.71482876928E+02  0.78984855432E+01  0.43221248357E+02  0.83906281513E+02  0.00000000000E+00 0.  1.
</event>
<event>
 7    1  0.2564986E-009  0.8951973E+02  0.7561462E-02  0.1304019E+00
         -3   -1    0    0    0  501 -0.00000000000E+00  0.00000000000E+00  0.33307562820E+03  0.33307562820E+03  0.00000000000E+00 0.  1.
          3   -1    0    0  501    0  0.00000000000E+00 -0.00000000000E+00 -0.38974374449E+02  0.38974374449E+02  0.00000000000E+00 0. -1.
         25    2    1    2    0    0  0.10560275126E+02 -0.10033664610E+02  0.11775651090E+03  0.17242218115E+03  0.12510243346E+03 0.  0.
          5    1    3    3  502    0  0.60218517561E+02 -0.15368311312E+02  0.10266027175E+03  0.12007938477E+03  0.41800000000E+01 0.  1.
         -5    1    3    3    0  502 -0.49658242434E+02  0.53346467018E+01  0.15096239152E+02  0.52342796387E+02  0.41800000000E+01 0.  1.
        -11    1    1    2    0    0  0.26664583609E+02 -0.37705283100E+01  0.14901458156E+03  0.15142840692E+03  0.00000000000E+00 0.  1.
         11    1    1    2    0    0 -0.37224858736E+02  0.13804192920E+02  0.27330161286E+02  0.48199414582E+02  0.00000000000E+00 0. -1.
</event>
<event>
 7    1  0.2564986E-009  0.1296991E+03  0.7561462E-02  0.1227903E+00
         -1   -1    0    0    0  501 -0.00000000000E+00  0.00000000000E+00  0.16552768176E+02  0.16552768176E+02  0.00000000000E+00 0.  1.
          1   -1    0    0  501    0  0.00000000000E+00 -0.00000000000E+00 -0.10415816445E+04  0.10415816445E+04  0.00000000000E+00 0. -1.
         25    2    1    2    0    0 -0.75303037766E+02  0.21038300504E+01 -0.57859178273E+03  0.59673349090E+03  0.12508970591E+03 0.  0.
          5    1    3    3  502    0 -0.23491566393E+02  0.61355707385E+02 -0.22320009436E+03  0.23270610444E+03  0.41800000000E+01 0.  1.
         -5    1    3    3    0  502 -0.51811471373E+02 -0.59251877335E+02 -0.35539168837E+03  0.36402738646E+03  0.41800000000E+01 0.  1.
        -11    1    1    2    0    0  0.15896346651E+02  0.39260614669E+02 -0.12748553271E+03  0.13433782323E+03  0.00000000000E+00 0.  1.
         11    1    1    2    0    0  0.59406691114E+02 -0.41364444719E+02 -0.31895156093E+03  0.32706309858E+03  0.00000000000E+00 0. -1.
</event>
<event>
 7    1  0.2564986E-009  0.9083911E+02  0.7561462E-02  0.1300832E+00
          1   -1    0    0  501    0  0.00000000000E+00  0.00000000000E+00  0.16015945348E+03  0.16015945348E+03  0.00000000000E+00 0. -1.
         -1   -1    0    0    0  501 -0.00000000000E+00 -0.00000000000E+00 -0.15873379150E+03  0.15873379150E+03  0.00000000000E+00 0.  1.
         25    2    1    2    0    0 -0.32218508724E+00  0.47857131809E+01 -0.12379946087E+03  0.17606345412E+03  0.12509606913E+03 0.  0.
          5    1    3    3  502    0 -0.15309691061E+02 -0.52849275275E+02 -0.24890149055E+02  0.60534489817E+02  0.41800000000E+01 0. -1.
         -5    1    3    3    0  502  0.14987505974E+02  0.57634988455E+02 -0.98909311810E+02  0.11552896430E+03  0.41800000000E+01 0. -1.
        -11    1    1    2    0    0 -0.32041209328E+02 -0.10937056283E+02  0.46761774150E+02  0.57731462973E+02  0.00000000000E+00 0.  1.
         11    1    1    2    0    0  0.32363394415E+02  0.61513431024E+01  0.78463348698E+02  0.85098327885E+02  0.00000000000E+00 0. -1.
</event>
<event>
 7    1  0.2564986E-009  0.1563970E+03  0.7561462E-02  0.1192826E+00
         -3   -1    0    0    0  501 -0.00000000000E+00  0.00000000000E+00  0.38716703373E+02  0.38716703373E+02  0.00000000000E+00 0.  1.
          3   -1    0    0  501    0  0.00000000000E+00 -0.00000000000E+00 -0.83364757742E+03  0.83364757742E+03  0.00000000000E+00 0. -1.
         25    2    1    2    0    0  0.13542757679E+03  0.39929300508E+01 -0.29786957905E+03  0.35032877697E+03  0.12508954315E+03 0.  0.
          5    1    3    3  502    0  0.45917043152E+02 -0.33767528691E+02 -0.28331438342E+02  0.63786861063E+02  0.41800000000E+01 0.  1.
         -5    1    3    3    0  502  0.89510533642E+02  0.37760458742E+02 -0.26953814071E+03  0.28654191591E+03  0.41800000000E+01 0.  1.
        -11    1    1    2    0    0 -0.13517397523E+02 -0.30752793766E+02 -0.81997359523E+02  0.88611632019E+02  0.00000000000E+00 0.  1.
         11    1    1    2    0    0 -0.12191017927E+03  0.26759863716E+02 -0.41506393548E+03  0.43342387180E+03  0.00000000000E+00 0. -1.
</event>
<event>
 7    1  0.2564986E-009  0.1043485E+03  0.7561462E-02  0.1271409E+00
          3   -1    0    0  501    0  0.00000000000E+00  0.00000000000E+00  0.12761736881E+03  0.12761736881E+03  0.00000000000E+00 0. -1.
         -3   -1    0    0    0  501 -0.00000000000E+00 -0.00000000000E+00 -0.98354109319E+02  0.98354109319E+02  0.00000000000E+00 0.  1.
         25    2    1    2    0    0  0.37143715356E+01  0.22883603809E+02 -0.28383237895E+01  0.12725148113E+03  0.12508967779E+03 0.  0.
          5    1    3    3  502    0 -0.10324261391E+02  0.73363492505E+02  0.36295880285E+01  0.74292925067E+02  0.41800000000E+01 0. -1.
         -5    1    3    3    0  502  0.14038632927E+02 -0.50479888696E+02 -0.64679118179E+01  0.52958556065E+02  0.41800000000E+01 0. -1.
        -11    1    1    2    0    0 -0.37646522375E+02 -0.28911503314E+02  0.41442846812E+02  0.63013055970E+02  0.00000000000E+00 0. -1.
         11    1    1    2    0    0  0.33932150839E+02  0.60278995052E+01 -0.93412635322E+01  0.35706941025E+02  0.00000000000E+00 0.  1.
</event>
<event>
 7    1  0.2564986E-009  0.2931115E+03  0.7561462E-02  0.1088736E+00
         -2   -1    0    0    0  501 -0.00000000000E+00  0.00000000000E+00  0.31828672479E+03  0.31828672479E+03  0.00000000000E+00 0.  1.
          2   -1    0    0  501    0  0.00000000000E+00 -0.00000000000E+00 -0.28768690384E+03  0.28768690384E+03  0.00000000000E+00 0. -1.
         25    2    1    2    0    0 -0.36241461502E+02 -0.28012899334E+03  0.15344771930E+02  0.30930040929E+03  0.12508231178E+03 0.  0.
          5    1    3    3  502    0  0.18892463536E+02 -0.24990857540E+02  0.35417256646E+02  0.47469175339E+02  0.41800000000E+01 0.  1.
         -5    1    3    3    0  502 -0.55133925038E+02 -0.25513813580E+03 -0.20072484717E+02  0.26183123395E+03  0.41800000000E+01 0.  1.
        -11    1    1    2    0    0  0.13477088484E+02  0.26687393263E+03  0.25458214317E+02  0.26842400882E+03  0.00000000000E+00 0.  1.
         11    1    1    2    0    0  0.22764373018E+02  0.13255060708E+02 -0.10203165300E+02  0.28249210527E+02  0.00000000000E+00 0. -1.
</event>
<event>
 7    1  0.2564986E-009  0.1674799E+03  0.7561462E-02  0.1180502E+00
         -3   -1    0    0    0  501 -0.00000000000E+00  0.00000000000E+00  0.23874663444E+03  0.23874663444E+03  0.00000000000E+00 0.  1.
          3   -1    0    0  501    0  0.00000000000E+00 -0.00000000000E+00 -0.13644832577E+03  0.13644832577E+03  0.00000000000E+00 0. -1.
         25    2    1    2    0    0  0.11684850103E+03  0.83204486162E+02  0.70522307392E+02  0.20297072634E+03  0.12508861340E+03 0.  0.
          5    1    3    3  502    0 -0.82531806395E+01  0.56898954610E+02  0.15798819252E+01  0.57667793900E+02  0.41800000000E+01 0.  1.
         -5    1    3    3    0  502  0.12510168167E+03  0.26305531552E+02  0.68942425467E+02  0.14530293244E+03  0.41800000000E+01 0.  1.
        -11    1    1    2    0    0 -0.54460260248E+02 -0.64203734746E+02  0.57676349799E+02  0.10205195161E+03  0.00000000000E+00 0.  1.
         11    1    1    2    0    0 -0.62388240786E+02 -0.19000751416E+02 -0.25900348527E+02  0.70172282253E+02  0.00000000000E+00 0. -1.
</event>
<event>
 7    1  0.2564986E-009  0.1334256E+03  0.7561462E-02  0.1222459E+00
         -2   -1    0    0    0  501 -0.00000000000E+00  0.00000000000E+00  0.24163051408E+02  0.24163051408E+02  0.00000000000E+00 0. -1.
          2   -1    0    0  501    0  0.00000000000E+00 -0.00000000000E+00 -0.26883083601E+04  0.26883083601E+04  0.00000000000E+00 0.  1.
         25    2    1    2    0    0 -0.12003528143E+03 -0.48136110593E+02 -0.23854088075E+04  0.23921848258E+04  0.12509000067E+03 0.  0.
          5    1    3    3  502    0 -0.57658406527E+01 -0.10140944459E+02 -0.18836427446E+02  0.22546996960E+02  0.41800000000E+01 0.  1.
         -5    1    3    3    0  502 -0.11426944078E+03 -0.37995166134E+02 -0.23665723800E+04  0.23696378289E+04  0.41800000000E+01 0.  1.
        -11    1    1    2    0    0  0.63468481386E+02  0.66474616168E+01 -0.21912617530E+03  0.22822952827E+03  0.00000000000E+00 0.  1.
         11    1    1    2    0    0  0.56566800046E+02  0.41488648976E+02 -0.59610325936E+02  0.92057057413E+02  0.00000000000E+00 0. -1.
</event>
<event>
 7    1  0.2564986E-009  0.1157708E+03  0.7561462E-02  0.1250242E+00
         -1   -1    0    0    0  501 -0.00000000000E+00  0.00000000000E+00  0.28888582994E+02  0.28888582994E+02  0.00000000000E+00 0.  1.
          1   -1    0    0  501    0  0.00000000000E+00 -0.00000000000E+00 -0.48367259744E+03  0.48367259744E+03  0.00000000000E+00 0. -1.
         25    2    1    2    0    0 -0.34087870259E+02 -0.14922506194E+02 -0.20544017951E+03  0.24339394633E+03  0.12510108577E+03 0.  0.
          5    1    3    3  502    0  0.33912846297E+02  0.32494908247E+02 -0.83246639749E+02  0.95673798061E+02  0.41800000000E+01 0. -1.
         -5    1    3    3    0  502 -0.68000716556E+02 -0.47417414441E+02 -0.12219353976E+03  0.14772014827E+03  0.41800000000E+01 0. -1.
        -11    1    1    2    0    0  0.19136595186E+02 -0.40063679362E+02 -0.10995717976E+03  0.11858283628E+03  0.00000000000E+00 0. -1.
         11    1    1    2    0    0  0.14951275073E+02  0.54986185555E+02 -0.13938665517E+03  0.15058439782E+03  0.00000000000E+00 0.  1.
</event>
<event>
 7    1  0.2564986E-009  0.1110989E+03  0.7561462E-02  0.1258548E+00
          1   -1    0    0  501    0  0.00000000000E+00  0.00000000000E+00  0.44100606359E+03  0.44100606359E+03  0.00000000000E+00 0. -1.
         -1   -1    0    0    0  501 -0.00000000000E+00 -0.00000000000E+00 -0.44859416139E+02  0.44859416139E+02  0.00000000000E+00 0.  1.
         25    2    1    2    0    0 -0.23303555933E+02 -0.74761560106E+02  0.29067981697E+03  0.32599781715E+03  0.12508986453E+03 0.  0.
          5    1    3    3  502    0 -0.43416544186E+02 -0.67330650097E+02  0.29322807264E+03  0.30400425612E+03  0.41800000000E+01 0.  1.
         -5    1    3    3    0  502  0.20112988253E+02 -0.74309100085E+01 -0.25482556782E+01  0.21993561035E+02  0.41800000000E+01 0.  1.
        -11    1    1    2    0    0 -0.24736347574E+02  0.67057868177E+02  0.61514116442E+02  0.94300748128E+02  0.00000000000E+00 0.  1.
         11    1    1    2    0    0  0.48039903507E+02  0.77036919285E+01  0.43952714039E+02  0.65566914444E+02  0.00000000000E+00 0. -1.
</event>
<event>
 7    1  0.2669475E-009  0.9753682E+02  0.7561462E-02  0.1285563E+00
         -1   -1    0    0    0  501 -0.00000000000E+00  0.00000000000E+00  0.25639918402E+02  0.25639918402E+02  0.00000000000E+00 0.  1.
          1   -1    0    0  501    0  0.00000000000E+00 -0.00000000000E+00 -0.75852295626E+03  0.75852295626E+03  0.00000000000E+00 0. -1.
         25    2    1    2    0    0 -0.43869343120E+02  0.51953220518E+02 -0.55545968457E+03  0.57341635301E+03  0.12508875380E+03 0.  0.
          5    1    3    3  502    0 -0.26293443735E+02  0.63603272164E+02 -0.12777487840E+03  0.14519164357E+03  0.41800000000E+01 0. -1.
         -5    1    3    3    0  502 -0.17575899385E+02 -0.11650051646E+02 -0.42768480617E+03  0.42822470943E+03  0.41800000000E+01 0. -1.
        -11    1    1    2    0    0  0.20167697321E+02  0.20281757841E+02 -0.92235343965E+02  0.96568340530E+02  0.00000000000E+00 0. -1.
         11    1    1    2    0    0  0.23701645799E+02 -0.72234978359E+02 -0.85188009319E+02  0.11417818112E+03  0.00000000000E+00 0.  1.
</event>
<event>
 7    1  0.2564986E-009  0.2334217E+03  0.7561462E-02  0.1124254E+00
         -1   -1    0    0    0  501 -0.00000000000E+00  0.00000000000E+00  0.12908166239E+03  0.12908166239E+03  0.00000000000E+00 0.  1.
          1   -1    0    0  501    0  0.00000000000E+00 -0.00000000000E+00 -0.50854177137E+03  0.50854177137E+03  0.00000000000E+00 0. -1.
         25    2    1    2    0    0 -0.22175403525E+03  0.43239648363E+01 -0.11085485603E+03  0.27772268897E+03  0.12509014366E+03 0.  0.
          5    1    3    3  502    0 -0.82389104069E+02  0.48815113127E+02 -0.29693103222E+01  0.95901871425E+02  0.41800000000E+01 0.  1.
         -5    1    3    3    0  502 -0.13936493118E+03 -0.44491148291E+02 -0.10788554571E+03  0.18182081754E+03  0.41800000000E+01 0.  1.
        -11    1    1    2    0    0  0.16155175694E+03  0.12757588729E+02 -0.12975739379E+03  0.20760228198E+03  0.00000000000E+00 0.  1.
         11    1    1    2    0    0  0.60202278312E+02 -0.17081553566E+02 -0.13884785914E+03  0.15229846281E+03  0.00000000000E+00 0. -1.
</event>
<event>
 7    1  0.2564986E-009  0.8564018E+02  0.7561462E-02  0.1313767E+00
         -2   -1    0    0    0  501 -0.00000000000E+00  0.00000000000E+00  0.18802467696E+03  0.18802467696E+03  0.00000000000E+00 0.  1.
          2   -1    0    0  501    0  0.00000000000E+00 -0.00000000000E+00 -0.65922193525E+02  0.65922193525E+02  0.00000000000E+00 0. -1.
         25    2    1    2    0    0  0.22108673166E+02 -0.40855078716E+01  0.49430033706E+02  0.13636290420E+03  0.12508408614E+03 0.  0.
          5    1    3    3  502    0 -0.37374390091E+02 -0.35345539727E+02 -0.19862093251E+01  0.51648520218E+02  0.41800000000E+01 0. -1.
         -5    1    3    3    0  502  0.59483063257E+02  0.31260031855E+02  0.51416243031E+02  0.84714383982E+02  0.41800000000E+01 0. -1.
        -11    1    1    2    0    0 -0.22375693230E+02 -0.18940459947E+02 -0.10609946197E+02  0.31176651982E+02  0.00000000000E+00 0. -1.
         11    1    1    2    0    0  0.26702006472E+00  0.23025967818E+02  0.83282395931E+02  0.86407314307E+02  0.00000000000E+00 0.  1.
</event>
<event>
 7    1  0.2564986E-009  0.3083321E+03  0.7561462E-02  0.1081148E+00
          2   -1    0    0  501    0  0.00000000000E+00  0.00000000000E+00  0.17700295822E+04  0.17700295822E+04  0.00000000000E+00 0. -1.
         -2   -1    0    0    0  501 -0.00000000000E+00 -0.00000000000E+00 -0.57971272163E+02  0.57971272163E+02  0.00000000000E+00 0.  1.
         25    2    1    2    0    0 -0.62687026486E+02 -0.29436210501E+03  0.86685686014E+03  0.92610350657E+03  0.12509267262E+03 0.  0.
          5    1    3    3  502    0 -0.28769230506E+02 -0.31908336586E+02  0.26680350759E+03  0.27027281519E+03  0.41800000000E+01 0.  1.
         -5    1    3    3    0  502 -0.33917795980E+02 -0.26245376843E+03  0.60005335255E+03  0.65583069138E+03  0.41800000000E+01 0.  1.
        -11    1    1    2    0    0  0.72637732912E+02  0.18100441112E+03  0.44569393830E+03  0.48649966467E+03  0.00000000000E+00 0. -1.
         11    1    1    2    0    0 -0.99507064258E+01  0.11335769389E+03  0.39950751155E+03  0.41539768308E+03  0.00000000000E+00 0.  1.
</event>
<event>
 7    1  0.2564986E-009  0.1430991E+03  0.7561462E-02  0.1209219E+00
         -2   -1    0    0    0  501 -0.00000000000E+00  0.00000000000E+00  0.59107397063E+02  0.59107397063E+02  0.00000000000E+00 0.  1.
          2   -1    0    0  501    0  0.00000000000E+00 -0.00000000000E+00 -0.54225013715E+03  0.54225013715E+03  0.00000000000E+00 0. -1.
         25    2    1    2    0    0  0.54330521839E+02 -0.11931877067E+03 -0.16117885816E+03  0.24251743883E+03  0.12508920491E+03 0.  0.
          5    1    3    3  502    0  0.21228030524E+02 -0.55093982912E+02 -0.15949450468E+03  0.17012332484E+03  0.41800000000E+01 0.  1.
         -5    1    3    3    0  502  0.33102491315E+02 -0.64224787757E+02 -0.16843534783E+01  0.72394113989E+02  0.41800000000E+01 0.  1.
        -11    1    1    2    0    0  0.21702288047E+02  0.19662774741E+02 -0.96845171390E+02  0.10117609025E+03  0.00000000000E+00 0. -1.
         11    1    1    2    0    0 -0.76032809886E+02  0.99655995927E+02 -0.22511871054E+03  0.25766400513E+03  0.00000000000E+00 0.  1.
</event>
<event>
 7    1  0.2564986E-009  0.1391637E+03  0.7561462E-02  0.1214459E+00
          3   -1    0    0  501    0  0.00000000000E+00  0.00000000000E+00  0.14455998440E+03  0.14455998440E+03  0.00000000000E+00 0. -1.
         -3   -1    0    0    0  501 -0.00000000000E+00 -0.00000000000E+00 -0.18772131514E+03  0.18772131514E+03  0.00000000000E+00 0.  1.
         25    2    1    2    0    0  0.20670012180E+02  0.12066037387E+03 -0.73067802116E+01  0.17517399941E+03  0.12508543403E+03 0.  0.
          5    1    3    3  502    0  0.29850508634E+02  0.30148981899E+02 -0.57193243502E+02  0.71334097580E+02  0.41800000000E+01 0. -1.
         -5    1    3    3    0  502 -0.91804964544E+01  0.90511391974E+02  0.49886463291E+02  0.10383990183E+03  0.41800000000E+01 0. -1.
        -11    1    1    2    0    0 -0.44974011305E+02 -0.39349755588E+02 -0.40378938046E+02  0.72121588969E+02  0.00000000000E+00 0.  1.
         11    1    1    2    0    0  0.24303999125E+02 -0.81310618285E+02  0.45243875204E+01  0.84985711163E+02  0.00000000000E+00 0. -1.
</event>
<event>
 7    1  0.2564986E-009  0.1061673E+03  0.7561462E-02  0.1267837E+00
         -1   -1    0    0    0  501 -0.00000000000E+00  0.00000000000E+00  0.44956291778E+02  0.44956291778E+02  0.00000000000E+00 0.  1.
          1   -1    0    0  501    0  0.00000000000E+00 -0.00000000000E+00 -0.31762170917E+03  0.31762170917E+03  0.00000000000E+00 0. -1.
         25    2    1    2    0    0 -0.67035088935E+01 -0.44885601212E+02 -0.12180363353E+03  0.18039663153E+03  0.12508862977E+03 0.  0.
          5    1    3    3  502    0  0.32051578083E+02 -0.73521762009E+02 -0.52745966821E+02  0.96085183886E+02  0.41800000000E+01 0. -1.
         -5    1    3    3    0  502 -0.38755086976E+02  0.28636160798E+02 -0.69057666714E+02  0.84311447643E+02  0.41800000000E+01 0. -1.
        -11    1    1    2    0    0  0.15357148226E+02  0.62322800845E+02 -0.55503467354E+02  0.84856398669E+02  0.00000000000E+00 0.  1.
         11    1    1    2    0    0 -0.86536393327E+01 -0.17437199634E+02 -0.95358316501E+02  0.97324970746E+02  0.00000000000E+00 0. -1.
</event>
<event>
 7    1  0.2564986E-009  0.1927611E+03  0.7561462E-02  0.1155994E+00
         -2   -1    0    0    0  501 -0.00000000000E+00  0.00000000000E+00  0.11901268379E+03  0.11901268379E+03  0.00000000000E+00 0.  1.
          2   -1    0    0  501    0  0.00000000000E+00 -0.00000000000E+00 -0.34068903583E+03  0.34068903583E+03  0.00000000000E+00 0. -1.
         25    2    1    2    0    0  0.73761186788E+02  0.14582608389E+03 -0.62966923671E+02  0.21521918800E+03  0.12509398862E+03 0.  0.
          5    1    3    3  502    0 -0.24902662953E+02  0.80072326566E+02 -0.44898462311E+02  0.95210631874E+02  0.41800000000E+01 0. -1.
         -5    1    3    3    0  502  0.98663849741E+02  0.65753757329E+02 -0.18068461360E+02  0.12000855613E+03  0.41800000000E+01 0. -1.
        -11    1    1    2    0    0 -0.89537257585E+02 -0.98873386202E+02 -0.13420993835E+03  0.18922255296E+03  0.00000000000E+00 0.  1.
         11    1    1    2    0    0  0.15776070797E+02 -0.46952697693E+02 -0.24499490016E+02  0.55259978659E+02  0.00000000000E+00 0. -1.
</event>
<event>
 7    1  0.2564986E-009  0.9149940E+02  0.7561462E-02  0.1299261E+00
         -1   -1    0    0    0  501 -0.00000000000E+00  0.00000000000E+00  0.47068121496E+02  0.47068121496E+02  0.00000000000E+00 0.  1.
          1   -1    0    0  501    0  0.00000000000E+00 -0.00000000000E+00 -0.32107358903E+03  0.32107358903E+03  0.00000000000E+00 0. -1.
         25    2    1    2    0    0  0.44032373321E+02 -0.28313175111E+02 -0.11642480293E+03  0.17872501602E+03  0.12508961119E+03 0.  0.
          5    1    3    3  502    0  0.11557493186E+01 -0.34261095056E+02 -0.12892936792E+03  0.13347438969E+03  0.41800000000E+01 0.  1.
         -5    1    3    3    0  502  0.42876624002E+02  0.59479199449E+01  0.12504564988E+02  0.45250626328E+02  0.41800000000E+01 0.  1.
        -11    1    1    2    0    0 -0.70417385882E+02  0.64546320443E+01 -0.10168019812E+03  0.12385125433E+03  0.00000000000E+00 0. -1.
         11    1    1    2    0    0  0.26385012561E+02  0.21858543066E+02 -0.55900466484E+02  0.65565440179E+02  0.00000000000E+00 0.  1.
</event>
<event>
 7    1  0.2564986E-009  0.1475205E+03  0.7561462E-02  0.1203553E+00
         -1   -1    0    0    0  501 -0.00000000000E+00  0.00000000000E+00  0.17451981593E+02  0.17451981593E+02  0.00000000000E+00 0.  1.
          1   -1    0    0  501    0  0.00000000000E+00 -0.00000000000E+00 -0.14659038245E+04  0.14659038245E+04  0.00000000000E+00 0. -1.
         25    2    1    2    0    0  0.11335187932E+03 -0.26146453933E+02 -0.68211025886E+03  0.70317427446E+03  0.12508944569E+03 0.  0.
          5    1    3    3  502    0  0.12972099116E+03 -0.22133304021E+02 -0.41243521659E+03  0.43294075690E+03  0.41800000000E+01 0. -1.
         -5    1    3    3    0  502 -0.16369111839E+02 -0.40131499127E+01 -0.26967504226E+03  0.27023351756E+03  0.41800000000E+01 0. -1.
        -11    1    1    2    0    0 -0.10896902602E+03  0.51329230898E+02 -0.64976841732E+03  0.66083881145E+03  0.00000000000E+00 0. -1.
         11    1    1    2    0    0 -0.43828532972E+01 -0.25182776965E+02 -0.11657316674E+03  0.11934272019E+03  0.00000000000E+00 0.  1.
</event>
<event>
 7    1  0.2564986E-009  0.1151122E+03  0.7561462E-02  0.1251385E+00
          3   -1    0    0  501    0  0.00000000000E+00  0.00000000000E+00  0.52736741277E+03  0.52736741277E+03  0.00000000000E+00 0. -1.
         -3   -1    0    0    0  501 -0.00000000000E+00 -0.00000000000E+00 -0.28035298689E+02  0.28035298689E+02  0.00000000000E+00 0.  1.
         25    2    1    2    0    0  0.17195877554E+02 -0.45185144592E+02  0.34294169728E+03  0.36823259693E+03  0.12509533249E+03 0.  0.
          5    1    3    3  502    0 -0.14239509002E+02 -0.83107966822E+02  0.20515463149E+03  0.22184587665E+03  0.41800000000E+01 0. -1.
         -5    1    3    3    0  502  0.31435386555E+02  0.37922822230E+02  0.13778706579E+03  0.14638672028E+03  0.41800000000E+01 0. -1.
        -11    1    1    2    0    0 -0.50919626226E+02  0.32102876133E+02  0.12707181684E+03  0.14060814210E+03  0.00000000000E+00 0. -1.
         11    1    1    2    0    0  0.33723748673E+02  0.13082268459E+02  0.29318599959E+02  0.46561972425E+02  0.00000000000E+00 0.  1.
</event>
<event>
 7    1  0.2816052E-009  0.1760798E+03  0.7561462E-02  0.1171652E+00
          1   -1    0    0  501    0  0.00000000000E+00  0.00000000000E+00  0.15116573708E+03  0.15116573708E+03  0.00000000000E+00 0. -1.
         -1   -1    0    0    0  501 -0.00000000000E+00 -0.00000000000E+00 -0.22470314016E+03  0.22470314016E+03  0.00000000000E+00 0.  1.
         25    2    1    2    0    0 -0.14332597753E+03 -0.53797653344E+01  0.82213592926E+00  0.19031337310E+03  0.12508887386E+03 0.  0.
          5    1    3    3  502    0 -0.30520825884E+02  0.48495924128E+02 -0.24898259627E+02  0.62616061854E+02  0.41800000000E+01 0.  1.
         -5    1    3    3    0  502 -0.11280515164E+03 -0.53875689462E+02  0.25720395556E+02  0.12769731125E+03  0.41800000000E+01 0.  1.
        -11    1    1    2    0    0  0.81989635466E+02 -0.42000383670E+02 -0.34207591180E+02  0.98267450596E+02  0.00000000000E+00 0.  1.
         11    1    1    2    0    0  0.61336342059E+02  0.47380149004E+02 -0.40151947833E+02  0.87288053545E+02  0.00000000000E+00 0. -1.
</event>
<event>
 7    1  0.2564986E-009  0.2070944E+03  0.7561462E-02  0.1143888E+00
          2   -1    0    0  501    0  0.00000000000E+00  0.00000000000E+00  0.18403842136E+04  0.18403842136E+04  0.00000000000E+00 0. -1.
         -2   -1    0    0    0  501 -0.00000000000E+00 -0.00000000000E+00 -0.40689612392E+02  0.40689612392E+02  0.00000000000E+00 0.  1.
         25    2    1    2    0    0  0.78110426649E+02  0.16355942487E+03  0.15176710419E+04  0.15335665161E+04  0.12509174160E+03 0.  0.
          5    1    3    3  502    0  0.95916350578E+02  0.74414841194E+02  0.66034038397E+03  0.67141969735E+03  0.41800000000E+01 0. -1.
         -5    1    3    3    0  502 -0.17805923928E+02  0.89144583678E+02  0.85733065792E+03  0.86214681878E+03  0.41800000000E+01 0. -1.
        -11    1    1    2    0    0 -0.21831404418E+02 -0.13832934759E+03  0.17683670715E+03  0.22557224922E+03  0.00000000000E+00 0.  1.
         11    1    1    2    0    0 -0.56279022232E+02 -0.25230077281E+02  0.10518685220E+03  0.12193506066E+03  0.00000000000E+00 0. -1.
</event>
<event>
 7    1  0.2564986E-009  0.9463061E+02  0.7561462E-02  0.1292010E+00
          2   -1    0    0  501    0  0.00000000000E+00  0.00000000000E+00  0.43675802149E+03  0.43675802149E+03  0.00000000000E+00 0. -1.
         -2   -1    0    0    0  501 -0.00000000000E+00 -0.00000000000E+00 -0.37808493076E+02  0.37808493076E+02  0.00000000000E+00 0.  1.
         25    2    1    2    0    0 -0.50356513174E+02 -0.26274715659E+02  0.29421788210E+03  0.32471195527E+03  0.12509017807E+03 0.  0.
          5    1    3    3  502    0 -0.43807547846E+02  0.24349667917E+02  0.25577424721E+03  0.26067210344E+03  0.41800000000E+01 0.  1.
         -5    1    3    3    0  502 -0.65489653277E+01 -0.50624383576E+02  0.38443634886E+02  0.64039851831E+02  0.41800000000E+01 0.  1.
        -11    1    1    2    0    0 -0.52915227371E+01 -0.16649922020E+02 -0.61966456588E+01  0.18536950493E+02  0.00000000000E+00 0.  1.
         11    1    1    2    0    0  0.55648035911E+02  0.42924637679E+02  0.11092829197E+03  0.13131760880E+03  0.00000000000E+00 0. -1.
</event>
<event>
 7    1  0.2564986E-009  0.1035946E+03  0.7561462E-02  0.1272914E+00
         -1   -1    0    0    0  501 -0.00000000000E+00  0.00000000000E+00  0.33097555564E+03  0.33097555564E+03  0.00000000000E+00 0.  1.
          1   -1    0    0  501    0  0.00000000000E+00 -0.00000000000E+00 -0.39881431586E+02  0.39881431586E+02  0.00000000000E+00 0. -1.
         25    2    1    2    0    0 -0.35636714247E+02 -0.17202017348E+02  0.16200475328E+03  0.20846815233E+03  0.12509015007E+03 0.  0.
          5    1    3    3  502    0 -0.12707284783E+02 -0.67309064906E+02  0.54659934347E+02  0.87733494903E+02  0.41800000000E+01 0.  1.
         -5    1    3    3    0  502 -0.22929429464E+02  0.50107047558E+02  0.10734481894E+03  0.12073465742E+03  0.41800000000E+01 0.  1.
        -11    1    1    2    0    0  0.34825585759E+02  0.44211006934E+02  0.12214846687E+03  0.13449045511E+03  0.00000000000E+00 0.  1.
         11    1    1    2    0    0  0.81112848856E+00 -0.27008989586E+02  0.69409039025E+01  0.27898379790E+02  0.00000000000E+00 0. -1.
</event>
<event>
 7    1  0.2564986E-009  0.1277559E+03  0.7561462E-02  0.1230824E+00
          2   -1    0    0  501    0  0.00000000000E+00  0.00000000000E+00  0.24018027374E+03  0.24018027374E+03  0.00000000000E+00 0. -1.
         -2   -1    0    0    0  501 -0.00000000000E+00 -0.00000000000E+00 -0.10796446501E+03  0.10796446501E+03  0.00000000000E+00 0.  1.
         25    2    1    2    0    0  0.86420383854E+02 -0.42839994898E+01  0.16000221399E+03  0.22075481155E+03  0.12508054582E+03 0.  0.
          5    1    3    3  502    0  0.35335152768E+00  0.49089464317E+02  0.67219676908E+02  0.83341812602E+02  0.41800000000E+01 0.  1.
         -5    1    3    3    0  502  0.86067032326E+02 -0.53373463807E+02  0.92782537087E+02  0.13741299895E+03  0.41800000000E+01 0.  1.
        -11    1    1    2    0    0 -0.72013128845E+02 -0.21666918192E+02 -0.50007999356E+02  0.90311383942E+02  0.00000000000E+00 0.  1.
         11    1    1    2    0    0 -0.14407255009E+02  0.25950917681E+02  0.22221594096E+02  0.37078543250E+02  0.00000000000E+00 0. -1.
</event>
<event>
 7    1  0.2564986E-009  0.1393981E+03  0.7561462E-02  0.1214141E+00
          2   -1    0    0  501    0  0.00000000000E+00  0.00000000000E+00  0.59525082993E+03  0.59525082993E+03  0.00000000000E+00 0.  1.
         -2   -1    0    0    0  501 -0.00000000000E+00 -0.00000000000E+00 -0.42517847839E+02  0.42517847839E+02  0.00000000000E+00 0. -1.
         25    2    1    2    0    0  0.49171467931E+02 -0.10363832578E+03  0.31629999998E+03  0.35895948029E+03  0.12508989837E+03 0.  0.
          5    1    3    3  502    0  0.87792064541E+02 -0.67608252863E+02  0.25417364481E+03  0.27730855841E+03  0.41800000000E+01 0. -1.
         -5    1    3    3    0  502 -0.38620596610E+02 -0.36030072919E+02  0.62126355164E+02  0.81650921875E+02  0.41800000000E+01 0. -1.
        -11    1    1    2    0    0 -0.46346106758E+02  0.92843846126E+02  0.24412012460E+03  0.26525945150E+03  0.00000000000E+00 0.  1.
         11    1    1    2    0    0 -0.28253611726E+01  0.10794479656E+02 -0.76871424803E+01  0.13549745987E+02  0.00000000000E+00 0. -1.
</event>
<event>
 7    1  0.2564986E-009  0.2729751E+03  0.7561462E-02  0.1099589E+00
         -1   -1    0    0    0  501 -0.00000000000E+00  0.00000000000E+00  0.30403634390E+03  0.30403634390E+03  0.00000000000E+00 0.  1.
          1   -1    0    0  501    0  0.00000000000E+00 -0.00000000000E+00 -0.30040521477E+03  0.30040521477E+03  0.00000000000E+00 0. -1.
         25    2    1    2    0    0  0.92155095897E+02  0.23896714920E+03  0.10534125670E+03  0.30387937439E+03  0.12509210096E+03 0.  0.
          5    1    3    3  502    0  0.37946214009E+02  0.18966572953E+02  0.58642195901E+02  0.72498452310E+02  0.41800000000E+01 0.  1.
         -5    1    3    3    0  502  0.54208881888E+02  0.22000057625E+03  0.46699060797E+02  0.23138092208E+03  0.41800000000E+01 0.  1.
        -11    1    1    2    0    0 -0.30411631363E+02 -0.20296355119E+03 -0.10179568064E+03  0.22908826035E+03  0.00000000000E+00 0. -1.
         11    1    1    2    0    0 -0.61743464534E+02 -0.36003598008E+02  0.85553065695E-01  0.71473923927E+02  0.00000000000E+00 0.  1.
</event>
<event>
 7    1  0.2564986E-009  0.1083905E+03  0.7561462E-02  0.1263580E+00
          2   -1    0    0  501    0  0.00000000000E+00  0.00000000000E+00  0.22158465661E+03  0.22158465661E+03  0.00000000000E+00 0. -1.
         -2   -1    0    0    0  501 -0.00000000000E+00 -0.00000000000E+00 -0.63648801960E+02  0.63648801960E+02  0.00000000000E+00 0.  1.
         25    2    1    2    0    0  0.48478248062E+01 -0.48600103113E+02  0.95799630357E+02  0.16495700244E+03  0.12509105503E+03 0.  0.
          5    1    3    3  502    0 -0.33126199743E+02 -0.70928604598E+02  0.91512414290E+02  0.12049981921E+03  0.41800000000E+01 0. -1.
         -5    1    3    3    0  502  0.37974024549E+02  0.22328501485E+02  0.42872160670E+01  0.44457183229E+02  0.41800000000E+01 0. -1.
        -11    1    1    2    0    0 -0.33731729961E+02  0.55030142337E+02  0.17769518321E+02  0.66947008545E+02  0.00000000000E+00 0.  1.
         11    1    1    2    0    0  0.28883905155E+02 -0.64300392243E+01  0.44366705977E+02  0.53329447594E+02  0.00000000000E+00 0. -1.
</event>
<event>
 7    1  0.2564986E-009  0.1253102E+03  0.7561462E-02  0.1234585E+00
         -1   -1    0    0    0  501 -0.00000000000E+00  0.00000000000E+00  0.20459365358E+03  0.20459365358E+03  0.00000000000E+00 0.  1.
          1   -1    0    0  501    0  0.00000000000E+00 -0.00000000000E+00 -0.12135850504E+03  0.12135850504E+03  0.00000000000E+00 0. -1.
         25    2    1    2    0    0 -0.80852022174E+02  0.66400725079E+02  0.91097897306E+02  0.18679537173E+03  0.12509028030E+03 0.  0.
          5    1    3    3  502    0 -0.28904265366E+02 -0.15214896931E+02  0.83386181004E+02  0.89653093797E+02  0.41800000000E+01 0.  1.
         -5    1    3    3    0  502 -0.51947756808E+02  0.81615622010E+02  0.77117163015E+01  0.97142277932E+02  0.41800000000E+01 0.  1.
        -11    1    1    2    0    0  0.52150064169E+02 -0.41616237469E+01  0.30555485966E+02  0.60585361496E+02  0.00000000000E+00 0. -1.
         11    1    1    2    0    0  0.28701958005E+02 -0.62239101332E+02 -0.38418234736E+02  0.78571425393E+02  0.00000000000E+00 0.  1.
</event>
<event>
 7    1  0.2564986E-009  0.1043116E+03  0.7561462E-02  0.1271482E+00
         -1   -1    0    0    0  501 -0.00000000000E+00  0.00000000000E+00  0.13629771794E+03  0.13629771794E+03  0.00000000000E+00 0.  1.
          1   -1    0    0  501    0  0.00000000000E+00 -0.00000000000E+00 -0.11059700201E+03  0.11059700201E+03  0.00000000000E+00 0. -1.
         25    2    1    2    0    0  0.15962762837E+02 -0.49921477299E+02 -0.92478807255E+01  0.13594202689E+03  0.12509095764E+03 0.  0.
          5    1    3    3  502    0  0.20901287414E+02  0.22285165518E+02  0.38354836021E+02  0.49214411140E+02  0.41800000000E+01 0. -1.
         -5    1    3    3    0  502 -0.49385245763E+01 -0.72206642818E+02 -0.47602716746E+02  0.86727615750E+02  0.41800000000E+01 0. -1.
        -11    1    1    2    0    0  0.37707683583E+02  0.11990268491E+02  0.12218264658E+02  0.41411615894E+02  0.00000000000E+00 0. -1.
         11    1    1    2    0    0 -0.53670446421E+02  0.37931208808E+02  0.22730331994E+02  0.69541077165E+02  0.00000000000E+00 0.  1.
</event>
<event>
 7    1  0.2564986E-009  0.1702897E+03  0.7561462E-02  0.1177546E+00
          3   -1    0    0  501    0  0.00000000000E+00  0.00000000000E+00  0.13429842466E+04  0.13429842466E+04  0.00000000000E+00 0. -1.
         -3   -1    0    0    0  501 -0.00000000000E+00 -0.00000000000E+00 -0.22322222142E+02  0.22322222142E+02  0.00000000000E+00 0.  1.
         25    2    1    2    0    0  0.13437131179E+03 -0.84682993299E+01  0.61843334216E+03  0.64516261286E+03  0.12509051447E+03 0.  0.
          5    1    3    3  502    0  0.14060302419E+02 -0.53114663100E+02  0.16973673587E+03  0.17845697365E+03  0.41800000000E+01 0.  1.
         -5    1    3    3    0  502  0.12031100937E+03  0.44646363770E+02  0.44869660629E+03  0.46670563921E+03  0.41800000000E+01 0.  1.
        -11    1    1    2    0    0 -0.95998189354E+02 -0.32115562134E+02  0.38786160557E+03  0.40085369746E+03  0.00000000000E+00 0.  1.
         11    1    1    2    0    0 -0.38373122437E+02  0.40583861464E+02  0.31436707672E+03  0.31929015842E+03  0.00000000000E+00 0. -1.
</event>
<event>
 7    1  0.2564986E-009  0.6731048E+02  0.7561462E-02  0.1369485E+00
         -2   -1    0    0    0  501 -0.00000000000E+00  0.00000000000E+00  0.10541373827E+03  0.10541373827E+03  0.00000000000E+00 0.  1.
          2   -1    0    0  501    0  0.00000000000E+00 -0.00000000000E+00 -0.12599135682E+03  0.12599135682E+03  0.00000000000E+00 0. -1.
         25    2    1    2    0    0  0.41566180896E+02  0.10881043204E+02 -0.33503675093E+02  0.13644206455E+03  0.12509115171E+03 0.  0.
          5    1    3    3  502    0  0.40561091096E+02  0.21896686626E+02 -0.77837498170E+02  0.90558354211E+02  0.41800000000E+01 0.  1.
         -5    1    3    3    0  502  0.10050897995E+01 -0.11015643422E+02  0.44333823077E+02  0.45883710335E+02  0.41800000000E+01 0.  1.
        -11    1    1    2    0    0 -0.57186655260E+02 -0.17117310850E+02 -0.15733913303E+02  0.61732259786E+02  0.00000000000E+00 0. -1.
         11    1    1    2    0    0  0.15620474364E+02  0.62362676457E+01  0.28659969843E+02  0.33230770754E+02  0.00000000000E+00 0.  1.
</event>
<event>
 7    1  0.2564986E-009  0.8423801E+02  0.7561462E-02  0.1317437E+00
          2   -1    0    0  501    0  0.00000000000E+00  0.00000000000E+00  0.24834598411E+03  0.24834598411E+03  0.00000000000E+00 0. -1.
         -2   -1    0    0    0  501 -0.00000000000E+00 -0.00000000000E+00 -0.92171873820E+02  0.92171873820E+02  0.00000000000E+00 0.  1.
         25    2    1    2    0    0  0.95702932098E+01 -0.47008289196E+02  0.18944860876E+03  0.23203766875E+03  0.12509730049E+03 0.  0.
          5    1    3    3  502    0  0.43554802374E+01  0.18927353320E+02  0.15699068654E+03  0.15824273435E+03  0.41800000000E+01 0.  1.
         -5    1    3    3    0  502  0.52148129725E+01 -0.65935642516E+02  0.32457922218E+02  0.73794934400E+02  0.41800000000E+01 0.  1.
        -11    1    1    2    0    0  0.24259521192E+02 -0.19661877720E+00  0.18631612410E+02  0.30589213923E+02  0.00000000000E+00 0. -1.
         11    1    1    2    0    0 -0.33829814402E+02  0.47204907973E+02 -0.51906110887E+02  0.77890975258E+02  0.00000000000E+00 0.  1.
</event>
<event>
 7    1  0.2564986E-009  0.9276372E+02  0.7561462E-02  0.1296294E+00
         -2   -1    0    0    0  501 -0.00000000000E+00  0.00000000000E+00  0.58279473242E+02  0.58279473242E+02  0.00000000000E+00 0.  1.
          2   -1    0    0  501    0  0.00000000000E+00 -0.00000000000E+00 -0.24999973515E+03  0.24999973515E+03  0.00000000000E+00 0. -1.
         25    2    1    2    0    0 -0.50276519859E+02 -0.56211640029E+01 -0.12113017751E+03  0.18132731510E+03  0.12509096436E+03 0.  0.
          5    1    3    3  502    0  0.28633614988E+02  0.20212378554E+02 -0.82340150015E+02  0.89586811856E+02  0.41800000000E+01 0. -1.
         -5    1    3    3    0  502 -0.78910134847E+02 -0.25833542556E+02 -0.38790027492E+02  0.91740503244E+02  0.41800000000E+01 0. -1.
        -11    1    1    2    0    0  0.33311768758E+02  0.24769435971E+02 -0.87112667479E+02  0.96497749878E+02  0.00000000000E+00 0. -1.
         11    1    1    2    0    0  0.16964751101E+02 -0.19148271968E+02  0.16522583081E+02  0.30454143412E+02  0.00000000000E+00 0.  1.
</event>
<event>
 7    1  0.3774474E-009  0.1206760E+03  0.7561462E-02  0.1241986E+00
         -2   -1    0    0    0  501 -0.00000000000E+00  0.00000000000E+00  0.35839368930E+02  0.35839368930E+02  0.00000000000E+00 0. -1.
          2   -1    0    0  501    0  0.00000000000E+00 -0.00000000000E+00 -0.57270910807E+03  0.57270910807E+03  0.00000000000E+00 0.  1.
         25    2    1    2    0    0 -0.58597164500E+01 -0.76606555497E+02 -0.17975263933E+03  0.23208104947E+03  0.12509077326E+03 0.  0.
          5    1    3    3  502    0  0.30738520864E+02 -0.86335440386E+02 -0.68518198821E+02  0.11450275499E+03  0.41800000000E+01 0.  1.
         -5    1    3    3    0  502 -0.36598237314E+02  0.97288848890E+01 -0.11123444051E+03  0.11757829448E+03  0.41800000000E+01 0.  1.
        -11    1    1    2    0    0 -0.37308261323E+02  0.42070055185E+02 -0.11360962564E+03  0.12676333438E+03  0.00000000000E+00 0.  1.
         11    1    1    2    0    0  0.43167977773E+02  0.34536500312E+02 -0.24350747416E+03  0.24970409314E+03  0.00000000000E+00 0. -1.
</event>
<event>
 7    1  0.2564986E-009  0.1537725E+03  0.7561462E-02  0.1195913E+00
          2   -1    0    0  501    0  0.00000000000E+00  0.00000000000E+00  0.16993807739E+04  0.16993807739E+04  0.00000000000E+00 0. -1.
         -2   -1    0    0    0  501 -0.00000000000E+00 -0.00000000000E+00 -0.14885343047E+02  0.14885343047E+02  0.00000000000E+00 0.  1.
         25    2    1    2    0    0 -0.91623728101E+02  0.63898163451E+02  0.10027720326E+04  0.10167014759E+04  0.12510898769E+03 0.  0.
          5    1    3    3  502    0 -0.11796515866E+03  0.42195621489E+02  0.89056510919E+03  0.89934416951E+03  0.41800000000E+01 0. -1.
         -5    1    3    3    0  502  0.26341430554E+02  0.21702541962E+02  0.11220692342E+03  0.11735730635E+03  0.41800000000E+01 0. -1.
        -11    1    1    2    0    0  0.10978269768E+03 -0.68069987235E+02  0.59855069262E+03  0.61233054432E+03  0.00000000000E+00 0. -1.
         11    1    1    2    0    0 -0.18158969580E+02  0.41718237845E+01  0.83172705630E+02  0.85234096767E+02  0.00000000000E+00 0.  1.
</event>
<event>
 7    1  0.2564986E-009  0.1906749E+03  0.7561462E-02  0.1157854E+00
          1   -1    0    0  501    0  0.00000000000E+00  0.00000000000E+00  0.10267602138E+04  0.10267602138E+04  0.00000000000E+00 0. -1.
         -1   -1    0    0    0  501 -0.00000000000E+00 -0.00000000000E+00 -0.59406600570E+02  0.59406600570E+02  0.00000000000E+00 0.  1.
         25    2    1    2    0    0 -0.10778745273E+03 -0.23405172649E+02  0.72184165655E+03  0.74085660699E+03  0.12508876014E+03 0.  0.
          5    1    3    3  502    0 -0.50755827333E+02 -0.53577504913E+02  0.17179971612E+03  0.18702758593E+03  0.41800000000E+01 0.  1.
         -5    1    3    3    0  502 -0.57031625393E+02  0.30172332264E+02  0.55004194043E+03  0.55382902105E+03  0.41800000000E+01 0.  1.
        -11    1    1    2    0    0  0.16685555519E+00 -0.87927585000E+02  0.85578207199E+02  0.12269848244E+03  0.00000000000E+00 0.  1.
         11    1    1    2    0    0  0.10762059717E+03  0.11133275765E+03  0.15993374948E+03  0.22261172495E+03  0.00000000000E+00 0. -1.
</event>
<event>
 7    1  0.2564986E-009  0.2106735E+03  0.7561462E-02  0.1141034E+00
          1   -1    0    0  501    0  0.00000000000E+00  0.00000000000E+00  0.24066981230E+03  0.24066981230E+03  0.00000000000E+00 0. -1.
         -1   -1    0    0    0  501 -0.00000000000E+00 -0.00000000000E+00 -0.23957167510E+03  0.23957167510E+03  0.00000000000E+00 0.  1.
         25    2    1    2    0    0  0.18876628552E+03 -0.16156764345E+01 -0.99763295512E+02  0.24745841288E+03  0.12509048730E+03 0.  0.
          5    1    3    3  502    0 -0.94751239014E+01 -0.19364839615E+02 -0.28566797532E+02  0.36032059440E+02  0.41800000000E+01 0. -1.
         -5    1    3    3    0  502  0.19824140942E+03  0.17749163181E+02 -0.71196497981E+02  0.21142635344E+03  0.41800000000E+01 0. -1.
        -11    1    1    2    0    0 -0.18119042678E+03  0.18173936474E+02  0.66439057231E+02  0.19384120060E+03  0.00000000000E+00 0.  1.
         11    1    1    2    0    0 -0.75758587442E+01 -0.16558260039E+02  0.34422375479E+02  0.38941873926E+02  0.00000000000E+00 0. -1.
</event>
<event>
 7    1  0.2564986E-009  0.1004227E+03  0.7561462E-02  0.1279410E+00
          1   -1    0    0  501    0  0.00000000000E+00  0.00000000000E+00  0.17912986409E+03  0.17912986409E+03  0.00000000000E+00 0. -1.
         -1   -1    0    0    0  501 -0.00000000000E+00 -0.00000000000E+00 -0.75729792675E+02  0.75729792675E+02  0.00000000000E+00 0.  1.
         25    2    1    2    0    0  0.42845818286E+01 -0.13087053682E+02  0.18618141198E+02  0.12721385685E+03  0.12508837507E+03 0.  0.
          5    1    3    3  502    0 -0.28590394994E+02 -0.52859146235E+02  0.38794468328E+02  0.71651819234E+02  0.41800000000E+01 0.  1.
         -5    1    3    3    0  502  0.32874976823E+02  0.39772092554E+02 -0.20176327130E+02  0.55562037612E+02  0.41800000000E+01 0.  1.
        -11    1    1    2    0    0 -0.40980658850E+02  0.27562434407E+02  0.23326256518E+02  0.54618828561E+02  0.00000000000E+00 0.  1.
         11    1    1    2    0    0  0.36696077021E+02 -0.14475380726E+02  0.61455673703E+02  0.73026971361E+02  0.00000000000E+00 0. -1.
</event>
<event>
 7    1  0.2612748E-009  0.8169830E+02  0.7561462E-02  0.1324300E+00
         -1   -1    0    0    0  501 -0.00000000000E+00  0.00000000000E+00  0.55229860885E+02  0.55229860885E+02  0.00000000000E+00 0.  1.
          1   -1    0    0  501    0  0.00000000000E+00 -0.00000000000E+00 -0.34132537822E+03  0.34132537822E+03  0.00000000000E+00 0. -1.
         25    2    1    2    0    0 -0.44617566632E+01 -0.25024845054E+02 -0.27239658361E+03  0.30082308099E+03  0.12509387336E+03 0.  0.
          5    1    3    3  502    0 -0.64074839946E+02 -0.52973719141E+01 -0.14792139451E+03  0.16134391410E+03  0.41800000000E+01 0. -1.
         -5    1    3    3    0  502  0.59613083283E+02 -0.19727473140E+02 -0.12447518910E+03  0.13947916689E+03  0.41800000000E+01 0. -1.
        -11    1    1    2    0    0  0.14738789641E+02  0.99189092446E+01  0.37432586452E+02  0.41434468853E+02  0.00000000000E+00 0.  1.
         11    1    1    2    0    0 -0.10277032978E+02  0.15105935809E+02 -0.51131520178E+02  0.54297689262E+02  0.00000000000E+00 0. -1.
</event>
<event>
 7    1  0.2564986E-009  0.1675647E+03  0.7561462E-02  0.1180411E+00
         -3   -1    0    0    0  501 -0.00000000000E+00  0.00000000000E+00  0.16909549413E+03  0.16909549413E+03  0.00000000000E+00 0.  1.
          3   -1    0    0  501    0  0.00000000000E+00 -0.00000000000E+00 -0.20685160111E+03  0.20685160111E+03  0.00000000000E+00 0. -1.
         25    2    1    2    0    0 -0.14354696421E+03 -0.34021415709E+02 -0.44279766114E+01  0.19346900232E+03  0.12508980863E+03 0.  0.
          5    1    3    3  502    0 -0.29286626287E+02  0.41212465908E+02 -0.22342049116E+02  0.55432962975E+02  0.41800000000E+01 0.  1.
         -5    1    3    3    0  502 -0.11426033792E+03 -0.75233881617E+02  0.17914072505E+02  0.13803603935E+03  0.41800000000E+01 0.  1.
        -11    1    1    2    0    0  0.23460690733E+02  0.60737545421E+01 -0.52384556437E+02  0.57718595418E+02  0.00000000000E+00 0. -1.
         11    1    1    2    0    0  0.12008627348E+03  0.27947661167E+02  0.19056426062E+02  0.12475949750E+03  0.00000000000E+00 0.  1.
</event>
<event>
 7    1  0.2564986E-009  0.1136881E+03  0.7561462E-02  0.1253889E+00
          1   -1    0    0  501    0  0.00000000000E+00  0.00000000000E+00  0.88600807262E+03  0.88600807262E+03  0.00000000000E+00 0. -1.
         -1   -1    0    0    0  501 -0.00000000000E+00 -0.00000000000E+00 -0.25384427572E+02  0.25384427572E+02  0.00000000000E+00 0.  1.
         25    2    1    2    0    0 -0.52298448952E+01 -0.47617957292E+02  0.74581844222E+03  0.75775176667E+03  0.12509104685E+03 0.  0.
          5    1    3    3  502    0 -0.58460752073E+02 -0.75733237400E+01  0.22329439419E+03  0.23098240981E+03  0.41800000000E+01 0. -1.
         -5    1    3    3    0  502  0.53230907178E+02 -0.40044633552E+02  0.52252404804E+03  0.52676935686E+03  0.41800000000E+01 0. -1.
        -11    1    1    2    0    0  0.26273535048E+02  0.67594269077E+02  0.74406140326E+02  0.10390167262E+03  0.00000000000E+00 0.  1.
         11    1    1    2    0    0 -0.21043690153E+02 -0.19976311785E+02  0.40399062495E+02  0.49739060890E+02  0.00000000000E+00 0. -1.
</event>
<event>
 7    1  0.2564986E-009  0.9888230E+02  0.7561462E-02  0.1282664E+00
         -2   -1    0    0    0  501 -0.00000000000E+00  0.00000000000E+00  0.44636047041E+02  0.44636047041E+02  0.00000000000E+00 0.  1.
          2   -1    0    0  501    0  0.00000000000E+00 -0.00000000000E+00 -0.40285981379E+03  0.40285981379E+03  0.00000000000E+00 0. -1.
         25    2    1    2    0    0 -0.48961081134E+02  0.26952188902E+02 -0.29074513358E+03  0.32141093517E+03  0.12509455861E+03 0.  0.
          5    1    3    3  502    0 -0.58891039279E+02 -0.40231718939E+01 -0.28105000821E+03  0.28721232553E+03  0.41800000000E+01 0.  1.
         -5    1    3    3    0  502  0.99299581448E+01  0.30975360796E+02 -0.96951253639E+01  0.34198609636E+02  0.41800000000E+01 0.  1.
        -11    1    1    2    0    0  0.35076111799E+02  0.30625594875E+02 -0.22511300643E+02  0.51720589102E+02  0.00000000000E+00 0.  1.
         11    1    1    2    0    0  0.13884969335E+02 -0.57577783777E+02 -0.44967332531E+02  0.74364336567E+02  0.00000000000E+00 0. -1.
</event>
<event>
 7    1  0.2564986E-009  0.8872995E+02  0.7561462E-02  0.1305957E+00
          1   -1    0    0  501    0  0.00000000000E+00  0.00000000000E+00  0.62135054201E+03  0.62135054201E+03  0.00000000000E+00 0. -1.
         -1   -1    0    0    0  501 -0.00000000000E+00 -0.00000000000E+00 -0.24482629263E+02  0.24482629263E+02  0.00000000000E+00 0.  1.
         25    2    1    2    0    0  0.28306542934E+02 -0.70354260520E+01  0.46815355523E+03  0.48545455485E+03  0.12509043115E+03 0.  0.
          5    1    3    3  502    0  0.54128183305E+02  0.14878166707E+02  0.43233158362E+03  0.43598083750E+03  0.41800000000E+01 0.  1.
         -5    1    3    3    0  502 -0.25821640371E+02 -0.21913592759E+02  0.35821971604E+02  0.49473717353E+02  0.41800000000E+01 0.  1.
        -11    1    1    2    0    0  0.17861353632E+02 -0.25091063678E+02  0.16698862040E+02  0.35034860118E+02  0.00000000000E+00 0.  1.
         11    1    1    2    0    0 -0.46167896566E+02  0.32126489730E+02  0.11201549548E+03  0.12534375630E+03  0.00000000000E+00 0. -1.
</event>
<event>
 7    1  0.2564986E-009  0.2193604E+03  0.7561462E-02  0.1134361E+00
         -1   -1    0    0    0  501 -0.00000000000E+00  0.00000000000E+00  0.72474201827E+03  0.72474201827E+03  0.00000000000E+00 0.  1.
          1   -1    0    0  501    0  0.00000000000E+00 -0.00000000000E+00 -0.82125131556E+02  0.82125131556E+02  0.00000000000E+00 0. -1.
         25    2    1    2    0    0 -0.17797121261E+03 -0.11679586191E+03  0.25298710192E+03  0.35350275351E+03  0.12508675838E+03 0.  0.
          5    1    3    3  502    0 -0.32757525121E+02 -0.23935115584E+02 -0.71577030446E+01  0.41408336395E+02  0.41800000000E+01 0.  1.
         -5    1    3    3    0  502 -0.14521368749E+03 -0.92860746325E+02  0.26014480497E+03  0.31209441711E+03  0.41800000000E+01 0.  1.
        -11    1    1    2    0    0  0.15640102032E+03  0.64924498361E+02  0.24163458616E+03  0.29506565858E+03  0.00000000000E+00 0. -1.
         11    1    1    2    0    0  0.21570192289E+02  0.51871363547E+02  0.14799519863E+03  0.15829873774E+03  0.00000000000E+00 0.  1.
</event>
<event>
 7    1  0.2564986E-009  0.1274144E+03  0.7561462E-02  0.1231344E+00
          2   -1    0    0  501    0  0.00000000000E+00  0.00000000000E+00  0.56805292769E+03  0.56805292769E+03  0.00000000000E+00 0. -1.
         -2   -1    0    0    0  501 -0.00000000000E+00 -0.00000000000E+00 -0.30956688170E+02  0.30956688170E+02  0.00000000000E+00 0.  1.
         25    2    1    2    0    0  0.62870068408E+02 -0.50777090045E+02  0.23105568240E+03  0.27489135528E+03  0.12509024927E+03 0.  0.
          5    1    3    3  502    0  0.39744502587E+02 -0.92455969920E+02  0.14760000058E+03  0.17869237373E+03  0.41800000000E+01 0. -1.
         -5    1    3    3    0  502  0.23125565822E+02  0.41678879874E+02  0.83455681827E+02  0.96198981550E+02  0.41800000000E+01 0. -1.
        -11    1    1    2    0    0  0.14806493073E+02  0.13754622576E+02  0.47031240337E+02  0.51189446637E+02  0.00000000000E+00 0.  1.
         11    1    1    2    0    0 -0.77676561482E+02  0.37022467469E+02  0.25900931678E+03  0.27292881394E+03  0.00000000000E+00 0. -1.
</event>
<event>
 7    1  0.2564986E-009  0.1333609E+03  0.7561462E-02  0.1222552E+00
         -2   -1    0    0    0  501 -0.00000000000E+00  0.00000000000E+00  0.11040387579E+03  0.11040387579E+03  0.00000000000E+00 0.  1.
          2   -1    0    0  501    0  0.00000000000E+00 -0.00000000000E+00 -0.20634037159E+03  0.20634037159E+03  0.00000000000E+00 0. -1.
         25    2    1    2    0    0 -0.28960598254E+02  0.98788468803E+02 -0.43722090383E+02  0.16780145116E+03  0.12509127869E+03 0.  0.
          5    1    3    3  502    0 -0.76286754602E+02  0.68135155549E+02 -0.43581542685E+02  0.11126046743E+03  0.41800000000E+01 0.  1.
         -5    1    3    3    0  502  0.47326156348E+02  0.30653313253E+02 -0.14054769851E+00  0.56540983735E+02  0.41800000000E+01 0.  1.
        -11    1    1    2    0    0  0.17978458317E+02 -0.94214933407E+02 -0.53978679023E+00  0.95916474134E+02  0.00000000000E+00 0.  1.
         11    1    1    2    0    0  0.10982139937E+02 -0.45735353953E+01 -0.51674618624E+02  0.53026322082E+02  0.00000000000E+00 0. -1.
</event>
<event>
 7    1  0.2564986E-009  0.1383340E+03  0.7561462E-02  0.1215588E+00
          3   -1    0    0  501    0  0.00000000000E+00  0.00000000000E+00  0.33446885152E+03  0.33446885152E+03  0.00000000000E+00 0. -1.
         -3   -1    0    0    0  501 -0.00000000000E+00 -0.00000000000E+00 -0.74198968625E+02  0.74198968625E+02  0.00000000000E+00 0.  1.
         25    2    1    2    0    0 -0.18983034362E+02 -0.11233590232E+03  0.12269048414E+03  0.20899840870E+03  0.12509064472E+03 0.  0.
          5    1    3    3  502    0 -0.47435135877E+02 -0.83647720523E+02  0.13567825907E+03  0.16635232385E+03  0.41800000000E+01 0.  1.
         -5    1    3    3    0  502  0.28452101515E+02 -0.28688181796E+02 -0.12987774935E+02  0.42646084852E+02  0.41800000000E+01 0.  1.
        -11    1    1    2    0    0  0.48088626090E+02  0.42656058715E+02  0.89339881714E+02  0.11006211777E+03  0.00000000000E+00 0. -1.
         11    1    1    2    0    0 -0.29105591728E+02  0.69679843604E+02  0.48239517042E+02  0.89607293671E+02  0.00000000000E+00 0.  1.
</event>
<event>
 7    1  0.2564986E-009  0.1076891E+03  0.7561462E-02  0.1264910E+00
         -1   -1    0    0    0  501 -0.00000000000E+00  0.00000000000E+00  0.14316759709E+03  0.14316759709E+03  0.00000000000E+00 0.  1.
          1   -1    0    0  501    0  0.00000000000E+00 -0.00000000000E+00 -0.13706407747E+03  0.13706407747E+03  0.00000000000E+00 0. -1.
         25    2    1    2    0    0  0.50064509947E+02 -0.71710193290E+02  0.16027443904E+02  0.15346905396E+03  0.12508822722E+03 0.  0.
          5    1    3    3  502    0  0.18780905593E+02 -0.39806126507E+02  0.70298869522E+02  0.83046093096E+02  0.41800000000E+01 0.  1.
         -5    1    3    3    0  502  0.31283604354E+02 -0.31904066783E+02 -0.54271425618E+02  0.70422960867E+02  0.41800000000E+01 0.  1.
        -11    1    1    2    0    0 -0.22743637681E+02 -0.20190355544E+02 -0.40108009898E+00  0.30415199773E+02  0.00000000000E+00 0.  1.
         11    1    1    2    0    0 -0.27320872266E+02  0.91900548834E+02 -0.95228441874E+01  0.96347420821E+02  0.00000000000E+00 0. -1.
</event>
<event>
 7    1  0.2564986E-009  0.2202500E+03  0.7561462E-02  0.1133697E+00
         -2   -1    0    0    0  501 -0.00000000000E+00  0.00000000000E+00  0.19610233619E+03  0.19610233619E+03  0.00000000000E+00 0. -1.
          2   -1    0    0  501    0  0.00000000000E+00 -0.00000000000E+00 -0.29120200899E+03  0.29120200899E+03  0.00000000000E+00 0.  1.
         25    2    1    2    0    0  0.20271043027E+03 -0.58911325783E+01 -0.12600094120E+03  0.26953061805E+03  0.12507714780E+03 0.  0.
          5    1    3    3  502    0  0.13706913725E+03  0.52253372524E+02 -0.55348358345E+02  0.15684156496E+03  0.41800000000E+01 0. -1.
         -5    1    3    3    0  502  0.65641293010E+02 -0.58144505103E+02 -0.70652582851E+02  0.11268905309E+03  0.41800000000E+01 0. -1.
        -11    1    1    2    0    0 -0.10186063530E+03 -0.15026533998E+02 -0.16701774519E+02  0.10430884440E+03  0.00000000000E+00 0.  1.
         11    1    1    2    0    0 -0.10084979496E+03  0.20917666576E+02  0.47603042915E+02  0.11346488273E+03  0.00000000000E+00 0. -1.
</event>
<event>
 7    1  0.2564986E-009  0.9401383E+02  0.7561462E-02  0.1293413E+00
         -2   -1    0    0    0  501 -0.00000000000E+00  0.00000000000E+00  0.19847986402E+03  0.19847986402E+03  0.00000000000E+00 0.  1.
          2   -1    0    0  501    0  0.00000000000E+00 -0.00000000000E+00 -0.71447710290E+02  0.71447710290E+02  0.00000000000E+00 0. -1.
         25    2    1    2    0    0  0.23995671918E+01  0.46959527704E+02  0.94871734878E+02  0.16388838127E+03  0.12509116785E+03 0.  0.
          5    1    3    3  502    0 -0.50783182855E+02  0.40216637488E+02  0.13416513702E+02  0.66285630657E+02  0.41800000000E+01 0.  1.
         -5    1    3    3    0  502  0.53182750047E+02  0.67428902165E+01  0.81455221176E+02  0.97602750617E+02  0.41800000000E+01 0.  1.
        -11    1    1    2    0    0  0.23514675722E+02 -0.30996248952E+02  0.55433689720E+02  0.67724451857E+02  0.00000000000E+00 0.  1.
         11    1    1    2    0    0 -0.25914242914E+02 -0.15963278753E+02 -0.23273270872E+02  0.38314741176E+02  0.00000000000E+00 0. -1.
</event>
<event>
 7    1  0.2564986E-009  0.1468996E+03  0.7561462E-02  0.1204335E+00
          3   -1    0    0  501    0  0.00000000000E+00  0.00000000000E+00  0.15324306923E+03  0.15324306923E+03  0.00000000000E+00 0. -1.
         -3   -1    0    0    0  501 -0.00000000000E+00 -0.00000000000E+00 -0.17321376875E+03  0.17321376875E+03  0.00000000000E+00 0.  1.
         25    2    1    2    0    0  0.49608808589E+02  0.96165693115E+02  0.41141338659E+02  0.17043802851E+03  0.12509051681E+03 0.  0.
          5    1    3    3  502    0  0.42892731871E+02  0.12667172223E+03  0.31190381914E+02  0.13738931539E+03  0.41800000000E+01 0.  1.
         -5    1    3    3    0  502  0.67160767177E+01 -0.30506029116E+02  0.99509567445E+01  0.33048713122E+02  0.41800000000E+01 0.  1.
        -11    1    1    2    0    0 -0.49740552337E+02 -0.22121428531E+02  0.76470952515E+01  0.54972340435E+02  0.00000000000E+00 0.  1.
         11    1    1    2    0    0  0.13174374846E+00 -0.74044264583E+02 -0.68759133433E+02  0.10104646904E+03  0.00000000000E+00 0. -1.
</event>
<event>
 7    1  0.2564986E-009  0.1240889E+03  0.7561462E-02  0.1236500E+00
          1   -1    0    0  501    0  0.00000000000E+00  0.00000000000E+00  0.17185296770E+03  0.17185296770E+03  0.00000000000E+00 0. -1.
         -1   -1    0    0    0  501 -0.00000000000E+00 -0.00000000000E+00 -0.12893150848E+03  0.12893150848E+03  0.00000000000E+00 0.  1.
         25    2    1    2    0    0  0.68963964096E+02 -0.38499771076E+02  0.87322261643E+02  0.17179010549E+03  0.12509357398E+03 0.  0.
          5    1    3    3  502    0  0.88459929257E+02 -0.52271442331E+02  0.26317617169E+02  0.10614872652E+03  0.41800000000E+01 0.  1.
         -5    1    3    3    0  502 -0.19495965161E+02  0.13771671255E+02  0.61004644474E+02  0.65641378978E+02  0.41800000000E+01 0.  1.
        -11    1    1    2    0    0 -0.79868933767E+02 -0.12637219470E+01 -0.28994783252E+02  0.84978473922E+02  0.00000000000E+00 0.  1.
         11    1    1    2    0    0  0.10904969672E+02  0.39763493023E+02 -0.15406019171E+02  0.44015896760E+02  0.00000000000E+00 0. -1.
</event>
<event>
 7    1  0.2564986E-009  0.6602076E+02  0.7561462E-02  0.1374172E+00
          1   -1    0    0  501    0  0.00000000000E+00  0.00000000000E+00  0.18884481520E+02  0.18884481520E+02  0.00000000000E+00 0. -1.
         -1   -1    0    0    0  501 -0.00000000000E+00 -0.00000000000E+00 -0.98950426101E+03  0.98950426101E+03  0.00000000000E+00 0.  1.
         25    2    1    2    0    0 -0.37939249116E+02  0.31560668216E+02 -0.78873757694E+03  0.80011872658E+03  0.12509016330E+03 0.  0.
          5    1    3    3  502    0 -0.47047485818E+02  0.37674921481E+02 -0.15628154446E+03  0.16755375009E+03  0.41800000000E+01 0. -1.
         -5    1    3    3    0  502  0.91082367014E+01 -0.61142532657E+01 -0.63245603247E+03  0.63256497649E+03  0.41800000000E+01 0. -1.
        -11    1    1    2    0    0  0.76593358330E+01 -0.28428802200E+02 -0.17447310485E+03  0.17693989526E+03  0.00000000000E+00 0.  1.
         11    1    1    2    0    0  0.30279913283E+02 -0.31318660156E+01 -0.74090977012E+01  0.31330120682E+02  0.00000000000E+00 0. -1.
</event>
<event>
 7    1  0.2564986E-009  0.4045683E+03  0.7561462E-02  0.1042209E+00
         -1   -1    0    0    0  501 -0.00000000000E+00  0.00000000000E+00  0.22552098008E+03  0.22552098008E+03  0.00000000000E+00 0.  1.
          1   -1    0    0  501    0  0.00000000000E+00 -0.00000000000E+00 -0.86614226405E+03  0.86614226405E+03  0.00000000000E+00 0. -1.
         25    2    1    2    0    0  0.39406760504E+03  0.35892241762E+02 -0.52723502429E+03  0.67097106986E+03  0.12509146809E+03 0.  0.
          5    1    3    3  502    0  0.34466974817E+03  0.59590383695E+02 -0.39416384586E+03  0.52700176367E+03  0.41800000000E+01 0. -1.
         -5    1    3    3    0  502  0.49397856873E+02 -0.23698141933E+02 -0.13307117843E+03  0.14396930619E+03  0.41800000000E+01 0. -1.
        -11    1    1    2    0    0 -0.16896442324E+03  0.25930772536E+02 -0.60543748988E+02  0.18134753052E+03  0.00000000000E+00 0. -1.
         11    1    1    2    0    0 -0.22510318180E+03 -0.61823014298E+02 -0.52842510692E+02  0.23934464375E+03  0.00000000000E+00 0.  1.
</event>
<event>
 7    1  0.2564986E-009  0.9345134E+02  0.7561462E-02  0.1294703E+00
         -2   -1    0    0    0  501 -0.00000000000E+00  0.00000000000E+00  0.12386927405E+02  0.12386927405E+02  0.00000000000E+00 0.  1.
          2   -1    0    0  501    0  0.00000000000E+00 -0.00000000000E+00 -0.11289839869E+04  0.11289839869E+04  0.00000000000E+00 0. -1.
         25    2    1    2    0    0 -0.21260061417E+02  0.29450532070E+02 -0.77063815037E+03  0.78156736267E+03  0.12508021243E+03 0.  0.
          5    1    3    3  502    0 -0.41287115415E+02  0.50204699353E+02 -0.72152277554E+03  0.72445684879E+03  0.41800000000E+01 0.  1.
         -5    1    3    3    0  502  0.20027053997E+02 -0.20754167283E+02 -0.49115374829E+02  0.57110513883E+02  0.41800000000E+01 0.  1.
        -11    1    1    2    0    0  0.28538854677E+02 -0.57206619156E+02 -0.28945721882E+03  0.29643303633E+03  0.00000000000E+00 0. -1.
         11    1    1    2    0    0 -0.72787932597E+01  0.27756087085E+02 -0.56501690275E+02  0.63370515270E+02  0.00000000000E+00 0.  1.
</event>
<event>
 7    1  0.2564986E-009  0.1058008E+03  0.7561462E-02  0.1268550E+00
          2   -1    0    0  501    0  0.00000000000E+00  0.00000000000E+00  0.30996620710E+03  0.30996620710E+03  0.00000000000E+00 0. -1.
         -2   -1    0    0    0  501 -0.00000000000E+00 -0.00000000000E+00 -0.47177489731E+02  0.47177489731E+02  0.00000000000E+00 0.  1.
         25    2    1    2    0    0  0.38354971677E+02 -0.26374408053E+02  0.13195424144E+03  0.18769231556E+03  0.12509904170E+03 0.  0.
          5    1    3    3  502    0 -0.15358237586E+02 -0.50500599392E+02  0.11447538857E+03  0.12612800239E+03  0.41800000000E+01 0. -1.
         -5    1    3    3    0  502  0.53713209264E+02  0.24126191339E+02  0.17478852876E+02  0.61564313167E+02  0.41800000000E+01 0. -1.
        -11    1    1    2    0    0 -0.26372047110E+02 -0.31177271324E+02  0.23609540023E+02  0.47169031112E+02  0.00000000000E+00 0.  1.
         11    1    1    2    0    0 -0.11982924567E+02  0.57551679378E+02  0.10722493590E+03  0.12228235016E+03  0.00000000000E+00 0. -1.
</event>
<event>
 7    1  0.2564986E-009  0.1091166E+03  0.7561462E-02  0.1262215E+00
          2   -1    0    0  501    0  0.00000000000E+00  0.00000000000E+00  0.81613294848E+03  0.81613294848E+03  0.00000000000E+00 0. -1.
         -2   -1    0    0    0  501 -0.00000000000E+00 -0.00000000000E+00 -0.25094516277E+02  0.25094516277E+02  0.00000000000E+00 0.  1.
         25    2    1    2    0    0  0.80538255642E+02  0.46526863913E+02  0.46266687824E+03  0.48822272406E+03  0.12509847475E+03 0.  0.
          5    1    3    3  502    0  0.81186058328E+02  0.46142607177E+02  0.47029346524E+03  0.47949320340E+03  0.41800000000E+01 0. -1.
         -5    1    3    3    0  502 -0.64780268599E+00  0.38425673623E+00 -0.76265870036E+01  0.87295206560E+01  0.41800000000E+01 0. -1.
        -11    1    1    2    0    0 -0.30067835635E+02 -0.60997644277E+02  0.11813191031E+03  0.13630823739E+03  0.00000000000E+00 0.  1.
         11    1    1    2    0    0 -0.50470420006E+02  0.14470780364E+02  0.21023964365E+03  0.21669650330E+03  0.00000000000E+00 0. -1.
</event>
<event>
 7    1  0.2564986E-009  0.6307073E+02  0.7561462E-02  0.1385379E+00
         -1   -1    0    0    0  501 -0.00000000000E+00  0.00000000000E+00  0.46643790642E+02  0.46643790642E+02  0.00000000000E+00 0.  1.
          1   -1    0    0  501    0  0.00000000000E+00 -0.00000000000E+00 -0.33571763933E+03  0.33571763933E+03  0.00000000000E+00 0. -1.
         25    2    1    2    0    0  0.45872204052E+02  0.25015200050E+02 -0.10193816321E+03  0.16961530350E+03  0.12509173723E+03 0.  0.
          5    1    3    3  502    0  0.47542528030E+02  0.29412236275E+02 -0.12962178357E+03  0.14122553165E+03  0.41800000000E+01 0. -1.
         -5    1    3    3    0  502 -0.16703239779E+01 -0.43970362252E+01  0.27683620354E+02  0.28389771850E+02  0.41800000000E+01 0. -1.
        -11    1    1    2    0    0 -0.36448067478E+02 -0.34664461596E+02 -0.19194519487E+03  0.19842642050E+03  0.00000000000E+00 0. -1.
         11    1    1    2    0    0 -0.94241365735E+01  0.96492615464E+01  0.48095093913E+01  0.14319705972E+02  0.00000000000E+00 0.  1.
</event>
<event>
 7    1  0.3297498E-009  0.9301390E+02  0.7561462E-02  0.1295713E+00
         -2   -1    0    0    0  501 -0.00000000000E+00  0.00000000000E+00  0.40169166468E+02  0.40169166468E+02  0.00000000000E+00 0.  1.
          2   -1    0    0  501    0  0.00000000000E+00 -0.00000000000E+00 -0.50844810450E+03  0.50844810450E+03  0.00000000000E+00 0. -1.
         25    2    1    2    0    0 -0.75622216344E+02 -0.16980401594E+02 -0.35352545828E+03  0.38292765912E+03  0.12508512631E+03 0.  0.
          5    1    3    3  502    0 -0.24146526586E+02  0.10540315651E+02 -0.30702594826E+03  0.30818267035E+03  0.41800000000E+01 0. -1.
         -5    1    3    3    0  502 -0.51475689758E+02 -0.27520717245E+02 -0.46499510017E+02  0.74744988765E+02  0.41800000000E+01 0. -1.
        -11    1    1    2    0    0 -0.10940101522E+02 -0.41946788726E+01  0.78629728510E+01  0.14110545497E+02  0.00000000000E+00 0.  1.
         11    1    1    2    0    0  0.86562317866E+02  0.21175080467E+02 -0.12261645261E+03  0.15157906636E+03  0.00000000000E+00 0. -1.
</event>
<event>
 7    1  0.2714782E-009  0.1138105E+03  0.7561462E-02  0.1253672E+00
         -2   -1    0    0    0  501 -0.00000000000E+00  0.00000000000E+00  0.74872026492E+02  0.74872026492E+02  0.00000000000E+00 0.  1.
          2   -1    0    0  501    0  0.00000000000E+00 -0.00000000000E+00 -0.25401855079E+03  0.25401855079E+03  0.00000000000E+00 0. -1.
         25    2    1    2    0    0 -0.78000974054E+02 -0.32172199084E+02 -0.85790871899E+02  0.17357093107E+03  0.12509033562E+03 0.  0.
          5    1    3    3  502    0  0.19002722362E+02  0.11368833453E+02  0.14946351385E+02  0.27041073407E+02  0.41800000000E+01 0.  1.
         -5    1    3    3    0  502 -0.97003696417E+02 -0.43541032537E+02 -0.10073722328E+03  0.14652985767E+03  0.41800000000E+01 0.  1.
        -11    1    1    2    0    0  0.59240265189E+02  0.46303201498E+02 -0.19297041639E+02  0.77625841732E+02  0.00000000000E+00 0.  1.
         11    1    1    2    0    0  0.18760708865E+02 -0.14131002414E+02 -0.74058610763E+02  0.77693804479E+02  0.00000000000E+00 0. -1.
</event>
<event>
 7    1  0.2564986E-009  0.1316409E+03  0.7561462E-02  0.1225041E+00
         -1   -1    0    0    0  501 -0.00000000000E+00  0.00000000000E+00  0.16880448966E+03  0.16880448966E+03  0.00000000000E+00 0.  1.
          1   -1    0    0  501    0  0.00000000000E+00 -0.00000000000E+00 -0.12131822576E+03  0.12131822576E+03  0.00000000000E+00 0. -1.
         25    2    1    2    0    0 -0.36987023596E+00  0.91517639730E+02  0.15619816884E+02  0.15577670918E+03  0.12508712667E+03 0.  0.
          5    1    3    3  502    0  0.39530587895E+02  0.82613820895E+02  0.47974659598E+02  0.10347343208E+03  0.41800000000E+01 0.  1.
         -5    1    3    3    0  502 -0.39900458131E+02  0.89038188347E+01 -0.32354842714E+02  0.52303277105E+02  0.41800000000E+01 0.  1.
        -11    1    1    2    0    0  0.28642146031E+02  0.57501572255E+01  0.76231295513E+01  0.30191868798E+02  0.00000000000E+00 0.  1.
         11    1    1    2    0    0 -0.28272275795E+02 -0.97267796956E+02  0.24243317462E+02  0.10415413743E+03  0.00000000000E+00 0. -1.
</event>
<event>
 7    1  0.2564986E-009  0.1165304E+03  0.7561462E-02  0.1248933E+00
          1   -1    0    0  501    0  0.00000000000E+00  0.00000000000E+00  0.28442475010E+03  0.28442475010E+03  0.00000000000E+00 0. -1.
         -1   -1    0    0    0  501 -0.00000000000E+00 -0.00000000000E+00 -0.64480393685E+02  0.64480393685E+02  0.00000000000E+00 0.  1.
         25    2    1    2    0    0  0.49115528939E+02 -0.30364781493E+02  0.18935974620E+03  0.23417740488E+03  0.12509032071E+03 0.  0.
          5    1    3    3  502    0  0.63994429857E+02 -0.60931428215E+02  0.78921275820E+02  0.11854942503E+03  0.41800000000E+01 0. -1.
         -5    1    3    3    0  502 -0.14878900918E+02  0.30566646722E+02  0.11043847038E+03  0.11562797985E+03  0.41800000000E+01 0. -1.
        -11    1    1    2    0    0  0.28238508534E+02  0.12906243469E+02  0.53195148296E+01  0.31500503532E+02  0.00000000000E+00 0. -1.
         11    1    1    2    0    0 -0.77354037474E+02  0.17458538024E+02  0.25265095384E+02  0.83227235375E+02  0.00000000000E+00 0.  1.
</event>
<event>
 7    1  0.2812968E-009  0.1710570E+03  0.7561462E-02  0.1176750E+00
         -2   -1    0    0    0  501 -0.00000000000E+00  0.00000000000E+00  0.48687276496E+02  0.48687276496E+02  0.00000000000E+00 0.  1.
          2   -1    0    0  501    0  0.00000000000E+00 -0.00000000000E+00 -0.61132358324E+03  0.61132358324E+03  0.00000000000E+00 0. -1.
         25    2    1    2    0    0  0.12177672863E+03 -0.51055131775E+02 -0.34100813086E+03  0.38648461604E+03  0.12509042732E+03 0.  0.
          5    1    3    3  502    0  0.59026565703E+00 -0.60096391269E+02 -0.11727283443E+03  0.13184200679E+03  0.41800000000E+01 0.  1.
         -5    1    3    3    0  502  0.12118646297E+03  0.90412594945E+01 -0.22373529643E+03  0.25464260925E+03  0.41800000000E+01 0.  1.
        -11    1    1    2    0    0 -0.10420594821E+03 -0.21653708671E+01 -0.14158599094E+03  0.17581285876E+03  0.00000000000E+00 0.  1.
         11    1    1    2    0    0 -0.17570780413E+02  0.53220502642E+02 -0.80042184939E+02  0.97713384935E+02  0.00000000000E+00 0. -1.
</event>
<event>
 7    1  0.3646659E-009  0.1891831E+03  0.7561462E-02  0.1159200E+00
         -2   -1    0    0    0  501 -0.00000000000E+00  0.00000000000E+00  0.84481766752E+02  0.84481766752E+02  0.00000000000E+00 0.  1.
          2   -1    0    0  501    0  0.00000000000E+00 -0.00000000000E+00 -0.52080439436E+03  0.52080439436E+03  0.00000000000E+00 0. -1.
         25    2    1    2    0    0  0.96846541769E+02 -0.13369286135E+03 -0.12722967229E+03  0.24308029925E+03  0.12509040148E+03 0.  0.
          5    1    3    3  502    0 -0.30288044993E+02 -0.30584766310E+02 -0.23067412288E+02  0.49013992996E+02  0.41800000000E+01 0.  1.
         -5    1    3    3    0  502  0.12713458676E+03 -0.10310809504E+03 -0.10416226000E+03  0.19406630626E+03  0.41800000000E+01 0.  1.
        -11    1    1    2    0    0 -0.20156170973E+02  0.66251899568E+02 -0.55251071647E+02  0.88590441599E+02  0.00000000000E+00 0.  1.
         11    1    1    2    0    0 -0.76690370797E+02  0.67440961787E+02 -0.25384188367E+03  0.27361542026E+03  0.00000000000E+00 0. -1.
</event>
<event>
 7    1  0.2564986E-009  0.1471458E+03  0.7561462E-02  0.1204025E+00
         -1   -1    0    0    0  501 -0.00000000000E+00  0.00000000000E+00  0.86382625817E+02  0.86382625817E+02  0.00000000000E+00 0.  1.
          1   -1    0    0  501    0  0.00000000000E+00 -0.00000000000E+00 -0.27463812915E+03  0.27463812915E+03  0.00000000000E+00 0. -1.
         25    2    1    2    0    0 -0.48342819105E+02 -0.98331367569E+02 -0.10277407414E+03  0.19548848103E+03  0.12508856820E+03 0.  0.
          5    1    3    3  502    0  0.19511416192E+02  0.12735711982E+02  0.75178539439E+01  0.24837154616E+02  0.41800000000E+01 0.  1.
         -5    1    3    3    0  502 -0.67854235297E+02 -0.11106707955E+03 -0.11029192808E+03  0.17065132642E+03  0.41800000000E+01 0.  1.
        -11    1    1    2    0    0  0.20363844320E+02  0.10867654861E+03 -0.76233916268E+02  0.13430148310E+03  0.00000000000E+00 0.  1.
         11    1    1    2    0    0  0.27978974785E+02 -0.10345181040E+02 -0.92475129241E+01  0.31230790833E+02  0.00000000000E+00 0. -1.
</event>
<event>
 7    1  0.2564986E-009  0.1141461E+03  0.7561462E-02  0.1253079E+00
          1   -1    0    0  501    0  0.00000000000E+00  0.00000000000E+00  0.75439589619E+02  0.75439589619E+02  0.00000000000E+00 0. -1.
         -1   -1    0    0    0  501 -0.00000000000E+00 -0.00000000000E+00 -0.25217871503E+03  0.25217871503E+03  0.00000000000E+00 0.  1.
         25    2    1    2    0    0  0.88573879056E+01 -0.65783708967E+02 -0.16012309288E+03  0.21375840533E+03  0.12508917335E+03 0.  0.
          5    1    3    3  502    0  0.45225038895E+02 -0.86465190081E+02 -0.12711953173E+03  0.16030714577E+03  0.41800000000E+01 0. -1.
         -5    1    3    3    0  502 -0.36367650989E+02  0.20681481114E+02 -0.33003561149E+02  0.53451259555E+02  0.41800000000E+01 0. -1.
        -11    1    1    2    0    0  0.17928829602E+02  0.41336918887E+00  0.25828768448E+02  0.31444221799E+02  0.00000000000E+00 0. -1.
         11    1    1    2    0    0 -0.26786217508E+02  0.65370339778E+02 -0.42444800981E+02  0.82415677522E+02  0.00000000000E+00 0.  1.
</event>
<event>
 7    1  0.2642018E-009  0.1768000E+03  0.7561462E-02  0.1170936E+00
          1   -1    0    0  501    0  0.00000000000E+00  0.00000000000E+00  0.89083868310E+03  0.89083868310E+03  0.00000000000E+00 0. -1.
         -1   -1    0    0    0  501 -0.00000000000E+00 -0.00000000000E+00 -0.56685432192E+02  0.56685432192E+02  0.00000000000E+00 0.  1.
         25    2    1    2    0    0  0.10802941238E+03 -0.11510231269E+03  0.67888373710E+03  0.70813082147E+03  0.12508891030E+03 0.  0.
          5    1    3    3  502    0  0.12305753223E+03 -0.57649892240E+02  0.54330510688E+03  0.56005765585E+03  0.41800000000E+01 0. -1.
         -5    1    3    3    0  502 -0.15028119853E+02 -0.57452420450E+02  0.13557863023E+03  0.14807316562E+03  0.41800000000E+01 0. -1.
        -11    1    1    2    0    0 -0.28793770750E+02  0.25078504565E+02 -0.57559983996E+01  0.38615335590E+02  0.00000000000E+00 0.  1.
         11    1    1    2    0    0 -0.79235641630E+02  0.90023808125E+02  0.16102551221E+03  0.20077795824E+03  0.00000000000E+00 0. -1.
</event>
<event>
 7    1  0.2564986E-009  0.1353350E+03  0.7561462E-02  0.1219748E+00
         -2   -1    0    0    0  501 -0.00000000000E+00  0.00000000000E+00  0.76886858913E+02  0.76886858913E+02  0.00000000000E+00 0.  1.
          2   -1    0    0  501    0  0.00000000000E+00 -0.00000000000E+00 -0.25192891896E+03  0.25192891896E+03  0.00000000000E+00 0. -1.
         25    2    1    2    0    0  0.86332252064E+02  0.13018716061E+02 -0.11268818545E+03  0.18965485199E+03  0.12509033148E+03 0.  0.
          5    1    3    3  502    0  0.56226514167E+02 -0.53054461414E+02 -0.41307473202E+02  0.87749510048E+02  0.41800000000E+01 0. -1.
         -5    1    3    3    0  502  0.30105737897E+02  0.66073177475E+02 -0.71380712244E+02  0.10190534194E+03  0.41800000000E+01 0. -1.
        -11    1    1    2    0    0 -0.72986811764E+02 -0.45085570843E+02 -0.27834142103E+02  0.90191589721E+02  0.00000000000E+00 0.  1.
         11    1    1    2    0    0 -0.13345440300E+02  0.32066854782E+02 -0.34519732496E+02  0.48969336161E+02  0.00000000000E+00 0. -1.
</event>
<event>
 7    1  0.2564986E-009  0.1906021E+03  0.7561462E-02  0.1157919E+00
          2   -1    0    0  501    0  0.00000000000E+00  0.00000000000E+00  0.10813463035E+04  0.10813463035E+04  0.00000000000E+00 0. -1.
         -2   -1    0    0    0  501 -0.00000000000E+00 -0.00000000000E+00 -0.39865753890E+02  0.39865753890E+02  0.00000000000E+00 0.  1.
         25    2    1    2    0    0  0.83776145944E+02  0.15408527496E+03  0.50175781076E+03  0.54604884618E+03  0.12509087567E+03 0.  0.
          5    1    3    3  502    0  0.48381201525E+02  0.16475939785E+02  0.26483198767E+03  0.26975109147E+03  0.41800000000E+01 0.  1.
         -5    1    3    3    0  502  0.35394944420E+02  0.13760933518E+03  0.23692582308E+03  0.27629775472E+03  0.41800000000E+01 0.  1.
        -11    1    1    2    0    0 -0.52990892083E+02 -0.14689425189E+03  0.35605358390E+03  0.38879314615E+03  0.00000000000E+00 0.  1.
         11    1    1    2    0    0 -0.30785253861E+02 -0.71910230685E+01  0.18366915496E+03  0.18637006506E+03  0.00000000000E+00 0. -1.
</event>
<event>
 7    1  0.2564986E-009  0.8081863E+02  0.7561462E-02  0.1326744E+00
          1   -1    0    0  501    0  0.00000000000E+00  0.00000000000E+00  0.90603999756E+02  0.90603999756E+02  0.00000000000E+00 0. -1.
         -1   -1    0    0    0  501 -0.00000000000E+00 -0.00000000000E+00 -0.13742133494E+03  0.13742133494E+03  0.00000000000E+00 0.  1.
         25    2    1    2    0    0  0.76644922987E+01 -0.97801881357E+01 -0.42115085218E+01  0.12577850265E+03  0.12509235949E+03 0.  0.
          5    1    3    3  502    0 -0.11428377882E+02 -0.41104024876E+02  0.46373991802E+02  0.63151945320E+02  0.41800000000E+01 0.  1.
         -5    1    3    3    0  502  0.19092870181E+02  0.31323836740E+02 -0.50585500323E+02  0.62626557329E+02  0.41800000000E+01 0.  1.
        -11    1    1    2    0    0 -0.28236234293E+02  0.37741368401E+02 -0.47818813550E+02  0.67144134108E+02  0.00000000000E+00 0.  1.
         11    1    1    2    0    0  0.20571741994E+02 -0.27961180265E+02  0.52129868863E+01  0.35102697942E+02  0.00000000000E+00 0. -1.
</event>
<event>
 7    1  0.2564986E-009  0.1097856E+03  0.7561462E-02  0.1260967E+00
         -1   -1    0    0    0  501 -0.00000000000E+00  0.00000000000E+00  0.77661751495E+03  0.77661751495E+03  0.00000000000E+00 0.  1.
          1   -1    0    0  501    0  0.00000000000E+00 -0.00000000000E+00 -0.17479588026E+02  0.17479588026E+02  0.00000000000E+00 0. -1.
         25    2    1    2    0    0 -0.25340996490E+02  0.20805485172E+02  0.51494540398E+03  0.53093394145E+03  0.12508815605E+03 0.  0.
          5    1    3    3  502    0 -0.13381620051E+02 -0.52772507372E+02  0.21023944688E+03  0.21721441645E+03  0.41800000000E+01 0.  1.
         -5    1    3    3    0  502 -0.11959376439E+02  0.73577992544E+02  0.30470595710E+03  0.31371952500E+03  0.41800000000E+01 0.  1.
        -11    1    1    2    0    0 -0.75135939350E+01 -0.47428777362E+02  0.77339365326E+02  0.91034721096E+02  0.00000000000E+00 0. -1.
         11    1    1    2    0    0  0.32854590425E+02  0.26623292190E+02  0.16685315762E+03  0.17212844043E+03  0.00000000000E+00 0.  1.
</event>
<event>
 7    1  0.2564986E-009  0.2448746E+03  0.7561462E-02  0.1116587E+00
         -2   -1    0    0    0  501 -0.00000000000E+00  0.00000000000E+00  0.62535931240E+03  0.62535931240E+03  0.00000000000E+00 0.  1.
          2   -1    0    0  501    0  0.00000000000E+00 -0.00000000000E+00 -0.21394569227E+03  0.21394569227E+03  0.00000000000E+00 0. -1.
         25    2    1    2    0    0 -0.14713689579E+03  0.17996916621E+03  0.50785777903E+03  0.57236846499E+03  0.12509184268E+03 0.  0.
          5    1    3    3  502    0 -0.91710278745E+02  0.28790016063E+02  0.13104579951E+03  0.16257341180E+03  0.41800000000E+01 0. -1.
         -5    1    3    3    0  502 -0.55426617044E+02  0.15117915015E+03  0.37681197951E+03  0.40979505319E+03  0.41800000000E+01 0. -1.
        -11    1    1    2    0    0  0.10974186080E+03 -0.13455577957E+03 -0.26665983265E+02  0.17566903111E+03  0.00000000000E+00 0.  1.
         11    1    1    2    0    0  0.37395034988E+02 -0.45413386642E+02 -0.69778175629E+02  0.91267508578E+02  0.00000000000E+00 0. -1.
</event>
<event>
 7    1  0.2564986E-009  0.1110974E+03  0.7561462E-02  0.1258551E+00
          2   -1    0    0  501    0  0.00000000000E+00  0.00000000000E+00  0.28773429718E+03  0.28773429718E+03  0.00000000000E+00 0. -1.
         -2   -1    0    0    0  501 -0.00000000000E+00 -0.00000000000E+00 -0.55983163855E+02  0.55983163855E+02  0.00000000000E+00 0.  1.
         25    2    1    2    0    0 -0.16034607460E+02 -0.40097338322E+02  0.60913311335E+02  0.14567932280E+03  0.12508848235E+03 0.  0.
          5    1    3    3  502    0  0.45871514778E+02 -0.50006282807E+02  0.20657366748E+02  0.71056480276E+02  0.41800000000E+01 0. -1.
         -5    1    3    3    0  502 -0.61906122238E+02  0.99089444854E+01  0.40255944586E+02  0.74622842521E+02  0.41800000000E+01 0. -1.
        -11    1    1    2    0    0 -0.23762200162E+02 -0.11347666378E+02  0.17889240609E+02  0.31834519289E+02  0.00000000000E+00 0.  1.
         11    1    1    2    0    0  0.39796807622E+02  0.51445004700E+02  0.15294858138E+03  0.16620361895E+03  0.00000000000E+00 0. -1.
</event>
<event>
 7    1  0.2564986E-009  0.8428171E+02  0.7561462E-02  0.1317322E+00
          1   -1    0    0  501    0  0.00000000000E+00  0.00000000000E+00  0.38125272599E+02  0.38125272599E+02  0.00000000000E+00 0. -1.
         -1   -1    0    0    0  501 -0.00000000000E+00 -0.00000000000E+00 -0.38179001098E+03  0.38179001098E+03  0.00000000000E+00 0.  1.
         25    2    1    2    0    0  0.33279543496E+02 -0.10859168359E+02 -0.12428392366E+03  0.17977656909E+03  0.12509065336E+03 0.  0.
          5    1    3    3  502    0  0.53911450821E+02 -0.16902185288E+02 -0.14117505365E+03  0.15211836369E+03  0.41800000000E+01 0.  1.
         -5    1    3    3    0  502 -0.20631907325E+02  0.60430169291E+01  0.16891129989E+02  0.27658205398E+02  0.41800000000E+01 0.  1.
        -11    1    1    2    0    0 -0.16059991604E+02 -0.36359445791E+02 -0.14514361770E+03  0.15048788120E+03  0.00000000000E+00 0.  1.
         11    1    1    2    0    0 -0.17219551892E+02  0.47218614150E+02 -0.74237197016E+02  0.89650833294E+02  0.00000000000E+00 0. -1.
</event>
<event>
 7    1  0.2564986E-009  0.2466723E+03  0.7561462E-02  0.1115426E+00
          4   -1    0    0  501    0  0.00000000000E+00  0.00000000000E+00  0.10838668224E+03  0.10838668224E+03  0.00000000000E+00 0. -1.
         -4   -1    0    0    0  501 -0.00000000000E+00 -0.00000000000E+00 -0.77270016207E+03  0.77270016207E+03  0.00000000000E+00 0.  1.
         25    2    1    2    0    0  0.23343731955E+03  0.60612053767E+02 -0.51832404673E+03  0.58521349033E+03  0.12509280005E+03 0.  0.
          5    1    3    3  502    0  0.14570525454E+03  0.32432950842E+02 -0.43849645828E+03  0.46322622317E+03  0.41800000000E+01 0.  1.
         -5    1    3    3    0  502  0.87732065011E+02  0.28179102926E+02 -0.79827588441E+02  0.12198726716E+03  0.41800000000E+01 0.  1.
        -11    1    1    2    0    0 -0.18218934138E+03 -0.77253108531E+02 -0.87575633732E+02  0.21640353627E+03  0.00000000000E+00 0. -1.
         11    1    1    2    0    0 -0.51247978172E+02  0.16641054764E+02 -0.58413799375E+02  0.79469817717E+02  0.00000000000E+00 0.  1.
</event>
<event>
 7    1  0.2832814E-009  0.1674390E+03  0.7561462E-02  0.1180545E+00
         -2   -1    0    0    0  501 -0.00000000000E+00  0.00000000000E+00  0.87311848854E+02  0.87311848854E+02  0.00000000000E+00 0.  1.
          2   -1    0    0  501    0  0.00000000000E+00 -0.00000000000E+00 -0.57244352413E+03  0.57244352413E+03  0.00000000000E+00 0. -1.
         25    2    1    2    0    0  0.12750459825E+03 -0.78866197903E+02 -0.66948292373E+02  0.20641487364E+03  0.12509087282E+03 0.  0.
          5    1    3    3  502    0  0.10011085315E+02 -0.40380143315E+02  0.28128029639E+02  0.50392819476E+02  0.41800000000E+01 0. -1.
         -5    1    3    3    0  502  0.11749351293E+03 -0.38486054588E+02 -0.95076322012E+02  0.15602205417E+03  0.41800000000E+01 0. -1.
        -11    1    1    2    0    0 -0.54134168033E+02  0.79266033768E+02 -0.17841315911E+03  0.20259532967E+03  0.00000000000E+00 0. -1.
         11    1    1    2    0    0 -0.73370430216E+02 -0.39983586464E+00 -0.23977022379E+03  0.25074516968E+03  0.00000000000E+00 0.  1.
</event>
<event>
 7    1  0.2564986E-009  0.1100685E+03  0.7561462E-02  0.1260443E+00
          1   -1    0    0  501    0  0.00000000000E+00  0.00000000000E+00  0.18565338645E+03  0.18565338645E+03  0.00000000000E+00 0. -1.
         -1   -1    0    0    0  501 -0.00000000000E+00 -0.00000000000E+00 -0.85295800378E+02  0.85295800378E+02  0.00000000000E+00 0.  1.
         25    2    1    2    0    0  0.46802269101E+02 -0.17402886004E+02  0.15040620744E+02  0.13553280117E+03  0.12509838962E+03 0.  0.
          5    1    3    3  502    0  0.18786395803E+02  0.49265037372E+02  0.31073937675E+02  0.61343578125E+02  0.41800000000E+01 0. -1.
         -5    1    3    3    0  502  0.28015873298E+02 -0.66667923377E+02 -0.16033316931E+02  0.74189223044E+02  0.41800000000E+01 0. -1.
        -11    1    1    2    0    0 -0.34720253520E+02 -0.30003703541E+02  0.12269674385E+02  0.47500138317E+02  0.00000000000E+00 0.  1.
         11    1    1    2    0    0 -0.12082015580E+02  0.47406589545E+02  0.73047290948E+02  0.87916247347E+02  0.00000000000E+00 0. -1.
</event>
<event>
 7    1  0.2717805E-009  0.1264248E+03  0.7561462E-02  0.1232859E+00
          1   -1    0    0  501    0  0.00000000000E+00  0.00000000000E+00  0.87634683774E+03  0.87634683774E+03  0.00000000000E+00 0. -1.
         -1   -1    0    0    0  501 -0.00000000000E+00 -0.00000000000E+00 -0.20736567224E+02  0.20736567224E+02  0.00000000000E+00 0.  1.
         25    2    1    2    0    0  0.18404248042E+02  0.66284578370E+02  0.60443159677E+03  0.62106085107E+03  0.12508662556E+03 0.  0.
          5    1    3    3  502    0  0.36775816627E+02  0.98227731505E+02  0.41820812882E+03  0.43118054147E+03  0.41800000000E+01 0.  1.
         -5    1    3    3    0  502 -0.18371568586E+02 -0.31943153135E+02  0.18622346794E+03  0.18988030961E+03  0.41800000000E+01 0.  1.
        -11    1    1    2    0    0  0.13081375745E+02 -0.76563690673E+02  0.20477389227E+03  0.21901020085E+03  0.00000000000E+00 0. -1.
         11    1    1    2    0    0 -0.31485623787E+02  0.10279112303E+02  0.46404781485E+02  0.57012353044E+02  0.00000000000E+00 0.  1.
</event>
<event>
 7    1  0.2564986E-009  0.1087946E+03  0.7561462E-02  0.1262819E+00
         -1   -1    0    0    0  501 -0.00000000000E+00  0.00000000000E+00  0.37152917168E+03  0.37152917168E+03  0.00000000000E+00 0.  1.
          1   -1    0    0  501    0  0.00000000000E+00 -0.00000000000E+00 -0.33855281896E+02  0.33855281896E+02  0.00000000000E+00 0. -1.
         25    2    1    2    0    0 -0.31348108793E+02  0.15386674246E+02  0.15975989538E+03  0.20588869233E+03  0.12508987085E+03 0.  0.
          5    1    3    3  502    0 -0.45068550686E+02 -0.46595460430E+02  0.66207220393E+02  0.92753326764E+02  0.41800000000E+01 0. -1.
         -5    1    3    3    0  502  0.13720441893E+02  0.61982134676E+02  0.93552674988E+02  0.11313536557E+03  0.41800000000E+01 0. -1.
        -11    1    1    2    0    0  0.26783670563E+02  0.31814666014E+02  0.99738488910E+02  0.10806157575E+03  0.00000000000E+00 0.  1.
         11    1    1    2    0    0  0.45644382295E+01 -0.47201340261E+02  0.78175505492E+02  0.91434185498E+02  0.00000000000E+00 0. -1.
</event>
<event>
 7    1  0.2564986E-009  0.8358844E+02  0.7561462E-02  0.1319166E+00
         -2   -1    0    0    0  501 -0.00000000000E+00  0.00000000000E+00  0.31612408629E+02  0.31612408629E+02  0.00000000000E+00 0.  1.
          2   -1    0    0  501    0  0.00000000000E+00 -0.00000000000E+00 -0.47795250066E+03  0.47795250066E+03  0.00000000000E+00 0. -1.
         25    2    1    2    0    0  0.45735650217E+02 -0.20255760768E+02 -0.30681319644E+03  0.33508554246E+03  0.12508372281E+03 0.  0.
          5    1    3    3  502    0  0.33199966524E+02 -0.38236823660E+02 -0.30854801789E+03  0.31270376430E+03  0.41800000000E+01 0. -1.
         -5    1    3    3    0  502  0.12535683692E+02  0.17981062892E+02  0.17348214500E+01  0.22381778165E+02  0.41800000000E+01 0. -1.
        -11    1    1    2    0    0 -0.55200287471E+02 -0.15280574903E+02 -0.44333651968E+02  0.72429554762E+02  0.00000000000E+00 0.  1.
         11    1    1    2    0    0  0.94646372540E+01  0.35536335670E+02 -0.95193243617E+02  0.10204981206E+03  0.00000000000E+00 0. -1.
</event>
<event>
 7    1  0.2564986E-009  0.1096244E+03  0.7561462E-02  0.1261267E+00
          2   -1    0    0  501    0  0.00000000000E+00  0.00000000000E+00  0.60340022952E+03  0.60340022952E+03  0.00000000000E+00 0. -1.
         -2   -1    0    0    0  501 -0.00000000000E+00 -0.00000000000E+00 -0.85825992578E+02  0.85825992578E+02  0.00000000000E+00 0.  1.
         25    2    1    2    0    0 -0.95541566289E+02 -0.14630764693E+01  0.53377092190E+03  0.55649723355E+03  0.12508973736E+03 0.  0.
          5    1    3    3  502    0 -0.64845658307E+02 -0.13841642502E+02  0.92069273915E+02  0.11353754475E+03  0.41800000000E+01 0.  1.
         -5    1    3    3    0  502 -0.30695907983E+02  0.12378566033E+02  0.44170164799E+03  0.44295968880E+03  0.41800000000E+01 0.  1.
        -11    1    1    2    0    0  0.98891522511E+02 -0.17297268538E+02  0.93834722672E+01  0.10083044320E+03  0.00000000000E+00 0. -1.
         11    1    1    2    0    0 -0.33499562224E+01  0.18760345007E+02 -0.25580157232E+02  0.31898545351E+02  0.00000000000E+00 0.  1.
</event>
<event>
 7    1  0.2564986E-009  0.9400350E+02  0.7561462E-02  0.1293436E+00
          1   -1    0    0  501    0  0.00000000000E+00  0.00000000000E+00  0.33609449053E+04  0.33609449053E+04  0.00000000000E+00 0. -1.
         -1   -1    0    0    0  501 -0.00000000000E+00 -0.00000000000E+00 -0.12602345704E+02  0.12602345704E+02  0.00000000000E+00 0.  1.
         25    2    1    2    0    0 -0.42240894898E+02 -0.53132221972E+02  0.30671831399E+04  0.30704827870E+04  0.12507919632E+03 0.  0.
          5    1    3    3  502    0  0.14869087505E+01 -0.33931463150E+02  0.20053456732E+03  0.20343338020E+03  0.41800000000E+01 0. -1.
         -5    1    3    3    0  502 -0.43727803649E+02 -0.19200758823E+02  0.28666485726E+04  0.28670494068E+04  0.41800000000E+01 0. -1.
        -11    1    1    2    0    0 -0.24651618310E+02  0.14489117281E+02  0.13228342464E+03  0.13533861696E+03  0.00000000000E+00 0. -1.
         11    1    1    2    0    0  0.66892513208E+02  0.38643104691E+02  0.14887599501E+03  0.16772584701E+03  0.00000000000E+00 0.  1.
</event>
<event>
 7    1  0.2564986E-009  0.1281218E+03  0.7561462E-02  0.1230270E+00
         -2   -1    0    0    0  501 -0.00000000000E+00  0.00000000000E+00  0.12532175172E+03  0.12532175172E+03  0.00000000000E+00 0.  1.
          2   -1    0    0  501    0  0.00000000000E+00 -0.00000000000E+00 -0.25410229369E+03  0.25410229369E+03  0.00000000000E+00 0. -1.
         25    2    1    2    0    0  0.12467815339E+02 -0.10062757612E+03 -0.17232316833E+03  0.23584760882E+03  0.12508982671E+03 0.  0.
          5    1    3    3  502    0 -0.23811229854E+02 -0.11324838299E+03 -0.96462645961E+02  0.15071391901E+03  0.41800000000E+01 0.  1.
         -5    1    3    3    0  502  0.36279045193E+02  0.12620806873E+02 -0.75860522372E+02  0.85133689811E+02  0.41800000000E+01 0.  1.
        -11    1    1    2    0    0 -0.39816726213E+01  0.97431695943E+01  0.50922476254E+02  0.51998862088E+02  0.00000000000E+00 0.  1.
         11    1    1    2    0    0 -0.84861427175E+01  0.90884406524E+02 -0.73798498938E+01  0.91577574503E+02  0.00000000000E+00 0. -1.
</event>
<event>
 7    1  0.2564986E-009  0.2027345E+03  0.7561462E-02  0.1147452E+00
         -1   -1    0    0    0  501 -0.00000000000E+00  0.00000000000E+00  0.51275047515E+03  0.51275047515E+03  0.00000000000E+00 0.  1.
          1   -1    0    0  501    0  0.00000000000E+00 -0.00000000000E+00 -0.89460823850E+02  0.89460823850E+02  0.00000000000E+00 0. -1.
         25    2    1    2    0    0  0.17772395542E+03  0.49193742094E+02  0.22386290042E+03  0.31586215626E+03  0.12509386468E+03 0.  0.
          5    1    3    3  502    0  0.11724258491E+03  0.70414173299E+02  0.80457668457E+02  0.15872897760E+03  0.41800000000E+01 0.  1.
         -5    1    3    3    0  502  0.60481370509E+02 -0.21220431205E+02  0.14340523196E+03  0.15713317865E+03  0.41800000000E+01 0.  1.
        -11    1    1    2    0    0 -0.53106252439E+02  0.25722100252E+02  0.44730446609E+02  0.74045346534E+02  0.00000000000E+00 0. -1.
         11    1    1    2    0    0 -0.12461770298E+03 -0.74915842346E+02  0.15469630427E+03  0.21230379621E+03  0.00000000000E+00 0.  1.
</event>
<event>
 7    1  0.2564986E-009  0.1074242E+03  0.7561462E-02  0.1265415E+00
         -2   -1    0    0    0  501 -0.00000000000E+00  0.00000000000E+00  0.49835518999E+02  0.49835518999E+02  0.00000000000E+00 0.  1.
          2   -1    0    0  501    0  0.00000000000E+00 -0.00000000000E+00 -0.35292976935E+03  0.35292976935E+03  0.00000000000E+00 0. -1.
         25    2    1    2    0    0  0.61946496685E+02 -0.37316814999E+02 -0.19886420358E+03  0.24581329459E+03  0.12508913302E+03 0.  0.
          5    1    3    3  502    0  0.13563461274E+02 -0.60907255792E+02 -0.31635407498E+02  0.70085181725E+02  0.41800000000E+01 0. -1.
         -5    1    3    3    0  502  0.48383035411E+02  0.23590440793E+02 -0.16722879608E+03  0.17572811287E+03  0.41800000000E+01 0. -1.
        -11    1    1    2    0    0 -0.75937706305E+02  0.36632271769E+02 -0.11257478508E+03  0.14064686562E+03  0.00000000000E+00 0.  1.
         11    1    1    2    0    0  0.13991209620E+02  0.68454322998E+00  0.83447383082E+01  0.16305128135E+02  0.00000000000E+00 0. -1.
</event>
<event>
 7    1  0.2564986E-009  0.1718835E+03  0.7561462E-02  0.1175898E+00
          3   -1    0    0  501    0  0.00000000000E+00  0.00000000000E+00  0.40566068324E+03  0.40566068324E+03  0.00000000000E+00 0. -1.
         -3   -1    0    0    0  501 -0.00000000000E+00 -0.00000000000E+00 -0.10934660145E+03  0.10934660145E+03  0.00000000000E+00 0.  1.
         25    2    1    2    0    0 -0.12587010407E+03 -0.90476689662E+02  0.26683058096E+03  0.33297933032E+03  0.12508941208E+03 0.  0.
          5    1    3    3  502    0 -0.87603711467E+02 -0.29318349946E+02  0.23771810538E+03  0.25507125658E+03  0.41800000000E+01 0. -1.
         -5    1    3    3    0  502 -0.38266392607E+02 -0.61158339716E+02  0.29112475575E+02  0.77908073741E+02  0.41800000000E+01 0. -1.
        -11    1    1    2    0    0  0.18780608535E+02 -0.18414340914E+02  0.96613968687E+01  0.28020381826E+02  0.00000000000E+00 0.  1.
         11    1    1    2    0    0  0.10708949554E+03  0.10889103058E+03  0.19822103970E+02  0.15400757254E+03  0.00000000000E+00 0. -1.
</event>
<event>
 7    1  0.2564986E-009  0.1408066E+03  0.7561462E-02  0.1212248E+00
          1   -1    0    0  501    0  0.00000000000E+00  0.00000000000E+00  0.20767516309E+03  0.20767516309E+03  0.00000000000E+00 0. -1.
         -1   -1    0    0    0  501 -0.00000000000E+00 -0.00000000000E+00 -0.11331841472E+03  0.11331841472E+03  0.00000000000E+00 0.  1.
         25    2    1    2    0    0 -0.34957104765E+02 -0.91089573764E+02  0.92359319346E+00  0.15864346572E+03  0.12509031364E+03 0.  0.
          5    1    3    3  502    0 -0.47369816081E+02 -0.11835311291E+03  0.72010835665E+01  0.12775244348E+03  0.41800000000E+01 0. -1.
         -5    1    3    3    0  502  0.12412711317E+02  0.27263539148E+02 -0.62774903731E+01  0.30891022231E+02  0.41800000000E+01 0. -1.
        -11    1    1    2    0    0 -0.20883092810E+01  0.86458453631E+02  0.35623475346E+02  0.93533187883E+02  0.00000000000E+00 0. -1.
         11    1    1    2    0    0  0.37045414046E+02  0.46311201337E+01  0.57809679826E+02  0.68816924206E+02  0.00000000000E+00 0.  1.
</event>
<event>
 7    1  0.2564986E-009  0.2307118E+03  0.7561462E-02  0.1126140E+00
          2   -1    0    0  501    0  0.00000000000E+00  0.00000000000E+00  0.66752705234E+03  0.66752705234E+03  0.00000000000E+00 0. -1.
         -2   -1    0    0    0  501 -0.00000000000E+00 -0.00000000000E+00 -0.98888864043E+02  0.98888864043E+02  0.00000000000E+00 0.  1.
         25    2    1    2    0    0  0.22453814136E+03 -0.43461040531E+02  0.22860894627E+03  0.34671709442E+03  0.12507779293E+03 0.  0.
          5    1    3    3  502    0  0.22352795636E+03 -0.40768507321E+02  0.16001843467E+03  0.27793918453E+03  0.41800000000E+01 0. -1.
         -5    1    3    3    0  502  0.10101850020E+01 -0.26925332107E+01  0.68590511594E+02  0.68777909895E+02  0.41800000000E+01 0. -1.
        -11    1    1    2    0    0 -0.14860298592E+03  0.22293764785E+02  0.28918099003E+03  0.32589185993E+03  0.00000000000E+00 0.  1.
         11    1    1    2    0    0 -0.75935155435E+02  0.21167275746E+02  0.50848252001E+02  0.93806962029E+02  0.00000000000E+00 0. -1.
</event>
<event>
 7    1  0.2564986E-009  0.1219156E+03  0.7561462E-02  0.1239970E+00
         -2   -1    0    0    0  501 -0.00000000000E+00  0.00000000000E+00  0.29709313817E+02  0.29709313817E+02  0.00000000000E+00 0.  1.
          2   -1    0    0  501    0  0.00000000000E+00 -0.00000000000E+00 -0.67164330111E+03  0.67164330111E+03  0.00000000000E+00 0. -1.
         25    2    1    2    0    0  0.52762246653E+02  0.40910913356E+02 -0.48646171573E+03  0.50670527772E+03  0.12509068750E+03 0.  0.
          5    1    3    3  502    0 -0.26156809804E+02  0.44496614915E+02 -0.29553454787E+03  0.30003711241E+03  0.41800000000E+01 0. -1.
         -5    1    3    3    0  502  0.78919056458E+02 -0.35857015589E+01 -0.19092716785E+03  0.20666816531E+03  0.41800000000E+01 0. -1.
        -11    1    1    2    0    0 -0.25455220774E+02  0.28579939969E+02 -0.29951951431E+02  0.48599389171E+02  0.00000000000E+00 0.  1.
         11    1    1    2    0    0 -0.27307025880E+02 -0.69490853325E+02 -0.12552032014E+03  0.14604794803E+03  0.00000000000E+00 0. -1.
</event>
<event>
 7    1  0.2564986E-009  0.1649892E+03  0.7561462E-02  0.1183176E+00
         -2   -1    0    0    0  501 -0.00000000000E+00  0.00000000000E+00  0.70926471066E+02  0.70926471066E+02  0.00000000000E+00 0.  1.
          2   -1    0    0  501    0  0.00000000000E+00 -0.00000000000E+00 -0.48812621880E+03  0.48812621880E+03  0.00000000000E+00 0. -1.
         25    2    1    2    0    0 -0.15411720023E+03 -0.31697601429E+00 -0.22371657535E+03  0.29907933329E+03  0.12508848722E+03 0.  0.
          5    1    3    3  502    0 -0.10241955747E+03 -0.21039833387E+02 -0.48799212731E+02  0.11546114457E+03  0.41800000000E+01 0. -1.
         -5    1    3    3    0  502 -0.51697642755E+02  0.20722857372E+02 -0.17491736262E+03  0.18361818872E+03  0.41800000000E+01 0. -1.
        -11    1    1    2    0    0  0.45619494671E+02 -0.32636731701E+02 -0.38898468857E+02  0.68259691104E+02  0.00000000000E+00 0.  1.
         11    1    1    2    0    0  0.10849770556E+03  0.32953707715E+02 -0.15458470353E+03  0.19171366547E+03  0.00000000000E+00 0. -1.
</event>
<event>
 7    1  0.2564986E-009  0.8856235E+02  0.7561462E-02  0.1306371E+00
          3   -1    0    0  501    0  0.00000000000E+00  0.00000000000E+00  0.28000215409E+03  0.28000215409E+03  0.00000000000E+00 0.  1.
         -3   -1    0    0    0  501 -0.00000000000E+00 -0.00000000000E+00 -0.47679471695E+02  0.47679471695E+02  0.00000000000E+00 0. -1.
         25    2    1    2    0    0 -0.24201058801E+02 -0.15016908617E+02  0.19424268049E+03  0.23278902729E+03  0.12509721623E+03 0.  0.
          5    1    3    3  502    0 -0.50686641290E+02 -0.31564567596E+02  0.32709911817E+02  0.68211936374E+02  0.41800000000E+01 0. -1.
         -5    1    3    3    0  502  0.26485582489E+02  0.16547658979E+02  0.16153276867E+03  0.16457709091E+03  0.41800000000E+01 0. -1.
        -11    1    1    2    0    0  0.87741469212E+01  0.48291359793E+02  0.29361647771E+02  0.57193945874E+02  0.00000000000E+00 0.  1.
         11    1    1    2    0    0  0.15426911880E+02 -0.33274451176E+02  0.87183541355E+01  0.37698652629E+02  0.00000000000E+00 0. -1.
</event>
<event>
 7    1  0.2564986E-009  0.9842113E+02  0.7561462E-02  0.1283652E+00
         -1   -1    0    0    0  501 -0.00000000000E+00  0.00000000000E+00  0.44872616588E+02  0.44872616588E+02  0.00000000000E+00 0.  1.
          1   -1    0    0  501    0  0.00000000000E+00 -0.00000000000E+00 -0.33572789829E+03  0.33572789829E+03  0.00000000000E+00 0. -1.
         25    2    1    2    0    0  0.28764798491E+02 -0.23494641194E+02 -0.93295000024E+02  0.16040867758E+03  0.12509026747E+03 0.  0.
          5    1    3    3  502    0  0.61429919111E+02 -0.34608865674E+02 -0.11534915802E+02  0.71567696818E+02  0.41800000000E+01 0.  1.
         -5    1    3    3    0  502 -0.32665120620E+02  0.11114224480E+02 -0.81760084222E+02  0.88840980763E+02  0.41800000000E+01 0.  1.
        -11    1    1    2    0    0 -0.24507079621E+02  0.54710679274E+02 -0.90201929668E+02  0.10830624864E+03  0.00000000000E+00 0. -1.
         11    1    1    2    0    0 -0.42577188705E+01 -0.31216038080E+02 -0.10735835201E+03  0.11188558866E+03  0.00000000000E+00 0.  1.
</event>
<event>
 7    1  0.2564986E-009  0.9357766E+02  0.7561462E-02  0.1294412E+00
          2   -1    0    0  501    0  0.00000000000E+00  0.00000000000E+00  0.56551895311E+03  0.56551895311E+03  0.00000000000E+00 0. -1.
         -2   -1    0    0    0  501 -0.00000000000E+00 -0.00000000000E+00 -0.29757881850E+02  0.29757881850E+02  0.00000000000E+00 0.  1.
         25    2    1    2    0    0 -0.28864205550E+02 -0.34244284139E+02  0.43221647108E+03  0.45217688601E+03  0.12508814897E+03 0.  0.
          5    1    3    3  502    0 -0.54093140381E+02 -0.37067438882E+01  0.39135065710E+03  0.39511089202E+03  0.41800000000E+01 0. -1.
         -5    1    3    3    0  502  0.25228934831E+02 -0.30537540251E+02  0.40865813984E+02  0.57065993988E+02  0.41800000000E+01 0. -1.
        -11    1    1    2    0    0  0.55079048366E+02  0.37344931692E+02  0.49447878913E+02  0.82906201342E+02  0.00000000000E+00 0.  1.
         11    1    1    2    0    0 -0.26214842815E+02 -0.31006475524E+01  0.54096721264E+02  0.60193747604E+02  0.00000000000E+00 0. -1.
</event>
<event>
 7    1  0.2564986E-009  0.1344835E+03  0.7561462E-02  0.1220951E+00
          1   -1    0    0  501    0  0.00000000000E+00  0.00000000000E+00  0.24693537005E+04  0.24693537005E+04  0.00000000000E+00 0. -1.
         -1   -1    0    0    0  501 -0.00000000000E+00 -0.00000000000E+00 -0.15993958237E+02  0.15993958237E+02  0.00000000000E+00 0.  1.
         25    2    1    2    0    0  0.89442914606E+02  0.54247096314E+02  0.20813729905E+04  0.20877510291E+04  0.12509217334E+03 0.  0.
          5    1    3    3  502    0  0.55775584107E+02  0.77828050253E+02  0.18654689520E+04  0.18679293360E+04  0.41800000000E+01 0. -1.
         -5    1    3    3    0  502  0.33667330499E+02 -0.23580953939E+02  0.21590403849E+03  0.21982169312E+03  0.41800000000E+01 0. -1.
        -11    1    1    2    0    0  0.14274976560E+02 -0.15547309981E+02  0.12722844293E+03  0.12896732336E+03  0.00000000000E+00 0. -1.
         11    1    1    2    0    0 -0.10371789117E+03 -0.38699786333E+02  0.24475830891E+03  0.26862930627E+03  0.00000000000E+00 0.  1.
</event>
<event>
 7    1  0.2564986E-009  0.8482474E+02  0.7561462E-02  0.1315891E+00
          3   -1    0    0  501    0  0.00000000000E+00  0.00000000000E+00  0.21814783411E+03  0.21814783411E+03  0.00000000000E+00 0. -1.
         -3   -1    0    0    0  501 -0.00000000000E+00 -0.00000000000E+00 -0.63624399564E+02  0.63624399564E+02  0.00000000000E+00 0.  1.
         25    2    1    2    0    0 -0.10646928491E+02  0.41928384756E+02  0.64393795031E+02  0.14719266535E+03  0.12509106027E+03 0.  0.
          5    1    3    3  502    0 -0.15992491422E+02 -0.24900146812E+02  0.73558316024E+02  0.79398207470E+02  0.41800000000E+01 0. -1.
         -5    1    3    3    0  502  0.53455629308E+01  0.66828531568E+02 -0.91645209935E+01  0.67794457883E+02  0.41800000000E+01 0. -1.
        -11    1    1    2    0    0  0.14556953666E+02  0.11788142870E+02  0.76861024303E+02  0.79110569896E+02  0.00000000000E+00 0. -1.
         11    1    1    2    0    0 -0.39100251752E+01 -0.53716527626E+02  0.13268615217E+02  0.55468998430E+02  0.00000000000E+00 0.  1.
</event>
<event>
 7    1  0.2564986E-009  0.1504904E+03  0.7561462E-02  0.1199872E+00
         -1   -1    0    0    0  501 -0.00000000000E+00  0.00000000000E+00  0.18574430816E+03  0.18574430816E+03  0.00000000000E+00 0.  1.
          1   -1    0    0  501    0  0.00000000000E+00 -0.00000000000E+00 -0.17543405076E+03  0.17543405076E+03  0.00000000000E+00 0. -1.
         25    2    1    2    0    0  0.11869719348E+03  0.76637789260E+02 -0.15739006308E+02  0.18936026009E+03  0.12508883763E+03 0.  0.
          5    1    3    3  502    0  0.11565675566E+03  0.39941908304E+02 -0.56008870577E+02  0.13463397473E+03  0.41800000000E+01 0.  1.
         -5    1    3    3    0  502  0.30404378187E+01  0.36695880956E+02  0.40269864269E+02  0.54726285362E+02  0.41800000000E+01 0.  1.
        -11    1    1    2    0    0 -0.77412650931E+02 -0.45635376834E+02 -0.30827333813E+02  0.95003319168E+02  0.00000000000E+00 0. -1.
         11    1    1    2    0    0 -0.41284542546E+02 -0.31002412426E+02  0.56876597524E+02  0.76814779667E+02  0.00000000000E+00 0.  1.
</event>
<event>
 7    1  0.2564986E-009  0.1146589E+03  0.7561462E-02  0.1252178E+00
         -2   -1    0    0    0  501 -0.00000000000E+00  0.00000000000E+00  0.28324401243E+03  0.28324401243E+03  0.00000000000E+00 0.  1.
          2   -1    0    0  501    0  0.00000000000E+00 -0.00000000000E+00 -0.78279930098E+02  0.78279930098E+02  0.00000000000E+00 0. -1.
         25    2    1    2    0    0  0.83367662836E+02 -0.57894957043E+02  0.11346111021E+03  0.19703691964E+03  0.12509248944E+03 0.  0.
          5    1    3    3  502    0  0.64210699794E+02 -0.58054417342E+01  0.12452723290E+03  0.14028977602E+03  0.41800000000E+01 0. -1.
         -5    1    3    3    0  502  0.19156963043E+02 -0.52089515309E+02 -0.11066122688E+02  0.56747143624E+02  0.41800000000E+01 0. -1.
        -11    1    1    2    0    0 -0.58792180928E+01  0.23586606259E+02  0.74085852678E+02  0.77971833166E+02  0.00000000000E+00 0.  1.
         11    1    1    2    0    0 -0.77488444744E+02  0.34308350784E+02  0.17417119441E+02  0.86515189718E+02  0.00000000000E+00 0. -1.
</event>
<event>
 7    1  0.2564986E-009  0.8317022E+02  0.7561462E-02  0.1320288E+00
          1   -1    0    0  501    0  0.00000000000E+00  0.00000000000E+00  0.54152684934E+02  0.54152684934E+02  0.00000000000E+00 0. -1.
         -1   -1    0    0    0  501 -0.00000000000E+00 -0.00000000000E+00 -0.24919873387E+03  0.24919873387E+03  0.00000000000E+00 0.  1.
         25    2    1    2    0    0 -0.10875577770E+02  0.84799487669E+01 -0.16054395359E+03  0.20399046333E+03  0.12509020895E+03 0.  0.
          5    1    3    3  502    0 -0.67414541777E+01  0.47641203767E+02 -0.11325988967E+02  0.49607276955E+02  0.41800000000E+01 0.  1.
         -5    1    3    3    0  502 -0.41341235928E+01 -0.39161255000E+02 -0.14921796462E+03  0.15438318638E+03  0.41800000000E+01 0.  1.
        -11    1    1    2    0    0 -0.33510116966E+02 -0.54916894953E+01 -0.42250443969E+02  0.54205042276E+02  0.00000000000E+00 0.  1.
         11    1    1    2    0    0  0.44385694736E+02 -0.29882592716E+01  0.77483486159E+01  0.45155913200E+02  0.00000000000E+00 0. -1.
</event>
<event>
 7    1  0.2564986E-009  0.1320626E+03  0.7561462E-02  0.1224427E+00
         -1   -1    0    0    0  501 -0.00000000000E+00  0.00000000000E+00  0.31395738693E+02  0.31395738693E+02  0.00000000000E+00 0.  1.
          1   -1    0    0  501    0  0.00000000000E+00 -0.00000000000E+00 -0.68512133873E+03  0.68512133873E+03  0.00000000000E+00 0. -1.
         25    2    1    2    0    0  0.38689370521E+02 -0.89286400207E+02 -0.39699282356E+03  0.42745740378E+03  0.12509037306E+03 0.  0.
          5    1    3    3  502    0 -0.18044646219E+02 -0.87113852219E+02 -0.31701120784E+03  0.32928408829E+03  0.41800000000E+01 0.  1.
         -5    1    3    3    0  502  0.56734016740E+02 -0.21725479878E+01 -0.79981615725E+02  0.98173315490E+02  0.41800000000E+01 0.  1.
        -11    1    1    2    0    0 -0.50919001083E+02  0.33330179916E+02 -0.65389919133E+02  0.89327974839E+02  0.00000000000E+00 0.  1.
         11    1    1    2    0    0  0.12229630562E+02  0.55956220291E+02 -0.19134285734E+03  0.19973169881E+03  0.00000000000E+00 0. -1.
</event>
<event>
 7    1  0.2564986E-009  0.9029778E+02  0.7561462E-02  0.1302132E+00
          1   -1    0    0  501    0  0.00000000000E+00  0.00000000000E+00  0.34471843863E+03  0.34471843863E+03  0.00000000000E+00 0. -1.
         -1   -1    0    0    0  501 -0.00000000000E+00 -0.00000000000E+00 -0.41438800308E+02  0.41438800308E+02  0.00000000000E+00 0.  1.
         25    2    1    2    0    0 -0.19323748674E+02  0.26372260673E+02  0.22079327227E+03  0.25586357158E+03  0.12509034651E+03 0.  0.
          5    1    3    3  502    0 -0.17665201169E+02  0.76079528337E+02  0.11761467541E+03  0.14124743621E+03  0.41800000000E+01 0. -1.
         -5    1    3    3    0  502 -0.16585475048E+01 -0.49707267664E+02  0.10317859686E+03  0.11461613538E+03  0.41800000000E+01 0. -1.
        -11    1    1    2    0    0 -0.12550602357E+02 -0.12481383896E+02  0.92446311347E+02  0.94125570623E+02  0.00000000000E+00 0. -1.
         11    1    1    2    0    0  0.31874351031E+02 -0.13890876777E+02 -0.99599452879E+01  0.36168096735E+02  0.00000000000E+00 0.  1.
</event>
<event>
 7    1  0.2564986E-009  0.9547778E+02  0.7561462E-02  0.1290104E+00
          2   -1    0    0  501    0  0.00000000000E+00  0.00000000000E+00  0.37750164605E+03  0.37750164605E+03  0.00000000000E+00 0. -1.
         -2   -1    0    0    0  501 -0.00000000000E+00 -0.00000000000E+00 -0.65354049941E+02  0.65354049941E+02  0.00000000000E+00 0.  1.
         25    2    1    2    0    0  0.88282828628E+01 -0.72534724475E+02  0.28842698423E+03  0.32276231355E+03  0.12508461528E+03 0.  0.
          5    1    3    3  502    0  0.21776444138E+02 -0.17130738818E+02  0.25521570012E+03  0.25674929741E+03  0.41800000000E+01 0.  1.
         -5    1    3    3    0  502 -0.12948161275E+02 -0.55403985657E+02  0.33211284108E+02  0.66013016135E+02  0.41800000000E+01 0.  1.
        -11    1    1    2    0    0  0.28997044467E+02  0.63965361734E+01  0.31760656489E+02  0.43479691391E+02  0.00000000000E+00 0. -1.
         11    1    1    2    0    0 -0.37825327330E+02  0.66138188302E+02 -0.80400446121E+01  0.76613691053E+02  0.00000000000E+00 0.  1.
</event>
<event>
 7    1  0.2564986E-009  0.7450232E+02  0.7561462E-02  0.1345419E+00
          2   -1    0    0  501    0  0.00000000000E+00  0.00000000000E+00  0.50617549917E+03  0.50617549917E+03  0.00000000000E+00 0. -1.
         -2   -1    0    0    0  501 -0.00000000000E+00 -0.00000000000E+00 -0.24591512445E+02  0.24591512445E+02  0.00000000000E+00 0.  1.
         25    2    1    2    0    0  0.63442498499E+01 -0.23848758109E+02  0.32457831251E+03  0.34872071970E+03  0.12508415818E+03 0.  0.
          5    1    3    3  502    0 -0.25377761863E+02  0.99805969060E+01  0.79838240038E+01  0.28720323075E+02  0.41800000000E+01 0.  1.
         -5    1    3    3    0  502  0.31722011713E+02 -0.33829355015E+02  0.31659448850E+03  0.32000039662E+03  0.41800000000E+01 0.  1.
        -11    1    1    2    0    0  0.25814070813E+02  0.32544533509E+02  0.31328051700E+02  0.52028451222E+02  0.00000000000E+00 0.  1.
         11    1    1    2    0    0 -0.32158320663E+02 -0.86957753997E+01  0.12567762252E+03  0.13001784070E+03  0.00000000000E+00 0. -1.
</event>
<event>
 7    1  0.2564986E-009  0.1161573E+03  0.7561462E-02  0.1249574E+00
          4   -1    0    0  501    0  0.00000000000E+00  0.00000000000E+00  0.56535528284E+02  0.56535528284E+02  0.00000000000E+00 0. -1.
         -4   -1    0    0    0  501 -0.00000000000E+00 -0.00000000000E+00 -0.30106013110E+03  0.30106013110E+03  0.00000000000E+00 0.  1.
         25    2    1    2    0    0 -0.65341879976E+02 -0.23245520153E+02 -0.13854409329E+03  0.19912825175E+03  0.12509068461E+03 0.  0.
          5    1    3    3  502    0 -0.31328985616E+02 -0.65701011063E+02 -0.12198164999E+03  0.14210954764E+03  0.41800000000E+01 0.  1.
         -5    1    3    3    0  502 -0.34012894360E+02  0.42455490910E+02 -0.16562443295E+02  0.57018704116E+02  0.41800000000E+01 0.  1.
        -11    1    1    2    0    0 -0.16283400025E+02  0.16115892224E+02 -0.60638930197E+02  0.64822457174E+02  0.00000000000E+00 0.  1.
         11    1    1    2    0    0  0.81625280001E+02  0.71296279284E+01 -0.45341579325E+02  0.93644950453E+02  0.00000000000E+00 0. -1.
</event>
<event>
 7    1  0.2564986E-009  0.2401363E+03  0.7561462E-02  0.1119702E+00
         -4   -1    0    0    0  501 -0.00000000000E+00  0.00000000000E+00  0.85472313040E+03  0.85472313040E+03  0.00000000000E+00 0. -1.
          4   -1    0    0  501    0  0.00000000000E+00 -0.00000000000E+00 -0.89215808013E+02  0.89215808013E+02  0.00000000000E+00 0.  1.
         25    2    1    2    0    0  0.78096443811E+02 -0.21890682727E+03  0.21864743258E+03  0.34274280216E+03  0.12508667034E+03 0.  0.
          5    1    3    3  502    0 -0.11615132221E+02 -0.39384203307E+02  0.10327188499E+03  0.11121412409E+03  0.41800000000E+01 0. -1.
         -5    1    3    3    0  502  0.89711576031E+02 -0.17952262396E+03  0.11537554758E+03  0.23152867807E+03  0.41800000000E+01 0. -1.
        -11    1    1    2    0    0 -0.43087291140E+02  0.51078511621E+02  0.82311423056E+02  0.10602216453E+03  0.00000000000E+00 0.  1.
         11    1    1    2    0    0 -0.35009152671E+02  0.16782831565E+03  0.46454846676E+03  0.49517397172E+03  0.00000000000E+00 0. -1.
</event>
<event>
 7    1  0.2564986E-009  0.1561484E+03  0.7561462E-02  0.1193115E+00
         -3   -1    0    0    0  501 -0.00000000000E+00  0.00000000000E+00  0.24293841730E+03  0.24293841730E+03  0.00000000000E+00 0.  1.
          3   -1    0    0  501    0  0.00000000000E+00 -0.00000000000E+00 -0.11675817906E+03  0.11675817906E+03  0.00000000000E+00 0. -1.
         25    2    1    2    0    0  0.61074432792E+02  0.10362031469E+03  0.79216753335E+02  0.19076255894E+03  0.12509118245E+03 0.  0.
          5    1    3    3  502    0  0.30397224356E+02 -0.24908586619E+02  0.30293078959E+02  0.49795300669E+02  0.41800000000E+01 0. -1.
         -5    1    3    3    0  502  0.30677208436E+02  0.12852890131E+03  0.48923674376E+02  0.14096725827E+03  0.41800000000E+01 0. -1.
        -11    1    1    2    0    0 -0.28902768451E+01 -0.76190002654E+02  0.67062373577E+02  0.10154128301E+03  0.00000000000E+00 0.  1.
         11    1    1    2    0    0 -0.58184155947E+02 -0.27430312034E+02 -0.20098888678E+02  0.67392754415E+02  0.00000000000E+00 0. -1.
</event>
<event>
 7    1  0.2564986E-009  0.1235403E+03  0.7561462E-02  0.1237368E+00
          2   -1    0    0  501    0  0.00000000000E+00  0.00000000000E+00  0.64893632090E+03  0.64893632090E+03  0.00000000000E+00 0.  1.
         -2   -1    0    0    0  501 -0.00000000000E+00 -0.00000000000E+00 -0.36354987257E+02  0.36354987257E+02  0.00000000000E+00 0. -1.
         25    2    1    2    0    0 -0.20661224702E+02 -0.81057849498E+02  0.18056624404E+03  0.23506074782E+03  0.12510845498E+03 0.  0.
          5    1    3    3  502    0 -0.54209053954E+02 -0.76659796034E+02  0.17748128537E+03  0.20082934277E+03  0.41800000000E+01 0.  1.
         -5    1    3    3    0  502  0.33547829252E+02 -0.43980534633E+01  0.30849586654E+01  0.34231405051E+02  0.41800000000E+01 0.  1.
        -11    1    1    2    0    0  0.59191115122E+01 -0.17952734749E+02  0.26553105458E+02  0.32594539045E+02  0.00000000000E+00 0. -1.
         11    1    1    2    0    0  0.14742113190E+02  0.99010584247E+02  0.40546198414E+03  0.41763602129E+03  0.00000000000E+00 0.  1.
</event>
<event>
 7    1  0.2564986E-009  0.1915818E+03  0.7561462E-02  0.1157042E+00
         -2   -1    0    0    0  501 -0.00000000000E+00  0.00000000000E+00  0.30530471201E+02  0.30530471201E+02  0.00000000000E+00 0.  1.
          2   -1    0    0  501    0  0.00000000000E+00 -0.00000000000E+00 -0.18519616885E+04  0.18519616885E+04  0.00000000000E+00 0. -1.
         25    2    1    2    0    0 -0.16178529666E+03 -0.27891742806E+02 -0.14632750079E+04  0.14777597346E+04  0.12509057803E+03 0.  0.
          5    1    3    3  502    0 -0.10942524131E+03  0.33189378102E+02 -0.10840583149E+04  0.10900804194E+04  0.41800000000E+01 0. -1.
         -5    1    3    3    0  502 -0.52360055352E+02 -0.61081120907E+02 -0.37921669302E+03  0.38767931515E+03  0.41800000000E+01 0. -1.
        -11    1    1    2    0    0  0.32105630960E+02  0.47185437944E+02 -0.11972523902E+03  0.13263246191E+03  0.00000000000E+00 0.  1.
         11    1    1    2    0    0  0.12967966570E+03 -0.19293695138E+02 -0.23843097029E+03  0.27209996318E+03  0.00000000000E+00 0. -1.
</event>
<event>
 7    1  0.2564986E-009  0.1035369E+03  0.7561462E-02  0.1273029E+00
          2   -1    0    0  501    0  0.00000000000E+00  0.00000000000E+00  0.36184342468E+03  0.36184342468E+03  0.00000000000E+00 0. -1.
         -2   -1    0    0    0  501 -0.00000000000E+00 -0.00000000000E+00 -0.42945813949E+02  0.42945813949E+02  0.00000000000E+00 0.  1.
         25    2    1    2    0    0  0.25591624290E+02 -0.37485970197E+02  0.21238666718E+03  0.25063121813E+03  0.12509109445E+03 0.  0.
          5    1    3    3  502    0  0.13072841796E+02  0.27801844298E+02  0.16741638039E+03  0.17026320378E+03  0.41800000000E+01 0.  1.
         -5    1    3    3    0  502  0.12518782495E+02 -0.65287814495E+02  0.44970286793E+02  0.80368014352E+02  0.41800000000E+01 0.  1.
        -11    1    1    2    0    0 -0.49158936002E+02  0.59520592156E+02  0.61089619320E+02  0.98444113426E+02  0.00000000000E+00 0.  1.
         11    1    1    2    0    0  0.23567311712E+02 -0.22034621959E+02  0.45421324231E+02  0.55713907071E+02  0.00000000000E+00 0. -1.
</event>
<event>
 7    1  0.2564986E-009  0.1164487E+03  0.7561462E-02  0.1249073E+00
          2   -1    0    0  501    0  0.00000000000E+00  0.00000000000E+00  0.64996315912E+03  0.64996315912E+03  0.00000000000E+00 0. -1.
         -2   -1    0    0    0  501 -0.00000000000E+00 -0.00000000000E+00 -0.28777627573E+02  0.28777627573E+02  0.00000000000E+00 0.  1.
         25    2    1    2    0    0  0.65061735341E+02  0.40698377115E+02  0.41190065277E+03  0.43726318321E+03  0.12509019280E+03 0.  0.
          5    1    3    3  502    0 -0.49689704223E+01  0.44425273785E+02  0.44529599592E+02  0.63234905375E+02  0.41800000000E+01 0.  1.
         -5    1    3    3    0  502  0.70030705763E+02 -0.37268966698E+01  0.36737105318E+03  0.37402827784E+03  0.41800000000E+01 0.  1.
        -11    1    1    2    0    0  0.90006899960E+01  0.20036288694E+02  0.62117696967E+02  0.65886823884E+02  0.00000000000E+00 0.  1.
         11    1    1    2    0    0 -0.74062425337E+02 -0.60734665809E+02  0.14716718181E+03  0.17559077960E+03  0.00000000000E+00 0. -1.
</event>
<event>
 7    1  0.2564986E-009  0.1709249E+03  0.7561462E-02  0.1176887E+00
         -2   -1    0    0    0  501 -0.00000000000E+00  0.00000000000E+00  0.47406310082E+02  0.47406310082E+02  0.00000000000E+00 0.  1.
          2   -1    0    0  501    0  0.00000000000E+00 -0.00000000000E+00 -0.82359251483E+03  0.82359251483E+03  0.00000000000E+00 0. -1.
         25    2    1    2    0    0  0.14687582666E+03  0.11630478408E+02 -0.25367139897E+03  0.31891098288E+03  0.12508900777E+03 0.  0.
          5    1    3    3  502    0  0.16925913042E+03  0.99550098046E+01 -0.21307601677E+03  0.27233548570E+03  0.41800000000E+01 0. -1.
         -5    1    3    3    0  502 -0.22383303754E+02  0.16754686029E+01 -0.40595382196E+02  0.46575497181E+02  0.41800000000E+01 0. -1.
        -11    1    1    2    0    0 -0.63401008429E+02 -0.17386648617E+02 -0.89430066843E+02  0.11099423533E+03  0.00000000000E+00 0.  1.
         11    1    1    2    0    0 -0.83474818232E+02  0.57561702092E+01 -0.43308473894E+03  0.44109360671E+03  0.00000000000E+00 0. -1.
</event>
<event>
 7    1  0.2564986E-009  0.1371070E+03  0.7561462E-02  0.1217276E+00
         -1   -1    0    0    0  501 -0.00000000000E+00  0.00000000000E+00  0.69086423874E+03  0.69086423874E+03  0.00000000000E+00 0.  1.
          1   -1    0    0  501    0  0.00000000000E+00 -0.00000000000E+00 -0.54215901291E+02  0.54215901291E+02  0.00000000000E+00 0. -1.
         25    2    1    2    0    0  0.62030387917E+02 -0.64111738114E+02  0.16936097315E+03  0.22866791227E+03  0.12509113033E+03 0.  0.
          5    1    3    3  502    0  0.56261362373E+02  0.26152683475E+02  0.81377047045E+02  0.10241581877E+03  0.41800000000E+01 0. -1.
         -5    1    3    3    0  502  0.57690255445E+01 -0.90264421589E+02  0.87983926100E+02  0.12625209350E+03  0.41800000000E+01 0. -1.
        -11    1    1    2    0    0 -0.63466011129E+02  0.81915097006E+02  0.48216003309E+03  0.49316966167E+03  0.00000000000E+00 0.  1.
         11    1    1    2    0    0  0.14356232117E+01 -0.17803358892E+02 -0.14872668781E+02  0.23242566092E+02  0.00000000000E+00 0. -1.
</event>
<event>
 7    1  0.2564986E-009  0.2711465E+03  0.7561462E-02  0.1100625E+00
          1   -1    0    0  501    0  0.00000000000E+00  0.00000000000E+00  0.26205015635E+03  0.26205015635E+03  0.00000000000E+00 0. -1.
         -1   -1    0    0    0  501 -0.00000000000E+00 -0.00000000000E+00 -0.29700407707E+03  0.29700407707E+03  0.00000000000E+00 0.  1.
         25    2    1    2    0    0  0.78116612590E+02  0.24383106160E+03 -0.23145709574E+01  0.28497212018E+03  0.12509180739E+03 0.  0.
          5    1    3    3  502    0  0.42829385112E+02  0.25138755731E+02  0.34171771298E+02  0.60427606460E+02  0.41800000000E+01 0. -1.
         -5    1    3    3    0  502  0.35287227478E+02  0.21869230587E+03 -0.36486342255E+02  0.22454451372E+03  0.41800000000E+01 0. -1.
        -11    1    1    2    0    0  0.80371069158E+01 -0.11870825384E+03 -0.27307561585E+02  0.12207353332E+03  0.00000000000E+00 0. -1.
         11    1    1    2    0    0 -0.86153719506E+02 -0.12512280775E+03 -0.53317881778E+01  0.15200857992E+03  0.00000000000E+00 0.  1.
</event>
<event>
 7    1  0.2564986E-009  0.1178040E+03  0.7561462E-02  0.1246764E+00
         -2   -1    0    0    0  501 -0.00000000000E+00  0.00000000000E+00  0.52925711368E+02  0.52925711368E+02  0.00000000000E+00 0.  1.
          2   -1    0    0  501    0  0.00000000000E+00 -0.00000000000E+00 -0.28476907180E+03  0.28476907180E+03  0.00000000000E+00 0. -1.
         25    2    1    2    0    0  0.51607687682E+02 -0.24801729483E+02 -0.13758800582E+03  0.19456685720E+03  0.12508926158E+03 0.  0.
          5    1    3    3  502    0 -0.37260076800E+02  0.49057277871E+01 -0.16134186673E+02  0.41111602594E+02  0.41800000000E+01 0. -1.
         -5    1    3    3    0  502  0.88867764482E+02 -0.29707457271E+02 -0.12145381914E+03  0.15345525461E+03  0.41800000000E+01 0. -1.
        -11    1    1    2    0    0 -0.73524504465E+02  0.37654452402E+01 -0.48340175993E+02  0.88072719668E+02  0.00000000000E+00 0.  1.
         11    1    1    2    0    0  0.21916816784E+02  0.21036284243E+02 -0.45915178620E+02  0.55055206297E+02  0.00000000000E+00 0. -1.
</event>
<event>
 7    1  0.2564986E-009  0.9692851E+02  0.7561462E-02  0.1286891E+00
         -3   -1    0    0    0  501 -0.00000000000E+00  0.00000000000E+00  0.18342899780E+03  0.18342899780E+03  0.00000000000E+00 0.  1.
          3   -1    0    0  501    0  0.00000000000E+00 -0.00000000000E+00 -0.95694716300E+02  0.95694716300E+02  0.00000000000E+00 0. -1.
         25    2    1    2    0    0 -0.71833744638E+02 -0.25299375007E+02  0.39833806348E+02  0.15177584087E+03  0.12509607707E+03 0.  0.
          5    1    3    3  502    0 -0.77198562872E+01  0.30831900968E+02  0.56392995309E+02  0.64867901294E+02  0.41800000000E+01 0. -1.
         -5    1    3    3    0  502 -0.64113888351E+02 -0.56131275975E+02 -0.16559188961E+02  0.86907939575E+02  0.41800000000E+01 0. -1.
        -11    1    1    2    0    0  0.25243591446E+02  0.53605829246E+01  0.68075043436E+02  0.72802378376E+02  0.00000000000E+00 0.  1.
         11    1    1    2    0    0  0.46590153192E+02  0.19938792083E+02 -0.20174568279E+02  0.54545494859E+02  0.00000000000E+00 0. -1.
</event>
<event>
 7    1  0.2564986E-009  0.2781521E+03  0.7561462E-02  0.1096703E+00
          3   -1    0    0  501    0  0.00000000000E+00  0.00000000000E+00  0.43437807569E+03  0.43437807569E+03  0.00000000000E+00 0. -1.
         -3   -1    0    0    0  501 -0.00000000000E+00 -0.00000000000E+00 -0.21579965399E+03  0.21579965399E+03  0.00000000000E+00 0.  1.
         25    2    1    2    0    0 -0.17802102761E+03  0.20520771586E+03  0.20749170827E+03  0.36400792323E+03  0.12508903331E+03 0.  0.
          5    1    3    3  502    0 -0.14623274149E+03  0.15651721412E+03  0.21699935332E+03  0.30493908366E+03  0.41800000000E+01 0.  1.
         -5    1    3    3    0  502 -0.31788286119E+02  0.48690501741E+02 -0.95076450522E+01  0.59068839574E+02  0.41800000000E+01 0.  1.
        -11    1    1    2    0    0  0.49127103200E+02 -0.11888336109E+03 -0.12565598806E+02  0.12924635425E+03  0.00000000000E+00 0.  1.
         11    1    1    2    0    0  0.12889392441E+03 -0.86324354770E+02  0.23652312243E+02  0.15692345220E+03  0.00000000000E+00 0. -1.
</event>
<event>
 7    1  0.2564986E-009  0.2261895E+03  0.7561462E-02  0.1129351E+00
         -2   -1    0    0    0  501 -0.00000000000E+00  0.00000000000E+00  0.86205209803E+02  0.86205209803E+02  0.00000000000E+00 0.  1.
          2   -1    0    0  501    0  0.00000000000E+00 -0.00000000000E+00 -0.93312156715E+03  0.93312156715E+03  0.00000000000E+00 0. -1.
         25    2    1    2    0    0  0.18864826259E+03  0.90586724548E+02 -0.71648389649E+03  0.75682927555E+03  0.12508899535E+03 0.  0.
          5    1    3    3  502    0  0.31366789913E+02  0.54810731079E+02 -0.36011381031E+03  0.36563304080E+03  0.41800000000E+01 0.  1.
         -5    1    3    3    0  502  0.15728147268E+03  0.35775993469E+02 -0.35637008618E+03  0.39119623475E+03  0.41800000000E+01 0.  1.
        -11    1    1    2    0    0 -0.53035341613E+02  0.15838192514E+02 -0.34356992066E+02  0.65145979967E+02  0.00000000000E+00 0. -1.
         11    1    1    2    0    0 -0.13561292098E+03 -0.10642491706E+03 -0.96075468791E+02  0.19735152143E+03  0.00000000000E+00 0.  1.
</event>
<event>
 7    1  0.2564986E-009  0.1722272E+03  0.7561462E-02  0.1175545E+00
         -2   -1    0    0    0  501 -0.00000000000E+00  0.00000000000E+00  0.43494854617E+02  0.43494854617E+02  0.00000000000E+00 0.  1.
          2   -1    0    0  501    0  0.00000000000E+00 -0.00000000000E+00 -0.73922132961E+03  0.73922132961E+03  0.00000000000E+00 0. -1.
         25    2    1    2    0    0 -0.95874940422E+02 -0.94268252520E+02 -0.43827093803E+03  0.47519178620E+03  0.12508921183E+03 0.  0.
          5    1    3    3  502    0 -0.92126298542E+02 -0.82860260396E+01 -0.17218139517E+03  0.19549889604E+03  0.41800000000E+01 0.  1.
         -5    1    3    3    0  502 -0.37486418796E+01 -0.85982226480E+02 -0.26608954286E+03  0.27969289016E+03  0.41800000000E+01 0.  1.
        -11    1    1    2    0    0  0.65323402140E+02 -0.13279199372E+01 -0.12812144327E+03  0.14381938139E+03  0.00000000000E+00 0.  1.
         11    1    1    2    0    0  0.30551538281E+02  0.95596172457E+02 -0.12933409370E+03  0.16370501664E+03  0.00000000000E+00 0. -1.
</event>
<event>
 7    1  0.2564986E-009  0.1167290E+03  0.7561462E-02  0.1248593E+00
          2   -1    0    0  501    0  0.00000000000E+00  0.00000000000E+00  0.21878368494E+03  0.21878368494E+03  0.00000000000E+00 0. -1.
         -2   -1    0    0    0  501 -0.00000000000E+00 -0.00000000000E+00 -0.89124656423E+02  0.89124656423E+02  0.00000000000E+00 0.  1.
         25    2    1    2    0    0 -0.60141144255E+02 -0.47989983263E+02  0.23488004490E+02  0.14872815684E+03  0.12509349526E+03 0.  0.
          5    1    3    3  502    0  0.19777420547E+02  0.25989308519E+02 -0.10515028684E+02  0.34563401872E+02  0.41800000000E+01 0. -1.
         -5    1    3    3    0  502 -0.79918564802E+02 -0.73979291781E+02  0.34003033174E+02  0.11416475497E+03  0.41800000000E+01 0. -1.
        -11    1    1    2    0    0  0.39005247274E+02  0.56590559357E+02  0.11560095482E+03  0.13448970771E+03  0.00000000000E+00 0. -1.
         11    1    1    2    0    0  0.21135896980E+02 -0.86005760938E+01 -0.94299307973E+01  0.24690476811E+02  0.00000000000E+00 0.  1.
</event>
<event>
 7    1  0.2564986E-009  0.1248797E+03  0.7561462E-02  0.1235257E+00
         -1   -1    0    0    0  501 -0.00000000000E+00  0.00000000000E+00  0.39338858064E+02  0.39338858064E+02  0.00000000000E+00 0.  1.
          1   -1    0    0  501    0  0.00000000000E+00 -0.00000000000E+00 -0.59887157869E+03  0.59887157869E+03  0.00000000000E+00 0. -1.
         25    2    1    2    0    0  0.79983775814E+01  0.10771793282E+03 -0.31289103969E+03  0.35385770696E+03  0.12508935591E+03 0.  0.
          5    1    3    3  502    0  0.52789810035E+01  0.31474850541E+02 -0.42937264834E+00  0.32189914847E+02  0.41800000000E+01 0. -1.
         -5    1    3    3    0  502  0.27193965779E+01  0.76243082281E+02 -0.31246166704E+03  0.32166779211E+03  0.41800000000E+01 0. -1.
        -11    1    1    2    0    0  0.36894148126E+02 -0.18459952114E+02 -0.81305106706E+02  0.91172739207E+02  0.00000000000E+00 0.  1.
         11    1    1    2    0    0 -0.44892525708E+02 -0.89257980708E+02 -0.16533657423E+03  0.19317999058E+03  0.00000000000E+00 0. -1.
</event>
<event>
 7    1  0.2564986E-009  0.1244955E+03  0.7561462E-02  0.1235860E+00
          2   -1    0    0  501    0  0.00000000000E+00  0.00000000000E+00  0.81643215412E+03  0.81643215412E+03  0.00000000000E+00 0. -1.
         -2   -1    0    0    0  501 -0.00000000000E+00 -0.00000000000E+00 -0.31398126819E+02  0.31398126819E+02  0.00000000000E+00 0.  1.
         25    2    1    2    0    0  0.63301602927E+02 -0.54106485428E+02  0.63567198802E+03  0.65319176505E+03  0.12508397534E+03 0.  0.
          5    1    3    3  502    0 -0.61434387053E+01 -0.54112917727E+02  0.47466020153E+03  0.47779255857E+03  0.41800000000E+01 0. -1.
         -5    1    3    3    0  502  0.69445041632E+02  0.64322992009E-02  0.16101178648E+03  0.17539920648E+03  0.41800000000E+01 0. -1.
        -11    1    1    2    0    0 -0.69786398183E+02 -0.52113933743E+00  0.83167296555E+02  0.10856892821E+03  0.00000000000E+00 0.  1.
         11    1    1    2    0    0  0.64847952557E+01  0.54627624766E+02  0.66194742735E+02  0.86069587676E+02  0.00000000000E+00 0. -1.
</event>
<event>
 7    1  0.2564986E-009  0.1505080E+03  0.7561462E-02  0.1199850E+00
         -2   -1    0    0    0  501 -0.00000000000E+00  0.00000000000E+00  0.68727956566E+02  0.68727956566E+02  0.00000000000E+00 0.  1.
          2   -1    0    0  501    0  0.00000000000E+00 -0.00000000000E+00 -0.38627665640E+03  0.38627665640E+03  0.00000000000E+00 0. -1.
         25    2    1    2    0    0  0.10832016243E+03  0.13159055651E+02 -0.24409995707E+03  0.29519342520E+03  0.12509176995E+03 0.  0.
          5    1    3    3  502    0  0.13226422951E+02 -0.49845980048E+02 -0.71297884062E+02  0.88093249814E+02  0.41800000000E+01 0.  1.
         -5    1    3    3    0  502  0.95093739475E+02  0.63005035699E+02 -0.17280207301E+03  0.20710017539E+03  0.41800000000E+01 0.  1.
        -11    1    1    2    0    0 -0.13769474722E+02  0.28617926835E+02 -0.40190478576E+02  0.51223615049E+02  0.00000000000E+00 0.  1.
         11    1    1    2    0    0 -0.94550687704E+02 -0.41776982487E+02 -0.33258264187E+02  0.10858757271E+03  0.00000000000E+00 0. -1.
</event>
<event>
 7    1  0.2564986E-009  0.1118823E+03  0.7561462E-02  0.1257123E+00
          3   -1    0    0  501    0  0.00000000000E+00  0.00000000000E+00  0.25206669326E+02  0.25206669326E+02  0.00000000000E+00 0. -1.
         -3   -1    0    0    0  501 -0.00000000000E+00 -0.00000000000E+00 -0.65305433268E+03  0.65305433268E+03  0.00000000000E+00 0.  1.
         25    2    1    2    0    0 -0.59476369768E+02 -0.23401213582E+02 -0.40426430334E+03  0.42797457968E+03  0.12509020159E+03 0.  0.
          5    1    3    3  502    0  0.36551078888E+02 -0.23178086215E+02 -0.14893632158E+03  0.15515381186E+03  0.41800000000E+01 0.  1.
         -5    1    3    3    0  502 -0.96027448656E+02 -0.22312736701E+00 -0.25532798177E+03  0.27282076782E+03  0.41800000000E+01 0.  1.
        -11    1    1    2    0    0  0.13041637200E+01  0.25905105688E+02 -0.82478340984E+01  0.27217680118E+02  0.00000000000E+00 0. -1.
         11    1    1    2    0    0  0.58172206048E+02 -0.25038921056E+01 -0.21533552592E+03  0.22306874221E+03  0.00000000000E+00 0.  1.
</event>
<event>
 7    1  0.2564986E-009  0.7674980E+02  0.7561462E-02  0.1338537E+00
          1   -1    0    0  501    0  0.00000000000E+00  0.00000000000E+00  0.21604069561E+03  0.21604069561E+03  0.00000000000E+00 0. -1.
         -1   -1    0    0    0  501 -0.00000000000E+00 -0.00000000000E+00 -0.78830800708E+02  0.78830800708E+02  0.00000000000E+00 0.  1.
         25    2    1    2    0    0 -0.34340902990E+01  0.50575408995E+02  0.13692225741E+03  0.19226047641E+03  0.12508685480E+03 0.  0.
          5    1    3    3  502    0  0.75391396827E+01  0.29217733930E+02 -0.18032939315E+02  0.35400196377E+02  0.41800000000E+01 0. -1.
         -5    1    3    3    0  502 -0.10973229982E+02  0.21357675065E+02  0.15495519672E+03  0.15686028003E+03  0.41800000000E+01 0. -1.
        -11    1    1    2    0    0 -0.24432900373E+02 -0.63431454152E+02  0.13323187297E+02  0.69267765348E+02  0.00000000000E+00 0. -1.
         11    1    1    2    0    0  0.27866990672E+02  0.12856045157E+02 -0.13035549800E+02  0.33343254562E+02  0.00000000000E+00 0.  1.
</event>
<event>
 7    1  0.2564986E-009  0.1316647E+03  0.7561462E-02  0.1225006E+00
          4   -1    0    0  501    0  0.00000000000E+00  0.00000000000E+00  0.23860390524E+03  0.23860390524E+03  0.00000000000E+00 0. -1.
         -4   -1    0    0    0  501 -0.00000000000E+00 -0.00000000000E+00 -0.86035715208E+02  0.86035715208E+02  0.00000000000E+00 0.  1.
         25    2    1    2    0    0  0.86636728523E+02  0.12273090398E+02  0.96674278747E+02  0.18068847125E+03  0.12508339616E+03 0.  0.
          5    1    3    3  502    0  0.96576606625E+02  0.49342936344E+02  0.91066701969E+02  0.14167703738E+03  0.41800000000E+01 0.  1.
         -5    1    3    3    0  502 -0.99398781025E+01 -0.37069845946E+02  0.56075767784E+01  0.39011433868E+02  0.41800000000E+01 0.  1.
        -11    1    1    2    0    0 -0.98943723237E+02 -0.19033158969E+00  0.15658741346E+02  0.10017531021E+03  0.00000000000E+00 0.  1.
         11    1    1    2    0    0  0.12306994714E+02 -0.12082758808E+02  0.40235169939E+02  0.43775838991E+02  0.00000000000E+00 0. -1.
</event>
<event>
 7    1  0.2564986E-009  0.2255198E+03  0.7561462E-02  0.1129833E+00
          2   -1    0    0  501    0  0.00000000000E+00  0.00000000000E+00  0.14588270050E+03  0.14588270050E+03  0.00000000000E+00 0. -1.
         -2   -1    0    0    0  501 -0.00000000000E+00 -0.00000000000E+00 -0.45087826882E+03  0.45087826882E+03  0.00000000000E+00 0.  1.
         25    2    1    2    0    0 -0.17682045265E+03  0.12174027030E+03 -0.54553065234E+02  0.25438226815E+03  0.12509250791E+03 0.  0.
          5    1    3    3  502    0 -0.18213623766E+02  0.51313866784E+02  0.28886641469E+02  0.61779927731E+02  0.41800000000E+01 0. -1.
         -5    1    3    3    0  502 -0.15860682888E+03  0.70426403516E+02 -0.83439706703E+02  0.19260234042E+03  0.41800000000E+01 0. -1.
        -11    1    1    2    0    0  0.12280302737E+02 -0.34460520020E+02 -0.94218415535E+01  0.37777035003E+02  0.00000000000E+00 0. -1.
         11    1    1    2    0    0  0.16454014991E+03 -0.87279750280E+02 -0.24102066153E+03  0.30460166616E+03  0.00000000000E+00 0.  1.
</event>
<event>
 7    1  0.2564986E-009  0.9273091E+02  0.7561462E-02  0.1296370E+00
          1   -1    0    0  501    0  0.00000000000E+00  0.00000000000E+00  0.13539604735E+04  0.13539604735E+04  0.00000000000E+00 0. -1.
         -1   -1    0    0    0  501 -0.00000000000E+00 -0.00000000000E+00 -0.11376159198E+02  0.11376159198E+02  0.00000000000E+00 0.  1.
         25    2    1    2    0    0 -0.81914997069E+01 -0.37968176113E+02  0.10096591490E+04  0.10181196682E+04  0.12508948203E+03 0.  0.
          5    1    3    3  502    0 -0.54529282376E+01 -0.63198411561E+02  0.96082994796E+03  0.96293064909E+03  0.41800000000E+01 0. -1.
         -5    1    3    3    0  502 -0.27385714693E+01  0.25230235448E+02  0.48829201014E+02  0.55189019072E+02  0.41800000000E+01 0. -1.
        -11    1    1    2    0    0 -0.34068189454E+02  0.41582892492E+02  0.22313120477E+03  0.22951538733E+03  0.00000000000E+00 0.  1.
         11    1    1    2    0    0  0.42259689161E+02 -0.36147163794E+01  0.10979396057E+03  0.11770157722E+03  0.00000000000E+00 0. -1.
</event>
<event>
 7    1  0.2564986E-009  0.1330864E+03  0.7561462E-02  0.1222947E+00
         -2   -1    0    0    0  501 -0.00000000000E+00  0.00000000000E+00  0.33511183127E+02  0.33511183127E+02  0.00000000000E+00 0.  1.
          2   -1    0    0  501    0  0.00000000000E+00 -0.00000000000E+00 -0.80016449576E+03  0.80016449576E+03  0.00000000000E+00 0. -1.
         25    2    1    2    0    0  0.80986370097E+02 -0.92751010135E+02 -0.39097470759E+03  0.42856754038E+03  0.12508945867E+03 0.  0.
          5    1    3    3  502    0 -0.10403585823E+02 -0.16580688533E+01  0.47700087836E+01  0.12296713955E+02  0.41800000000E+01 0. -1.
         -5    1    3    3    0  502  0.91389955920E+02 -0.91092941282E+02 -0.39574471637E+03  0.41627082643E+03  0.41800000000E+01 0. -1.
        -11    1    1    2    0    0 -0.75880183540E+02  0.72848048421E+02 -0.36869441425E+03  0.38340606609E+03  0.00000000000E+00 0. -1.
         11    1    1    2    0    0 -0.51061865571E+01  0.19902961715E+02 -0.69841907862E+01  0.21702072415E+02  0.00000000000E+00 0.  1.
</event>
<event>
 7    1  0.2564986E-009  0.1864400E+03  0.7561462E-02  0.1161712E+00
          1   -1    0    0  501    0  0.00000000000E+00  0.00000000000E+00  0.27124724360E+03  0.27124724360E+03  0.00000000000E+00 0. -1.
         -1   -1    0    0    0  501 -0.00000000000E+00 -0.00000000000E+00 -0.16658150265E+03  0.16658150265E+03  0.00000000000E+00 0.  1.
         25    2    1    2    0    0 -0.78401424535E+01 -0.18041316916E+03  0.72081054069E+02  0.23120133181E+03  0.12509195832E+03 0.  0.
          5    1    3    3  502    0  0.93159523382E+01 -0.11796358190E+03 -0.18427551430E+02  0.11983004913E+03  0.41800000000E+01 0. -1.
         -5    1    3    3    0  502 -0.17156094792E+02 -0.62449587259E+02  0.90508605500E+02  0.11137128268E+03  0.41800000000E+01 0. -1.
        -11    1    1    2    0    0  0.32964934543E+02  0.10882141310E+03  0.56642480824E+02  0.12703211205E+03  0.00000000000E+00 0.  1.
         11    1    1    2    0    0 -0.25124792090E+02  0.71591756052E+02 -0.24057793940E+02  0.79595302383E+02  0.00000000000E+00 0. -1.
</event>
<event>
 7    1  0.2564986E-009  0.1822807E+03  0.7561462E-02  0.1165614E+00
         -1   -1    0    0    0  501 -0.00000000000E+00  0.00000000000E+00  0.52259542109E+02  0.52259542109E+02  0.00000000000E+00 0.  1.
          1   -1    0    0  501    0  0.00000000000E+00 -0.00000000000E+00 -0.92883735713E+03  0.92883735713E+03  0.00000000000E+00 0. -1.
         25    2    1    2    0    0 -0.95367407568E+02 -0.13127207339E+03 -0.23118151229E+03  0.30890135623E+03  0.12509139290E+03 0.  0.
          5    1    3    3  502    0 -0.97210979869E+02 -0.31385143725E+02 -0.14159981625E+03  0.17465102982E+03  0.41800000000E+01 0. -1.
         -5    1    3    3    0  502  0.18435723013E+01 -0.99886929669E+02 -0.89581696039E+02  0.13425032642E+03  0.41800000000E+01 0. -1.
        -11    1    1    2    0    0  0.15998275812E+02  0.25293813219E+02 -0.28769948092E+02  0.41514235261E+02  0.00000000000E+00 0.  1.
         11    1    1    2    0    0  0.79369131756E+02  0.10597826018E+03 -0.61662635463E+03  0.63068130774E+03  0.00000000000E+00 0. -1.
</event>
<event>
 7    1  0.2564986E-009  0.1446755E+03  0.7561462E-02  0.1207173E+00
          2   -1    0    0  501    0  0.00000000000E+00  0.00000000000E+00  0.96933813379E+02  0.96933813379E+02  0.00000000000E+00 0.  1.
         -2   -1    0    0    0  501 -0.00000000000E+00 -0.00000000000E+00 -0.30743890341E+03  0.30743890341E+03  0.00000000000E+00 0. -1.
         25    2    1    2    0    0 -0.49927940993E+02 -0.10174433664E+03 -0.19418161259E+03  0.25728922313E+03  0.12508611569E+03 0.  0.
          5    1    3    3  502    0  0.26469356535E+02 -0.75715369316E+02 -0.13512530670E+03  0.15719339966E+03  0.41800000000E+01 0. -1.
         -5    1    3    3    0  502 -0.76397297528E+02 -0.26028967324E+02 -0.59056305886E+02  0.10009582346E+03  0.41800000000E+01 0. -1.
        -11    1    1    2    0    0 -0.41505877550E+01  0.59364515633E+02  0.27536232150E+02  0.65571466173E+02  0.00000000000E+00 0.  1.
         11    1    1    2    0    0  0.54078528748E+02  0.42379821007E+02 -0.43859709593E+02  0.81512027491E+02  0.00000000000E+00 0. -1.
</event>
<event>
 7    1  0.2564986E-009  0.1009375E+03  0.7561462E-02  0.1278337E+00
          1   -1    0    0  501    0  0.00000000000E+00  0.00000000000E+00  0.85288145508E+02  0.85288145508E+02  0.00000000000E+00 0. -1.
         -1   -1    0    0    0  501 -0.00000000000E+00 -0.00000000000E+00 -0.14781769207E+03  0.14781769207E+03  0.00000000000E+00 0.  1.
         25    2    1    2    0    0 -0.19877139559E+02 -0.24012012312E+01 -0.13283597953E+02  0.12737201112E+03  0.12508520615E+03 0.  0.
          5    1    3    3  502    0  0.10896216080E+02  0.49754584020E+02 -0.36050921644E+02  0.62541086553E+02  0.41800000000E+01 0. -1.
         -5    1    3    3    0  502 -0.30773355639E+02 -0.52155785251E+02  0.22767323691E+02  0.64830924569E+02  0.41800000000E+01 0. -1.
        -11    1    1    2    0    0  0.15456733109E+02  0.44824826213E+02 -0.40129300409E+02  0.62117118372E+02  0.00000000000E+00 0.  1.
         11    1    1    2    0    0  0.44204064495E+01 -0.42423624982E+02 -0.91166481995E+01  0.43616708085E+02  0.00000000000E+00 0. -1.
</event>
<event>
 7    1  0.2564986E-009  0.1027552E+03  0.7561462E-02  0.1274606E+00
         -1   -1    0    0    0  501 -0.00000000000E+00  0.00000000000E+00  0.16334699279E+02  0.16334699279E+02  0.00000000000E+00 0.  1.
          1   -1    0    0  501    0  0.00000000000E+00 -0.00000000000E+00 -0.10983382985E+04  0.10983382985E+04  0.00000000000E+00 0. -1.
         25    2    1    2    0    0 -0.62733324883E+02 -0.27252615610E+02 -0.76768954085E+03  0.78081578343E+03  0.12509149221E+03 0.  0.
          5    1    3    3  502    0 -0.66513125041E+02 -0.58538582088E+02 -0.32201190503E+03  0.33400583944E+03  0.41800000000E+01 0.  1.
         -5    1    3    3    0  502  0.37798001584E+01  0.31285966478E+02 -0.44567763581E+03  0.44680994399E+03  0.41800000000E+01 0.  1.
        -11    1    1    2    0    0  0.44722537323E+02  0.42292832914E+02 -0.30026280075E+03  0.30650699596E+03  0.00000000000E+00 0. -1.
         11    1    1    2    0    0  0.18010787560E+02 -0.15040217304E+02 -0.14051257637E+02  0.27350218395E+02  0.00000000000E+00 0.  1.
</event>
<event>
 7    1  0.2564986E-009  0.1131854E+03  0.7561462E-02  0.1254782E+00
         -2   -1    0    0    0  501 -0.00000000000E+00  0.00000000000E+00  0.10560329249E+04  0.10560329249E+04  0.00000000000E+00 0.  1.
          2   -1    0    0  501    0  0.00000000000E+00 -0.00000000000E+00 -0.16729174973E+02  0.16729174973E+02  0.00000000000E+00 0. -1.
         25    2    1    2    0    0  0.62407261912E+02 -0.29176373429E+02  0.43695536792E+03  0.45969922851E+03  0.12508980785E+03 0.  0.
          5    1    3    3  502    0  0.75932235183E+02  0.40330095934E+01  0.13026963295E+03  0.15089605421E+03  0.41800000000E+01 0. -1.
         -5    1    3    3    0  502 -0.13524973271E+02 -0.33209383022E+02  0.30668573497E+03  0.30880317430E+03  0.41800000000E+01 0. -1.
        -11    1    1    2    0    0 -0.10314144334E+02 -0.32084079259E+02  0.17848504976E+03  0.18163887994E+03  0.00000000000E+00 0.  1.
         11    1    1    2    0    0 -0.52093117578E+02  0.61260452687E+02  0.42386333221E+03  0.43142399140E+03  0.00000000000E+00 0. -1.
</event>
<event>
 7    1  0.2564986E-009  0.9323898E+02  0.7561462E-02  0.1295192E+00
         -1   -1    0    0    0  501 -0.00000000000E+00  0.00000000000E+00  0.51390988810E+02  0.51390988810E+02  0.00000000000E+00 0. -1.
          1   -1    0    0  501    0  0.00000000000E+00 -0.00000000000E+00 -0.32473531787E+03  0.32473531787E+03  0.00000000000E+00 0.  1.
         25    2    1    2    0    0 -0.69341824987E+02  0.34977984067E+01 -0.17007296712E+03  0.22224398493E+03  0.12508817454E+03 0.  0.
          5    1    3    3  502    0  0.18361469620E+01  0.35721156821E+01  0.19163345670E+02  0.20020930632E+02  0.41800000000E+01 0.  1.
         -5    1    3    3    0  502 -0.71177971948E+02 -0.74317275322E-01 -0.18923631279E+03  0.20222305430E+03  0.41800000000E+01 0.  1.
        -11    1    1    2    0    0  0.69859114657E+02 -0.34818643527E+02 -0.91858256887E+02  0.12054282723E+03  0.00000000000E+00 0.  1.
         11    1    1    2    0    0 -0.51728967039E+00  0.31320845121E+02 -0.11413105053E+02  0.33339494517E+02  0.00000000000E+00 0. -1.
</event>
<event>
 7    1  0.2564986E-009  0.1895175E+03  0.7561462E-02  0.1158897E+00
         -1   -1    0    0    0  501 -0.00000000000E+00  0.00000000000E+00  0.10787528680E+04  0.10787528680E+04  0.00000000000E+00 0.  1.
          1   -1    0    0  501    0  0.00000000000E+00 -0.00000000000E+00 -0.37892311217E+02  0.37892311217E+02  0.00000000000E+00 0. -1.
         25    2    1    2    0    0  0.12460270781E+03 -0.11153581568E+03  0.63337360876E+03  0.66691514534E+03  0.12509040668E+03 0.  0.
          5    1    3    3  502    0 -0.13467570604E+02 -0.11688577984E+02  0.20593148486E+03  0.20674440058E+03  0.41800000000E+01 0. -1.
         -5    1    3    3    0  502  0.13807027841E+03 -0.99847237696E+02  0.42744212389E+03  0.46017074476E+03  0.41800000000E+01 0. -1.
        -11    1    1    2    0    0 -0.12681429201E+03  0.62837264298E+02  0.30055301458E+03  0.33220852038E+03  0.00000000000E+00 0. -1.
         11    1    1    2    0    0  0.22115842017E+01  0.48698551382E+02  0.10693393347E+03  0.11752151352E+03  0.00000000000E+00 0.  1.
</event>
<event>
 7    1  0.2564986E-009  0.6895349E+02  0.7561462E-02  0.1363688E+00
         -1   -1    0    0    0  501 -0.00000000000E+00  0.00000000000E+00  0.19438539784E+03  0.19438539784E+03  0.00000000000E+00 0.  1.
          1   -1    0    0  501    0  0.00000000000E+00 -0.00000000000E+00 -0.64052533434E+02  0.64052533434E+02  0.00000000000E+00 0. -1.
         25    2    1    2    0    0  0.16767394872E+02 -0.10574017308E+02  0.93413052497E+02  0.15737144712E+03  0.12508724403E+03 0.  0.
          5    1    3    3  502    0  0.28391352773E+02  0.33455473532E+02 -0.92024020607E+01  0.45027705086E+02  0.41800000000E+01 0.  1.
         -5    1    3    3    0  502 -0.11623957901E+02 -0.44029490840E+02  0.10261545456E+03  0.11234374204E+03  0.41800000000E+01 0.  1.
        -11    1    1    2    0    0 -0.59340372601E+01  0.27429202672E+02  0.62536384090E+02  0.68544680993E+02  0.00000000000E+00 0.  1.
         11    1    1    2    0    0 -0.10833357612E+02 -0.16855185364E+02 -0.25616572177E+02  0.32521803162E+02  0.00000000000E+00 0. -1.
</event>
<event>
 7    1  0.2564986E-009  0.7896302E+02  0.7561462E-02  0.1332020E+00
         -1   -1    0    0    0  501 -0.00000000000E+00  0.00000000000E+00  0.22446339541E+03  0.22446339541E+03  0.00000000000E+00 0.  1.
          1   -1    0    0  501    0  0.00000000000E+00 -0.00000000000E+00 -0.54007332295E+02  0.54007332295E+02  0.00000000000E+00 0. -1.
         25    2    1    2    0    0  0.53880546405E+01 -0.14941034257E+02  0.11906513517E+03  0.17342870044E+03  0.12509493229E+03 0.  0.
          5    1    3    3  502    0  0.60917232717E+02 -0.29050185432E+02  0.75344726602E+02  0.10123795110E+03  0.41800000000E+01 0. -1.
         -5    1    3    3    0  502 -0.55529178076E+02  0.14109151175E+02  0.43720408571E+02  0.72190749340E+02  0.41800000000E+01 0. -1.
        -11    1    1    2    0    0  0.11689644725E+02  0.90942498959E+01  0.74364659048E+02  0.75825165283E+02  0.00000000000E+00 0.  1.
         11    1    1    2    0    0 -0.17077699365E+02  0.58467843614E+01 -0.22973731110E+02  0.29216861982E+02  0.00000000000E+00 0. -1.
</event>
<event>
 7    1  0.2564986E-009  0.1823562E+03  0.7561462E-02  0.1165542E+00
         -1   -1    0    0    0  501 -0.00000000000E+00  0.00000000000E+00  0.49661206383E+02  0.49661206383E+02  0.00000000000E+00 0.  1.
          1   -1    0    0  501    0  0.00000000000E+00 -0.00000000000E+00 -0.10939017732E+04  0.10939017732E+04  0.00000000000E+00 0. -1.
         25    2    1    2    0    0 -0.17371829157E+03 -0.46113713639E+02 -0.78774236058E+03  0.81761264537E+03  0.12509153368E+03 0.  0.
          5    1    3    3  502    0 -0.12591790017E+03 -0.25625168147E+02 -0.72358737097E+03  0.73492048730E+03  0.41800000000E+01 0.  1.
         -5    1    3    3    0  502 -0.47800391392E+02 -0.20488545492E+02 -0.64154989613E+02  0.82692158068E+02  0.41800000000E+01 0.  1.
        -11    1    1    2    0    0  0.21303659502E+02  0.20222449543E+02 -0.10675075636E+03  0.11071818891E+03  0.00000000000E+00 0. -1.
         11    1    1    2    0    0  0.15241463206E+03  0.25891264097E+02 -0.14974744986E+03  0.21523214528E+03  0.00000000000E+00 0.  1.
</event>
<event>
 7    1  0.2564986E-009  0.1723132E+03  0.7561462E-02  0.1175457E+00
         -2   -1    0    0    0  501 -0.00000000000E+00  0.00000000000E+00  0.87566666862E+02  0.87566666862E+02  0.00000000000E+00 0.  1.
          2   -1    0    0  501    0  0.00000000000E+00 -0.00000000000E+00 -0.44605845930E+03  0.44605845930E+03  0.00000000000E+00 0. -1.
         25    2    1    2    0    0  0.10454411634E+03  0.11401849128E+03 -0.26777504574E+03  0.33358781740E+03  0.12509063988E+03 0.  0.
          5    1    3    3  502    0  0.12704327839E+03  0.84802824604E+02 -0.16780950648E+03  0.22695597924E+03  0.41800000000E+01 0. -1.
         -5    1    3    3    0  502 -0.22499162052E+02  0.29215666674E+02 -0.99965539251E+02  0.10663183816E+03  0.41800000000E+01 0. -1.
        -11    1    1    2    0    0 -0.39206541287E+02 -0.41017540001E+02 -0.84613171105E+02  0.10187728006E+03  0.00000000000E+00 0. -1.
         11    1    1    2    0    0 -0.65337575049E+02 -0.73000951277E+02 -0.61035755979E+01  0.98160028707E+02  0.00000000000E+00 0.  1.
</event>
<event>
 7    1  0.3141581E-009  0.1005606E+03  0.7561462E-02  0.1279122E+00
          2   -1    0    0  501    0  0.00000000000E+00  0.00000000000E+00  0.39995720785E+03  0.39995720785E+03  0.00000000000E+00 0.  1.
         -2   -1    0    0    0  501 -0.00000000000E+00 -0.00000000000E+00 -0.38590237841E+02  0.38590237841E+02  0.00000000000E+00 0. -1.
         25    2    1    2    0    0 -0.29271213586E+02 -0.33275381144E+02  0.27284991151E+03  0.30341057843E+03  0.12508736929E+03 0.  0.
          5    1    3    3  502    0  0.41952049871E+02 -0.15453643356E+02  0.43338814070E+02  0.62406047675E+02  0.41800000000E+01 0. -1.
         -5    1    3    3    0  502 -0.71223263457E+02 -0.17821737788E+02  0.22951109744E+03  0.24100453075E+03  0.41800000000E+01 0. -1.
        -11    1    1    2    0    0 -0.22636643532E+02  0.36967874031E+01  0.68326580389E+02  0.72073611365E+02  0.00000000000E+00 0.  1.
         11    1    1    2    0    0  0.51907857118E+02  0.29578593740E+02  0.20190478109E+02  0.63063255898E+02  0.00000000000E+00 0. -1.
</event>
<event>
 7    1  0.2564986E-009  0.8726683E+02  0.7561462E-02  0.1309609E+00
          1   -1    0    0  501    0  0.00000000000E+00  0.00000000000E+00  0.67401968258E+03  0.67401968258E+03  0.00000000000E+00 0. -1.
         -1   -1    0    0    0  501 -0.00000000000E+00 -0.00000000000E+00 -0.24523347749E+02  0.24523347749E+02  0.00000000000E+00 0.  1.
         25    2    1    2    0    0 -0.55054029459E+02  0.13204888884E+02  0.24115652216E+03  0.27750825837E+03  0.12509616314E+03 0.  0.
          5    1    3    3  502    0  0.87441932020E+01  0.85228492338E+01 -0.11229654986E+02  0.17107817655E+02  0.41800000000E+01 0.  1.
         -5    1    3    3    0  502 -0.63798222661E+02  0.46820396507E+01  0.25238617715E+03  0.26040044071E+03  0.41800000000E+01 0.  1.
        -11    1    1    2    0    0  0.24289528849E+02 -0.46331517116E+02  0.15228529441E+03  0.16101987946E+03  0.00000000000E+00 0.  1.
         11    1    1    2    0    0  0.30764500610E+02  0.33126628232E+02  0.25605451827E+03  0.26001489250E+03  0.00000000000E+00 0. -1.
</event>
<event>
 7    1  0.2564986E-009  0.1143196E+03  0.7561462E-02  0.1252774E+00
         -1   -1    0    0    0  501 -0.00000000000E+00  0.00000000000E+00  0.49141828564E+03  0.49141828564E+03  0.00000000000E+00 0.  1.
          1   -1    0    0  501    0  0.00000000000E+00 -0.00000000000E+00 -0.54176815771E+02  0.54176815771E+02  0.00000000000E+00 0. -1.
         25    2    1    2    0    0  0.32258412076E+02 -0.97904772274E+02  0.33116243745E+03  0.36870626930E+03  0.12509917449E+03 0.  0.
          5    1    3    3  502    0  0.74644684658E+01 -0.98050235986E+02  0.32907173910E+03  0.34347525230E+03  0.41800000000E+01 0.  1.
         -5    1    3    3    0  502  0.24793943610E+02  0.14546371171E+00  0.20906983514E+01  0.25231017004E+02  0.41800000000E+01 0.  1.
        -11    1    1    2    0    0 -0.23326960562E+02  0.38618982715E+02 -0.10025793098E+02  0.46217847659E+02  0.00000000000E+00 0. -1.
         11    1    1    2    0    0 -0.89314515145E+01  0.59285789559E+02  0.11610482552E+03  0.13067098445E+03  0.00000000000E+00 0.  1.
</event>
<event>
 7    1  0.2564986E-009  0.9711332E+02  0.7561462E-02  0.1286486E+00
         -1   -1    0    0    0  501 -0.00000000000E+00  0.00000000000E+00  0.80579590581E+02  0.80579590581E+02  0.00000000000E+00 0.  1.
          1   -1    0    0  501    0  0.00000000000E+00 -0.00000000000E+00 -0.22683311294E+03  0.22683311294E+03  0.00000000000E+00 0. -1.
         25    2    1    2    0    0  0.46662620685E+02  0.18254306190E+02 -0.89552361993E+01  0.13506261857E+03  0.12510433572E+03 0.  0.
          5    1    3    3  502    0  0.62724013257E+02 -0.18728620115E+02  0.35760187607E+02  0.74708275767E+02  0.41800000000E+01 0.  1.
         -5    1    3    3    0  502 -0.16061392572E+02  0.36982926304E+02 -0.44715423806E+02  0.60354342806E+02  0.41800000000E+01 0.  1.
        -11    1    1    2    0    0 -0.25490428287E+02  0.27612381352E+02 -0.15795804617E+02  0.40764113895E+02  0.00000000000E+00 0.  1.
         11    1    1    2    0    0 -0.21172192398E+02 -0.45866687541E+02 -0.12150248154E+03  0.13158597105E+03  0.00000000000E+00 0. -1.
</event>
<event>
 7    1  0.2564986E-009  0.1400452E+03  0.7561462E-02  0.1213268E+00
          1   -1    0    0  501    0  0.00000000000E+00  0.00000000000E+00  0.69599154088E+03  0.69599154088E+03  0.00000000000E+00 0. -1.
         -1   -1    0    0    0  501 -0.00000000000E+00 -0.00000000000E+00 -0.45915612295E+02  0.45915612295E+02  0.00000000000E+00 0.  1.
         25    2    1    2    0    0  0.33497157456E+02  0.99662026391E+02  0.54508840649E+03  0.56905486958E+03  0.12508994623E+03 0.  0.
          5    1    3    3  502    0  0.40304901352E+02 -0.15989160086E+02  0.99205209078E+02  0.10834797747E+03  0.41800000000E+01 0. -1.
         -5    1    3    3    0  502 -0.68077438963E+01  0.11565118648E+03  0.44588319741E+03  0.46070689212E+03  0.41800000000E+01 0. -1.
        -11    1    1    2    0    0 -0.15116736394E+02 -0.10104518023E+03  0.47858347335E+02  0.11282316064E+03  0.00000000000E+00 0.  1.
         11    1    1    2    0    0 -0.18380421062E+02  0.13831538420E+01  0.57129174758E+02  0.60029122945E+02  0.00000000000E+00 0. -1.
</event>
<event>
 7    1  0.2564986E-009  0.8273531E+02  0.7561462E-02  0.1321463E+00
          1   -1    0    0  501    0  0.00000000000E+00  0.00000000000E+00  0.47630281292E+02  0.47630281292E+02  0.00000000000E+00 0. -1.
         -1   -1    0    0    0  501 -0.00000000000E+00 -0.00000000000E+00 -0.28582943632E+03  0.28582943632E+03  0.00000000000E+00 0.  1.
         25    2    1    2    0    0 -0.13935695972E+02 -0.12238824225E+02 -0.18964918870E+03  0.22794351114E+03  0.12508971602E+03 0.  0.
          5    1    3    3  502    0  0.25636983550E+02  0.20961082187E+02 -0.16882408673E+03  0.17209202931E+03  0.41800000000E+01 0. -1.
         -5    1    3    3    0  502 -0.39572679523E+02 -0.33199906412E+02 -0.20825101974E+02  0.55851481830E+02  0.41800000000E+01 0. -1.
        -11    1    1    2    0    0 -0.26645264736E+02  0.26185253063E+02  0.41137008687E+01  0.37584041103E+02  0.00000000000E+00 0. -1.
         11    1    1    2    0    0  0.40580960708E+02 -0.13946428838E+02 -0.52663667191E+02  0.67932165366E+02  0.00000000000E+00 0.  1.
</event>
<event>
 7    1  0.2564986E-009  0.1026836E+03  0.7561462E-02  0.1274752E+00
          1   -1    0    0  501    0  0.00000000000E+00  0.00000000000E+00  0.24757541892E+03  0.24757541892E+03  0.00000000000E+00 0. -1.
         -1   -1    0    0    0  501 -0.00000000000E+00 -0.00000000000E+00 -0.46655353577E+02  0.46655353577E+02  0.00000000000E+00 0.  1.
         25    2    1    2    0    0 -0.74830036803E+00 -0.27783459971E+01  0.93382358945E+02  0.15612863270E+03  0.12509039063E+03 0.  0.
          5    1    3    3  502    0  0.60811226552E+02 -0.79278259167E+01  0.33554553447E+02  0.70030251717E+02  0.41800000000E+01 0.  1.
         -5    1    3    3    0  502 -0.61559526920E+02  0.51494799196E+01  0.59827805497E+02  0.86098380987E+02  0.41800000000E+01 0.  1.
        -11    1    1    2    0    0  0.40871026862E+02  0.76005949309E+01  0.32101540343E+02  0.52523506856E+02  0.00000000000E+00 0.  1.
         11    1    1    2    0    0 -0.40122726494E+02 -0.48222489338E+01  0.75436166054E+02  0.85578632935E+02  0.00000000000E+00 0. -1.
</event>
<event>
 7    1  0.2564986E-009  0.1284538E+03  0.7561462E-02  0.1229768E+00
          1   -1    0    0  501    0  0.00000000000E+00  0.00000000000E+00  0.20262781059E+03  0.20262781059E+03  0.00000000000E+00 0. -1.
         -1   -1    0    0    0  501 -0.00000000000E+00 -0.00000000000E+00 -0.10904317638E+03  0.10904317638E+03  0.00000000000E+00 0.  1.
         25    2    1    2    0    0  0.17819451041E+02 -0.98979625766E+02  0.64441298646E+02  0.17295811092E+03  0.12508928016E+03 0.  0.
          5    1    3    3  502    0  0.63388471886E+02 -0.87870954813E+02  0.63916535000E+02  0.12586579724E+03  0.41800000000E+01 0.  1.
         -5    1    3    3    0  502 -0.45569020845E+02 -0.11108670953E+02  0.52476364574E+00  0.47092313683E+02  0.41800000000E+01 0.  1.
        -11    1    1    2    0    0 -0.17621353974E+02  0.63244267628E+02 -0.27952182298E+02  0.71355966806E+02  0.00000000000E+00 0.  1.
         11    1    1    2    0    0 -0.19809706644E+00  0.35735358138E+02  0.57095517862E+02  0.67356909249E+02  0.00000000000E+00 0. -1.
</event>
<event>
 7    1  0.2865486E-009  0.1166358E+03  0.7561462E-02  0.1248752E+00
         -1   -1    0    0    0  501 -0.00000000000E+00  0.00000000000E+00  0.35866671444E+02  0.35866671444E+02  0.00000000000E+00 0.  1.
          1   -1    0    0  501    0  0.00000000000E+00 -0.00000000000E+00 -0.47955386778E+03  0.47955386778E+03  0.00000000000E+00 0. -1.
         25    2    1    2    0    0  0.25990542721E+02 -0.38102438021E+02 -0.35628440343E+03  0.38041187682E+03  0.12508923135E+03 0.  0.
          5    1    3    3  502    0  0.53463875201E+02  0.28775681705E+02 -0.16733173485E+03  0.17805563090E+03  0.41800000000E+01 0.  1.
         -5    1    3    3    0  502 -0.27473332480E+02 -0.66878119726E+02 -0.18895266858E+03  0.20235624591E+03  0.41800000000E+01 0.  1.
        -11    1    1    2    0    0 -0.57899275589E+02  0.12875597627E+02 -0.67065742343E+02  0.89531675535E+02  0.00000000000E+00 0. -1.
         11    1    1    2    0    0  0.31908732868E+02  0.25226840394E+02 -0.20337050562E+02  0.45476986873E+02  0.00000000000E+00 0.  1.
</event>
<event>
 7    1  0.2564986E-009  0.1111909E+03  0.7561462E-02  0.1258380E+00
          2   -1    0    0  501    0  0.00000000000E+00  0.00000000000E+00  0.33418764936E+03  0.33418764936E+03  0.00000000000E+00 0. -1.
         -2   -1    0    0    0  501 -0.00000000000E+00 -0.00000000000E+00 -0.48249619442E+02  0.48249619442E+02  0.00000000000E+00 0.  1.
         25    2    1    2    0    0 -0.36017612237E+02  0.33708945041E+02  0.93260849166E+02  0.16364218043E+03  0.12509043074E+03 0.  0.
          5    1    3    3  502    0  0.32353230643E+02 -0.20004041910E+02  0.32165293981E+01  0.38401975042E+02  0.41800000000E+01 0. -1.
         -5    1    3    3    0  502 -0.68370842880E+02  0.53712986951E+02  0.90044319768E+02  0.12524020539E+03  0.41800000000E+01 0. -1.
        -11    1    1    2    0    0  0.62039094519E+02 -0.12019805679E+02  0.85010451899E+02  0.10592498246E+03  0.00000000000E+00 0.  1.
         11    1    1    2    0    0 -0.26021482281E+02 -0.21689139362E+02  0.10766672886E+03  0.11287010592E+03  0.00000000000E+00 0. -1.
</event>
<event>
 7    1  0.2564986E-009  0.1953992E+03  0.7561462E-02  0.1153680E+00
         -4   -1    0    0    0  501 -0.00000000000E+00  0.00000000000E+00  0.13886137775E+03  0.13886137775E+03  0.00000000000E+00 0.  1.
          4   -1    0    0  501    0  0.00000000000E+00 -0.00000000000E+00 -0.35551240508E+03  0.35551240508E+03  0.00000000000E+00 0. -1.
         25    2    1    2    0    0  0.13029473384E+03  0.11004038148E+03 -0.93028902328E+01  0.21170825759E+03  0.12509292283E+03 0.  0.
          5    1    3    3  502    0  0.26352515335E+02 -0.27111550813E+02 -0.10869023939E+02  0.39561336345E+02  0.41800000000E+01 0. -1.
         -5    1    3    3    0  502  0.10394221850E+03  0.13715193229E+03  0.15661337066E+01  0.17214692124E+03  0.41800000000E+01 0. -1.
        -11    1    1    2    0    0 -0.25975293288E+02  0.37531652671E+01 -0.27897184351E+01  0.26392889949E+02  0.00000000000E+00 0.  1.
         11    1    1    2    0    0 -0.10431944055E+03 -0.11379354675E+03 -0.20455841866E+03  0.25627263530E+03  0.00000000000E+00 0. -1.
</event>
<event>
 7    1  0.3221445E-009  0.1131013E+03  0.7561462E-02  0.1254932E+00
         -1   -1    0    0    0  501 -0.00000000000E+00  0.00000000000E+00  0.34820381351E+02  0.34820381351E+02  0.00000000000E+00 0.  1.
          1   -1    0    0  501    0  0.00000000000E+00 -0.00000000000E+00 -0.54469801780E+03  0.54469801780E+03  0.00000000000E+00 0. -1.
         25    2    1    2    0    0  0.55619441369E+02 -0.51814891238E+02 -0.35838808789E+03  0.38712787804E+03  0.12509063595E+03 0.  0.
          5    1    3    3  502    0  0.50034277106E+01 -0.83840932302E+02 -0.17491661513E+03  0.19408150573E+03  0.41800000000E+01 0.  1.
         -5    1    3    3    0  502  0.50616013658E+02  0.32026041065E+02 -0.18347147276E+03  0.19304637231E+03  0.41800000000E+01 0.  1.
        -11    1    1    2    0    0 -0.51859518359E+02  0.29963652047E+02 -0.26576851320E+02  0.65525255547E+02  0.00000000000E+00 0.  1.
         11    1    1    2    0    0 -0.37599230101E+01  0.21851239191E+02 -0.12491269724E+03  0.12686526556E+03  0.00000000000E+00 0. -1.
</event>
<event>
 7    1  0.3193763E-009  0.1088088E+03  0.7561462E-02  0.1262792E+00
          4   -1    0    0  501    0  0.00000000000E+00  0.00000000000E+00  0.83816420736E+03  0.83816420736E+03  0.00000000000E+00 0. -1.
         -4   -1    0    0    0  501 -0.00000000000E+00 -0.00000000000E+00 -0.23528584121E+02  0.23528584121E+02  0.00000000000E+00 0.  1.
         25    2    1    2    0    0 -0.49766873266E+02 -0.65761557460E+02  0.35256175712E+03  0.38307612538E+03  0.12508477579E+03 0.  0.
          5    1    3    3  502    0 -0.60164472571E+02 -0.71126579224E+02  0.35768162128E+03  0.36963815906E+03  0.41800000000E+01 0. -1.
         -5    1    3    3    0  502  0.10397599305E+02  0.53650217638E+01 -0.51198641557E+01  0.13437966319E+02  0.41800000000E+01 0. -1.
        -11    1    1    2    0    0  0.54659703350E+02  0.95163583614E+01  0.33502991988E+03  0.33959283188E+03  0.00000000000E+00 0. -1.
         11    1    1    2    0    0 -0.48928300834E+01  0.56245199098E+02  0.12704394624E+03  0.13902383423E+03  0.00000000000E+00 0.  1.
</event>
<event>
 7    1  0.2564986E-009  0.1903957E+03  0.7561462E-02  0.1158105E+00
          2   -1    0    0  501    0  0.00000000000E+00  0.00000000000E+00  0.56738882621E+03  0.56738882621E+03  0.00000000000E+00 0. -1.
         -2   -1    0    0    0  501 -0.00000000000E+00 -0.00000000000E+00 -0.81844325073E+02  0.81844325073E+02  0.00000000000E+00 0.  1.
         25    2    1    2    0    0 -0.54629102002E+02 -0.17607865464E+03  0.29261525074E+03  0.36776929659E+03  0.12507013689E+03 0.  0.
          5    1    3    3  502    0 -0.57088946799E+02 -0.16093501155E+03  0.30366239177E+03  0.34840715602E+03  0.41800000000E+01 0.  1.
         -5    1    3    3    0  502  0.24598447966E+01 -0.15143643095E+02 -0.11047141029E+02  0.19362140571E+02  0.41800000000E+01 0.  1.
        -11    1    1    2    0    0  0.32490483923E+02  0.16703167313E+03  0.19332383194E+03  0.25754478323E+03  0.00000000000E+00 0. -1.
         11    1    1    2    0    0  0.22138618079E+02  0.90469815110E+01 -0.39458154869E+00  0.23919071460E+02  0.00000000000E+00 0.  1.
</event>
<event>
 7    1  0.2564986E-009  0.1601652E+03  0.7561462E-02  0.1188510E+00
         -2   -1    0    0    0  501 -0.00000000000E+00  0.00000000000E+00  0.57430058008E+02  0.57430058008E+02  0.00000000000E+00 0.  1.
          2   -1    0    0  501    0  0.00000000000E+00 -0.00000000000E+00 -0.61903516880E+03  0.61903516880E+03  0.00000000000E+00 0. -1.
         25    2    1    2    0    0 -0.12253252777E+03  0.92540821788E+02 -0.24835661790E+03  0.31765735662E+03  0.12508861860E+03 0.  0.
          5    1    3    3  502    0 -0.32268815935E+02  0.50629950695E+02 -0.19619625185E+03  0.20521966287E+03  0.41800000000E+01 0.  1.
         -5    1    3    3    0  502 -0.90263711830E+02  0.41910871094E+02 -0.52160366050E+02  0.11243769375E+03  0.41800000000E+01 0.  1.
        -11    1    1    2    0    0  0.69155856662E+02 -0.79927383290E+02 -0.13008945191E+03  0.16761319938E+03  0.00000000000E+00 0.  1.
         11    1    1    2    0    0  0.53376671103E+02 -0.12613438498E+02 -0.18315904099E+03  0.19119467081E+03  0.00000000000E+00 0. -1.
</event>
<event>
 7    1  0.2564986E-009  0.9150704E+02  0.7561462E-02  0.1299243E+00
         -2   -1    0    0    0  501 -0.00000000000E+00  0.00000000000E+00  0.30827562644E+02  0.30827562644E+02  0.00000000000E+00 0.  1.
          2   -1    0    0  501    0  0.00000000000E+00 -0.00000000000E+00 -0.56128597421E+03  0.56128597421E+03  0.00000000000E+00 0. -1.
         25    2    1    2    0    0  0.71686840248E+00 -0.62132386056E+02 -0.38759286288E+03  0.41199137147E+03  0.12509082906E+03 0.  0.
          5    1    3    3  502    0 -0.92619372179E+01  0.11891328268E+02 -0.28281707178E+03  0.28324928183E+03  0.41800000000E+01 0.  1.
         -5    1    3    3    0  502  0.99788056204E+01 -0.74023714324E+02 -0.10477579110E+03  0.12874208964E+03  0.41800000000E+01 0.  1.
        -11    1    1    2    0    0 -0.10870563236E+02  0.75217968238E+02 -0.63468617599E+02  0.99016045725E+02  0.00000000000E+00 0.  1.
         11    1    1    2    0    0  0.10153694833E+02 -0.13085582183E+02 -0.79396931085E+02  0.81106119656E+02  0.00000000000E+00 0. -1.
</event>
<event>
 7    1  0.2564986E-009  0.1466748E+03  0.7561462E-02  0.1204620E+00
         -2   -1    0    0    0  501 -0.00000000000E+00  0.00000000000E+00  0.57276008054E+02  0.57276008054E+02  0.00000000000E+00 0.  1.
          2   -1    0    0  501    0  0.00000000000E+00 -0.00000000000E+00 -0.56019448663E+03  0.56019448663E+03  0.00000000000E+00 0. -1.
         25    2    1    2    0    0 -0.96770312759E+02 -0.26324149993E+02 -0.43568141743E+03  0.46424552282E+03  0.12509258035E+03 0.  0.
          5    1    3    3  502    0 -0.12511139190E+03 -0.17817404890E+02 -0.30461196446E+03  0.32981243396E+03  0.41800000000E+01 0. -1.
         -5    1    3    3    0  502  0.28341079141E+02 -0.85067451029E+01 -0.13106945297E+03  0.13443308886E+03  0.41800000000E+01 0. -1.
        -11    1    1    2    0    0  0.61143901882E+02 -0.31746797704E+02 -0.26301531193E+02  0.73744196008E+02  0.00000000000E+00 0.  1.
         11    1    1    2    0    0  0.35626410877E+02  0.58070947697E+02 -0.40935529953E+02  0.79480775858E+02  0.00000000000E+00 0. -1.
</event>
<event>
 7    1  0.2564986E-009  0.1012405E+03  0.7561462E-02  0.1277709E+00
          2   -1    0    0  501    0  0.00000000000E+00  0.00000000000E+00  0.25230797117E+03  0.25230797117E+03  0.00000000000E+00 0. -1.
         -2   -1    0    0    0  501 -0.00000000000E+00 -0.00000000000E+00 -0.60782177860E+02  0.60782177860E+02  0.00000000000E+00 0.  1.
         25    2    1    2    0    0  0.36370521724E+02 -0.51128221025E+01  0.48358122827E+02  0.13905091808E+03  0.12509074297E+03 0.  0.
          5    1    3    3  502    0  0.39761097588E+02 -0.60252356303E+02  0.41104250812E+02  0.83176457945E+02  0.41800000000E+01 0. -1.
         -5    1    3    3    0  502 -0.33905758646E+01  0.55139534201E+02  0.72538720153E+01  0.55874460139E+02  0.41800000000E+01 0. -1.
        -11    1    1    2    0    0 -0.12632544186E+02  0.34646821944E+02  0.14028804976E+02  0.39456188520E+02  0.00000000000E+00 0.  1.
         11    1    1    2    0    0 -0.23737977537E+02 -0.29533999842E+02  0.12913886551E+03  0.13458304243E+03  0.00000000000E+00 0. -1.
</event>
<event>
 7    1  0.2564986E-009  0.8983595E+02  0.7561462E-02  0.1303249E+00
          2   -1    0    0  501    0  0.00000000000E+00  0.00000000000E+00  0.60847395775E+03  0.60847395775E+03  0.00000000000E+00 0. -1.
         -2   -1    0    0    0  501 -0.00000000000E+00 -0.00000000000E+00 -0.48781942321E+02  0.48781942321E+02  0.00000000000E+00 0.  1.
         25    2    1    2    0    0  0.53291506256E+02 -0.59368680000E+02  0.50108856745E+03  0.52259126486E+03  0.12508897982E+03 0.  0.
          5    1    3    3  502    0  0.13748688659E+02 -0.28965778092E+02  0.44967540602E+03  0.45083642923E+03  0.41800000000E+01 0. -1.
         -5    1    3    3    0  502  0.39542817597E+02 -0.30402901908E+02  0.51413161432E+02  0.71754835631E+02  0.41800000000E+01 0. -1.
        -11    1    1    2    0    0 -0.54723196992E+02  0.20575500906E+02  0.72765560731E+02  0.93342414556E+02  0.00000000000E+00 0. -1.
         11    1    1    2    0    0  0.14316907364E+01  0.38793179094E+02 -0.14162112752E+02  0.41322220659E+02  0.00000000000E+00 0.  1.
</event>
<event>
 7    1  0.2984048E-009  0.1140256E+03  0.7561462E-02  0.1253292E+00
         -1   -1    0    0    0  501 -0.00000000000E+00  0.00000000000E+00  0.12790712109E+02  0.12790712109E+02  0.00000000000E+00 0.  1.
          1   -1    0    0  501    0  0.00000000000E+00 -0.00000000000E+00 -0.14109149165E+04  0.14109149165E+04  0.00000000000E+00 0. -1.
         25    2    1    2    0    0  0.62460000651E+02  0.40788432990E+02 -0.90873966405E+03  0.92033647985E+03  0.12508601512E+03 0.  0.
          5    1    3    3  502    0  0.54861720991E+02 -0.23457270371E+02 -0.20307452493E+03  0.21169975682E+03  0.41800000000E+01 0.  1.
         -5    1    3    3    0  502  0.75982796596E+01  0.64245703361E+02 -0.70566513913E+03  0.70863672303E+03  0.41800000000E+01 0.  1.
        -11    1    1    2    0    0 -0.49373984777E+02 -0.61527100857E+02 -0.45080686075E+03  0.45765729560E+03  0.00000000000E+00 0. -1.
         11    1    1    2    0    0 -0.13086015874E+02  0.20738667867E+02 -0.38577679550E+02  0.45711853122E+02  0.00000000000E+00 0.  1.
</event>
<event>
 7    1  0.2564986E-009  0.9795789E+02  0.7561462E-02  0.1284650E+00
         -2   -1    0    0    0  501 -0.00000000000E+00  0.00000000000E+00  0.24998912522E+03  0.24998912522E+03  0.00000000000E+00 0. -1.
          2   -1    0    0  501    0  0.00000000000E+00 -0.00000000000E+00 -0.50002480082E+02  0.50002480082E+02  0.00000000000E+00 0.  1.
         25    2    1    2    0    0 -0.33970251191E+02  0.17568586679E+02  0.11011899035E+03  0.17098767073E+03  0.12509179950E+03 0.  0.
          5    1    3    3  502    0 -0.20324625734E+02  0.58589640792E+02  0.11136600658E+03  0.12753703870E+03  0.41800000000E+01 0.  1.
         -5    1    3    3    0  502 -0.13645625458E+02 -0.41021054113E+02 -0.12470162263E+01  0.43450632034E+02  0.41800000000E+01 0.  1.
        -11    1    1    2    0    0  0.15177460553E+02  0.33030832551E+02  0.50380857426E+02  0.62125856154E+02  0.00000000000E+00 0. -1.
         11    1    1    2    0    0  0.18792790639E+02 -0.50599419230E+02  0.39486797356E+02  0.66878078410E+02  0.00000000000E+00 0.  1.
</event>
<event>
 7    1  0.2564986E-009  0.8184059E+02  0.7561462E-02  0.1323908E+00
          2   -1    0    0  501    0  0.00000000000E+00  0.00000000000E+00  0.36536935649E+03  0.36536935649E+03  0.00000000000E+00 0. -1.
         -2   -1    0    0    0  501 -0.00000000000E+00 -0.00000000000E+00 -0.62506181441E+02  0.62506181441E+02  0.00000000000E+00 0.  1.
         25    2    1    2    0    0  0.18512228944E+02  0.58052024677E+01  0.17704229455E+02  0.12781972818E+03  0.12509212675E+03 0.  0.
          5    1    3    3  502    0 -0.13020141837E+02 -0.23597255337E+02 -0.44396625777E+02  0.52104580732E+02  0.41800000000E+01 0.  1.
         -5    1    3    3    0  502  0.31532370781E+02  0.29402457804E+02  0.62100855232E+02  0.75715147445E+02  0.41800000000E+01 0.  1.
        -11    1    1    2    0    0 -0.38417297669E+02 -0.38772265774E+02  0.15566448964E+03  0.16495639026E+03  0.00000000000E+00 0.  1.
         11    1    1    2    0    0  0.19905068725E+02  0.32967063306E+02  0.12949445596E+03  0.13509941949E+03  0.00000000000E+00 0. -1.
</event>
<event>
 7    1  0.2564986E-009  0.1100013E+03  0.7561462E-02  0.1260568E+00
         -2   -1    0    0    0  501 -0.00000000000E+00  0.00000000000E+00  0.19984023825E+02  0.19984023825E+02  0.00000000000E+00 0.  1.
          2   -1    0    0  501    0  0.00000000000E+00 -0.00000000000E+00 -0.84059870502E+03  0.84059870502E+03  0.00000000000E+00 0. -1.
         25    2    1    2    0    0 -0.66039595251E+02 -0.29557117870E+02 -0.49668633993E+03  0.51727985073E+03  0.12508506042E+03 0.  0.
          5    1    3    3  502    0 -0.39242528118E+02  0.36593832257E+02 -0.34982122666E+03  0.35393706728E+03  0.41800000000E+01 0.  1.
         -5    1    3    3    0  502 -0.26797067133E+02 -0.66150950127E+02 -0.14686511327E+03  0.16334278345E+03  0.41800000000E+01 0.  1.
        -11    1    1    2    0    0  0.77029157830E+01 -0.17899338134E+02 -0.13036523471E+02  0.23445088215E+02  0.00000000000E+00 0.  1.
         11    1    1    2    0    0  0.58336679468E+02  0.47456456004E+02 -0.31089181779E+03  0.31985778989E+03  0.00000000000E+00 0. -1.
</event>
<event>
 7    1  0.2564986E-009  0.8184167E+02  0.7561462E-02  0.1323905E+00
          2   -1    0    0  501    0  0.00000000000E+00  0.00000000000E+00  0.24390988005E+03  0.24390988005E+03  0.00000000000E+00 0. -1.
         -2   -1    0    0    0  501 -0.00000000000E+00 -0.00000000000E+00 -0.51459812078E+02  0.51459812078E+02  0.00000000000E+00 0.  1.
         25    2    1    2    0    0  0.97702892265E+00 -0.22006184524E+02  0.85087418620E+02  0.15288106011E+03  0.12509005952E+03 0.  0.
          5    1    3    3  502    0  0.44765370571E+02  0.27976221370E+01 -0.91492076889E+01  0.45966786850E+02  0.41800000000E+01 0.  1.
         -5    1    3    3    0  502 -0.43788341649E+02 -0.24803806661E+02  0.94236626309E+02  0.10691427326E+03  0.41800000000E+01 0.  1.
        -11    1    1    2    0    0 -0.30837799710E+02  0.22662540002E+02  0.10587996599E+03  0.11258387011E+03  0.00000000000E+00 0. -1.
         11    1    1    2    0    0  0.29860770787E+02 -0.65635547794E+00  0.14826833561E+01  0.29904761903E+02  0.00000000000E+00 0.  1.
</event>
<event>
 7    1  0.2564986E-009  0.1716779E+03  0.7561462E-02  0.1176109E+00
          1   -1    0    0  501    0  0.00000000000E+00  0.00000000000E+00  0.12382907552E+03  0.12382907552E+03  0.00000000000E+00 0. -1.
         -1   -1    0    0    0  501 -0.00000000000E+00 -0.00000000000E+00 -0.26996250352E+03  0.26996250352E+03  0.00000000000E+00 0.  1.
         25    2    1    2    0    0  0.14042684155E+03 -0.36747592283E+02 -0.53295324233E+02  0.19888235779E+03  0.12507484676E+03 0.  0.
          5    1    3    3  502    0  0.17396646902E+02 -0.49046051920E+02  0.19042265747E+02  0.55571924720E+02  0.41800000000E+01 0.  1.
         -5    1    3    3    0  502  0.12303019464E+03  0.12298459637E+02 -0.72337589980E+02  0.14331043307E+03  0.41800000000E+01 0.  1.
        -11    1    1    2    0    0 -0.12940963008E+02 -0.23193769191E+02 -0.68064055446E+00  0.26568453557E+02  0.00000000000E+00 0.  1.
         11    1    1    2    0    0 -0.12748587854E+03  0.59941361474E+02 -0.92157463213E+02  0.16834076769E+03  0.00000000000E+00 0. -1.
</event>
<event>
 7    1  0.2564986E-009  0.9710003E+02  0.7561462E-02  0.1286515E+00
         -1   -1    0    0    0  501 -0.00000000000E+00  0.00000000000E+00  0.12745268006E+03  0.12745268006E+03  0.00000000000E+00 0.  1.
          1   -1    0    0  501    0  0.00000000000E+00 -0.00000000000E+00 -0.10787138995E+03  0.10787138995E+03  0.00000000000E+00 0. -1.
         25    2    1    2    0    0 -0.12149600972E+02 -0.12144032970E+02 -0.35261875254E+02  0.13109447945E+03  0.12508905770E+03 0.  0.
          5    1    3    3  502    0  0.27304383562E+02  0.45662207481E+02 -0.28912843245E+02  0.60695893257E+02  0.41800000000E+01 0. -1.
         -5    1    3    3    0  502 -0.39453984534E+02 -0.57806240452E+02 -0.63490320086E+01  0.70398586194E+02  0.41800000000E+01 0. -1.
        -11    1    1    2    0    0  0.30690871478E+02 -0.17816665241E+02  0.58898315365E+02  0.68763178411E+02  0.00000000000E+00 0.  1.
         11    1    1    2    0    0 -0.18541270506E+02  0.29960698212E+02 -0.40551499950E+01  0.35466412150E+02  0.00000000000E+00 0. -1.
</event>
<event>
 7    1  0.2564986E-009  0.9155447E+02  0.7561462E-02  0.1299130E+00
          2   -1    0    0  501    0  0.00000000000E+00  0.00000000000E+00  0.13021975905E+03  0.13021975905E+03  0.00000000000E+00 0. -1.
         -2   -1    0    0    0  501 -0.00000000000E+00 -0.00000000000E+00 -0.16303042476E+03  0.16303042476E+03  0.00000000000E+00 0.  1.
         25    2    1    2    0    0 -0.21295435333E+02  0.37684389742E+02  0.67524527901E+02  0.14859627132E+03  0.12509069184E+03 0.  0.
          5    1    3    3  502    0  0.22281650691E+02  0.24347425080E+02  0.91194948395E+02  0.97073477729E+02  0.41800000000E+01 0.  1.
         -5    1    3    3    0  502 -0.43577086024E+02  0.13336964662E+02 -0.23670420494E+02  0.51522793588E+02  0.41800000000E+01 0.  1.
        -11    1    1    2    0    0 -0.37677597613E+02 -0.10322032012E+02 -0.34298483055E+02  0.51985879300E+02  0.00000000000E+00 0.  1.
         11    1    1    2    0    0  0.58973032946E+02 -0.27362357730E+02 -0.66036710560E+02  0.92668033199E+02  0.00000000000E+00 0. -1.
</event>
<event>
 7    1  0.2564986E-009  0.9485977E+02  0.7561462E-02  0.1291492E+00
         -1   -1    0    0    0  501 -0.00000000000E+00  0.00000000000E+00  0.77410158303E+02  0.77410158303E+02  0.00000000000E+00 0.  1.
          1   -1    0    0  501    0  0.00000000000E+00 -0.00000000000E+00 -0.46250872239E+03  0.46250872239E+03  0.00000000000E+00 0. -1.
         25    2    1    2    0    0  0.23327857171E+02 -0.29737659352E+02 -0.41578057401E+03  0.43583200338E+03  0.12509009611E+03 0.  0.
          5    1    3    3  502    0  0.41243751858E+02  0.15060243372E+02 -0.35680475915E+03  0.35952046750E+03  0.41800000000E+01 0.  1.
         -5    1    3    3    0  502 -0.17915894687E+02 -0.44797902724E+02 -0.58975814859E+02  0.76311535886E+02  0.41800000000E+01 0.  1.
        -11    1    1    2    0    0  0.34412375589E+02  0.69271893096E+01  0.21931294491E+02  0.41390569257E+02  0.00000000000E+00 0.  1.
         11    1    1    2    0    0 -0.57740232760E+02  0.22810470042E+02  0.87507154310E+01  0.62696308052E+02  0.00000000000E+00 0. -1.
</event>
<event>
 7    1  0.2564986E-009  0.2256836E+03  0.7561462E-02  0.1129715E+00
          1   -1    0    0  501    0  0.00000000000E+00  0.00000000000E+00  0.10746996027E+03  0.10746996027E+03  0.00000000000E+00 0. -1.
         -1   -1    0    0    0  501 -0.00000000000E+00 -0.00000000000E+00 -0.48311101717E+03  0.48311101717E+03  0.00000000000E+00 0.  1.
         25    2    1    2    0    0  0.14813154782E+03  0.13351698298E+03 -0.16699902629E+03  0.28862531402E+03  0.12508459901E+03 0.  0.
          5    1    3    3  502    0  0.16326841575E+02 -0.23291490959E+02 -0.33207281020E+02  0.43923287896E+02  0.41800000000E+01 0. -1.
         -5    1    3    3    0  502  0.13180470624E+03  0.15680847394E+03 -0.13379174527E+03  0.24470202613E+03  0.41800000000E+01 0. -1.
        -11    1    1    2    0    0 -0.15506426228E+03 -0.10233861504E+03 -0.17007653461E+03  0.25188121246E+03  0.00000000000E+00 0. -1.
         11    1    1    2    0    0  0.69327144597E+01 -0.31178367941E+02 -0.38565495999E+02  0.50074450960E+02  0.00000000000E+00 0.  1.
</event>
<event>
 7    1  0.2564986E-009  0.4642142E+02  0.7561462E-02  0.1465658E+00
         -1   -1    0    0    0  501 -0.00000000000E+00  0.00000000000E+00  0.34171106784E+02  0.34171106784E+02  0.00000000000E+00 0.  1.
          1   -1    0    0  501    0  0.00000000000E+00 -0.00000000000E+00 -0.41218073349E+03  0.41218073349E+03  0.00000000000E+00 0. -1.
         25    2    1    2    0    0  0.85975021949E+01  0.42323525594E+02 -0.25204087928E+03  0.28467941620E+03  0.12511022068E+03 0.  0.
          5    1    3    3  502    0  0.15711069692E+01  0.10724534103E+02  0.13116111108E+02  0.17521095269E+02  0.41800000000E+01 0. -1.
         -5    1    3    3    0  502  0.70263952257E+01  0.31598991491E+02 -0.26515699039E+03  0.26715832093E+03  0.41800000000E+01 0. -1.
        -11    1    1    2    0    0  0.75573739277E+01 -0.11058883286E+02  0.12790249148E+02  0.18520347553E+02  0.00000000000E+00 0.  1.
         11    1    1    2    0    0 -0.16154876123E+02 -0.31264642308E+02 -0.13875899657E+03  0.14315207652E+03  0.00000000000E+00 0. -1.
</event>
<event>
 7    1  0.2564986E-009  0.8589958E+02  0.7561462E-02  0.1313097E+00
         -1   -1    0    0    0  501 -0.00000000000E+00  0.00000000000E+00  0.72222851690E+02  0.72222851690E+02  0.00000000000E+00 0.  1.
          1   -1    0    0  501    0  0.00000000000E+00 -0.00000000000E+00 -0.22768854956E+03  0.22768854956E+03  0.00000000000E+00 0. -1.
         25    2    1    2    0    0 -0.62798625314E+02  0.22005908880E+02 -0.67045157545E+02  0.15674971713E+03  0.12508994085E+03 0.  0.
          5    1    3    3  502    0 -0.58055082413E+02  0.31578563814E+02  0.19826186350E+02  0.69124151726E+02  0.41800000000E+01 0.  1.
         -5    1    3    3    0  502 -0.47435429011E+01 -0.95726549341E+01 -0.86871343896E+02  0.87625565402E+02  0.41800000000E+01 0.  1.
        -11    1    1    2    0    0 -0.55948460126E+01 -0.25029224725E+02  0.61868056085E+01  0.26382588119E+02  0.00000000000E+00 0.  1.
         11    1    1    2    0    0  0.68393471327E+02  0.30233158447E+01 -0.94607345937E+02  0.11677909601E+03  0.00000000000E+00 0. -1.
</event>
<event>
 7    1  0.2564986E-009  0.4669158E+02  0.7561462E-02  0.1464050E+00
         -1   -1    0    0    0  501 -0.00000000000E+00  0.00000000000E+00  0.12373958175E+03  0.12373958175E+03  0.00000000000E+00 0.  1.
          1   -1    0    0  501    0  0.00000000000E+00 -0.00000000000E+00 -0.12020110906E+03  0.12020110906E+03  0.00000000000E+00 0. -1.
         25    2    1    2    0    0  0.26430649663E+01 -0.40946930010E+02  0.35814333293E+02  0.13643225433E+03  0.12508979448E+03 0.  0.
          5    1    3    3  502    0 -0.56295087953E+01 -0.28946227884E+02  0.82306695664E+02  0.87529652285E+02  0.41800000000E+01 0. -1.
         -5    1    3    3    0  502  0.82725737616E+01 -0.12000702126E+02 -0.46492362371E+02  0.48902602047E+02  0.41800000000E+01 0. -1.
        -11    1    1    2    0    0 -0.13887191406E+02  0.28234405756E+02  0.29689529633E+02  0.43260882138E+02  0.00000000000E+00 0.  1.
         11    1    1    2    0    0  0.11244126440E+02  0.12712524253E+02 -0.61965390236E+02  0.64247554345E+02  0.00000000000E+00 0. -1.
</event>
<event>
 7    1  0.2564986E-009  0.2053764E+03  0.7561462E-02  0.1145281E+00
          2   -1    0    0  501    0  0.00000000000E+00  0.00000000000E+00  0.69679106490E+03  0.69679106490E+03  0.00000000000E+00 0. -1.
         -2   -1    0    0    0  501 -0.00000000000E+00 -0.00000000000E+00 -0.68823240746E+02  0.68823240746E+02  0.00000000000E+00 0.  1.
         25    2    1    2    0    0 -0.32293720847E+02  0.18413427314E+03  0.38389054525E+03  0.44493620802E+03  0.12509182039E+03 0.  0.
          5    1    3    3  502    0  0.23923604985E+02 -0.59541516089E+01  0.27980846589E+02  0.37525870712E+02  0.41800000000E+01 0. -1.
         -5    1    3    3    0  502 -0.56217325832E+02  0.19008842475E+03  0.35590969866E+03  0.40741033731E+03  0.41800000000E+01 0. -1.
        -11    1    1    2    0    0  0.59393112439E-01 -0.30347606733E+02  0.11003437944E+03  0.11414265382E+03  0.00000000000E+00 0. -1.
         11    1    1    2    0    0  0.32234327734E+02 -0.15378666641E+03  0.13404289946E+03  0.20653544380E+03  0.00000000000E+00 0.  1.
</event>
<event>
 7    1  0.2564986E-009  0.9755912E+02  0.7561462E-02  0.1285514E+00
         -2   -1    0    0    0  501 -0.00000000000E+00  0.00000000000E+00  0.31816072594E+02  0.31816072594E+02  0.00000000000E+00 0.  1.
          2   -1    0    0  501    0  0.00000000000E+00 -0.00000000000E+00 -0.46360608292E+03  0.46360608292E+03  0.00000000000E+00 0. -1.
         25    2    1    2    0    0  0.32920308934E+02  0.39196004494E+02 -0.19892503887E+03  0.24049671943E+03  0.12508967765E+03 0.  0.
          5    1    3    3  502    0  0.26918222939E+02 -0.22439024229E+02 -0.35161070813E+01  0.35467392681E+02  0.41800000000E+01 0. -1.
         -5    1    3    3    0  502  0.60020859953E+01  0.61635028723E+02 -0.19540893179E+03  0.20502932675E+03  0.41800000000E+01 0. -1.
        -11    1    1    2    0    0  0.86764092042E+01  0.22064927004E+02 -0.10046975048E+03  0.10322941365E+03  0.00000000000E+00 0. -1.
         11    1    1    2    0    0 -0.41596718138E+02 -0.61260931498E+02 -0.13239522098E+03  0.15169602244E+03  0.00000000000E+00 0.  1.
</event>
<event>
 7    1  0.2564986E-009  0.1300083E+03  0.7561462E-02  0.1227443E+00
          4   -1    0    0  501    0  0.00000000000E+00  0.00000000000E+00  0.65848476639E+03  0.65848476639E+03  0.00000000000E+00 0. -1.
         -4   -1    0    0    0  501 -0.00000000000E+00 -0.00000000000E+00 -0.27466064961E+02  0.27466064961E+02  0.00000000000E+00 0.  1.
         25    2    1    2    0    0  0.70451791444E+02 -0.33058746244E+02  0.31579858543E+03  0.34847044477E+03  0.12508624504E+03 0.  0.
          5    1    3    3  502    0  0.57583523580E+02  0.39995281214E+02  0.18735036109E+03  0.20008277014E+03  0.41800000000E+01 0. -1.
         -5    1    3    3    0  502  0.12868267864E+02 -0.73054027458E+02  0.12844822434E+03  0.14838767462E+03  0.41800000000E+01 0. -1.
        -11    1    1    2    0    0 -0.27364822511E+01  0.46389491411E+02  0.81878442748E+02  0.94146442499E+02  0.00000000000E+00 0. -1.
         11    1    1    2    0    0 -0.67715309193E+02 -0.13330745166E+02  0.23334167325E+03  0.24333394408E+03  0.00000000000E+00 0.  1.
</event>
<event>
 7    1  0.2564986E-009  0.9975971E+02  0.7561462E-02  0.1280802E+00
          2   -1    0    0  501    0  0.00000000000E+00  0.00000000000E+00  0.13291802645E+03  0.13291802645E+03  0.00000000000E+00 0. -1.
         -2   -1    0    0    0  501 -0.00000000000E+00 -0.00000000000E+00 -0.10139031807E+03  0.10139031807E+03  0.00000000000E+00 0.  1.
         25    2    1    2    0    0  0.68249602153E+01  0.18285193750E+02 -0.16743777559E+02  0.12770380515E+03  0.12508788659E+03 0.  0.
          5    1    3    3  502    0  0.58352796782E+02  0.17933510575E+02 -0.37754091495E+02  0.71899259512E+02  0.41800000000E+01 0. -1.
         -5    1    3    3    0  502 -0.51527836567E+02  0.35168317518E+00  0.21010313935E+02  0.55804545639E+02  0.41800000000E+01 0. -1.
        -11    1    1    2    0    0 -0.25560732019E+01  0.34038459571E+02 -0.16314383849E+01  0.34173261937E+02  0.00000000000E+00 0.  1.
         11    1    1    2    0    0 -0.42688870133E+01 -0.52323653321E+02  0.49902924327E+02  0.72431277426E+02  0.00000000000E+00 0. -1.
</event>
<event>
 7    1  0.2564986E-009  0.1059122E+03  0.7561462E-02  0.1268333E+00
          1   -1    0    0  501    0  0.00000000000E+00  0.00000000000E+00  0.18010115497E+02  0.18010115497E+02  0.00000000000E+00 0. -1.
         -1   -1    0    0    0  501 -0.00000000000E+00 -0.00000000000E+00 -0.75599388832E+03  0.75599388832E+03  0.00000000000E+00 0.  1.
         25    2    1    2    0    0 -0.23200137638E+02  0.23500293751E+02 -0.51492723789E+03  0.53093198952E+03  0.12509279346E+03 0.  0.
          5    1    3    3  502    0 -0.34474875136E+02  0.71697393167E+02 -0.31080556608E+03  0.32085293439E+03  0.41800000000E+01 0. -1.
         -5    1    3    3    0  502  0.11274737498E+02 -0.48197099416E+02 -0.20412167182E+03  0.21007905513E+03  0.41800000000E+01 0. -1.
        -11    1    1    2    0    0  0.43611421542E+02 -0.37677765513E+02 -0.20333711914E+03  0.21134699932E+03  0.00000000000E+00 0.  1.
         11    1    1    2    0    0 -0.20411283904E+02  0.14177471763E+02 -0.19719415789E+02  0.31725014976E+02  0.00000000000E+00 0. -1.
</event>
<event>
 7    1  0.2564986E-009  0.5773989E+02  0.7561462E-02  0.1407569E+00
         -1   -1    0    0    0  501 -0.00000000000E+00  0.00000000000E+00  0.43663007905E+03  0.43663007905E+03  0.00000000000E+00 0.  1.
          1   -1    0    0  501    0  0.00000000000E+00 -0.00000000000E+00 -0.35907757845E+02  0.35907757845E+02  0.00000000000E+00 0. -1.
         25    2    1    2    0    0 -0.26985813169E+02  0.47648166353E+01  0.32522145805E+03  0.34952484525E+03  0.12509069944E+03 0.  0.
          5    1    3    3  502    0  0.23581265883E+02  0.10051465051E+02  0.28045100945E+03  0.28165111247E+03  0.41800000000E+01 0. -1.
         -5    1    3    3    0  502 -0.50567079052E+02 -0.52866484153E+01  0.44770448593E+02  0.67873732788E+02  0.41800000000E+01 0. -1.
        -11    1    1    2    0    0  0.11405253578E+02  0.11341031206E+02  0.93125139773E+02  0.94503917674E+02  0.00000000000E+00 0.  1.
         11    1    1    2    0    0  0.15580559591E+02 -0.16105847842E+02 -0.17624276619E+02  0.28509073963E+02  0.00000000000E+00 0. -1.
</event>
<event>
 7    1  0.2564986E-009  0.1531220E+03  0.7561462E-02  0.1196688E+00
          1   -1    0    0  501    0  0.00000000000E+00  0.00000000000E+00  0.18007238516E+03  0.18007238516E+03  0.00000000000E+00 0. -1.
         -1   -1    0    0    0  501 -0.00000000000E+00 -0.00000000000E+00 -0.17742389722E+03  0.17742389722E+03  0.00000000000E+00 0.  1.
         25    2    1    2    0    0 -0.36166759379E+02 -0.13267094864E+03  0.16059805397E+02  0.18659173229E+03  0.12509573180E+03 0.  0.
          5    1    3    3  502    0  0.41302460883E+01  0.88634641637E+01 -0.30407819501E+02  0.32213783021E+02  0.41800000000E+01 0.  1.
         -5    1    3    3    0  502 -0.40297005467E+02 -0.14153441281E+03  0.46467624898E+02  0.15437794927E+03  0.41800000000E+01 0.  1.
        -11    1    1    2    0    0 -0.13493181198E+02  0.51462853356E+02 -0.45959796502E+02  0.70305007709E+02  0.00000000000E+00 0.  1.
         11    1    1    2    0    0  0.49659940577E+02  0.81208095286E+02  0.32548479041E+02  0.10059954237E+03  0.00000000000E+00 0. -1.
</event>
<event>
 7    1  0.2564986E-009  0.1232688E+03  0.7561462E-02  0.1237800E+00
         -1   -1    0    0    0  501 -0.00000000000E+00  0.00000000000E+00  0.31826838142E+03  0.31826838142E+03  0.00000000000E+00 0.  1.
          1   -1    0    0  501    0  0.00000000000E+00 -0.00000000000E+00 -0.71355552378E+02  0.71355552378E+02  0.00000000000E+00 0. -1.
         25    2    1    2    0    0 -0.57554135821E+02 -0.71022957462E+02  0.19774509369E+03  0.25120563827E+03  0.12507762222E+03 0.  0.
          5    1    3    3  502    0 -0.59494470077E+02 -0.90247420785E+02  0.87305075704E+02  0.13901020672E+03  0.41800000000E+01 0.  1.
         -5    1    3    3    0  502  0.19403342559E+01  0.19224463323E+02  0.11044001799E+03  0.11219543155E+03  0.41800000000E+01 0.  1.
        -11    1    1    2    0    0 -0.44321181436E+01  0.54179336438E+02  0.50461248365E+02  0.74171300074E+02  0.00000000000E+00 0.  1.
         11    1    1    2    0    0  0.61986253964E+02  0.16843621024E+02 -0.12935130126E+01  0.64246995460E+02  0.00000000000E+00 0. -1.
</event>
<event>
 7    1  0.2564986E-009  0.8998441E+02  0.7561462E-02  0.1302889E+00
          1   -1    0    0  501    0  0.00000000000E+00  0.00000000000E+00  0.51828064726E+03  0.51828064726E+03  0.00000000000E+00 0. -1.
         -1   -1    0    0    0  501 -0.00000000000E+00 -0.00000000000E+00 -0.37886481169E+02  0.37886481169E+02  0.00000000000E+00 0.  1.
         25    2    1    2    0    0 -0.83910190618E+02 -0.72716916317E+01  0.30441809668E+03  0.33972284201E+03  0.12508970464E+03 0.  0.
          5    1    3    3  502    0 -0.33932407881E+02 -0.13206137260E+02  0.60936590035E+01  0.37153942536E+02  0.41800000000E+01 0. -1.
         -5    1    3    3    0  502 -0.49977782737E+02  0.59344456286E+01  0.29832443768E+03  0.30256889947E+03  0.41800000000E+01 0. -1.
        -11    1    1    2    0    0  0.61415759127E+02  0.22768155327E+02  0.37863970570E+02  0.75656887548E+02  0.00000000000E+00 0.  1.
         11    1    1    2    0    0  0.22494431491E+02 -0.15496463696E+02  0.13811209885E+03  0.14078739888E+03  0.00000000000E+00 0. -1.
</event>
<event>
 7    1  0.2564986E-009  0.1090097E+03  0.7561462E-02  0.1262415E+00
         -2   -1    0    0    0  501 -0.00000000000E+00  0.00000000000E+00  0.24683242270E+02  0.24683242270E+02  0.00000000000E+00 0.  1.
          2   -1    0    0  501    0  0.00000000000E+00 -0.00000000000E+00 -0.60111354339E+03  0.60111354339E+03  0.00000000000E+00 0. -1.
         25    2    1    2    0    0 -0.23199591991E+02 -0.42868835988E+02 -0.39213720915E+03  0.41448196255E+03  0.12509096017E+03 0.  0.
          5    1    3    3  502    0  0.16458403595E+02  0.34475783038E+02 -0.60958871720E+02  0.72061883866E+02  0.41800000000E+01 0.  1.
         -5    1    3    3    0  502 -0.39657995587E+02 -0.77344619027E+02 -0.33117833743E+03  0.34242007868E+03  0.41800000000E+01 0.  1.
        -11    1    1    2    0    0 -0.20548547511E+02  0.44261377480E+02 -0.14316627574E+03  0.15125440440E+03  0.00000000000E+00 0.  1.
         11    1    1    2    0    0  0.43748139503E+02 -0.13925414915E+01 -0.41126816232E+02  0.60060418706E+02  0.00000000000E+00 0. -1.
</event>
<event>
 7    1  0.2564986E-009  0.1411753E+03  0.7561462E-02  0.1211756E+00
          1   -1    0    0  501    0  0.00000000000E+00  0.00000000000E+00  0.60057260519E+02  0.60057260519E+02  0.00000000000E+00 0. -1.
         -1   -1    0    0    0  501 -0.00000000000E+00 -0.00000000000E+00 -0.48391138305E+03  0.48391138305E+03  0.00000000000E+00 0.  1.
         25    2    1    2    0    0 -0.11058333014E+03 -0.32895830414E+02 -0.32790074317E+03  0.36942981580E+03  0.12509469562E+03 0.  0.
          5    1    3    3  502    0 -0.18504237410E+02 -0.64782423145E+02 -0.18023356441E+03  0.19245981214E+03  0.41800000000E+01 0.  1.
         -5    1    3    3    0  502 -0.92079092727E+02  0.31886592730E+02 -0.14766717876E+03  0.17697000366E+03  0.41800000000E+01 0.  1.
        -11    1    1    2    0    0  0.37681720989E+02  0.87928352177E+00 -0.86502475584E+02  0.94357636248E+02  0.00000000000E+00 0.  1.
         11    1    1    2    0    0  0.72901609148E+02  0.32016546893E+02 -0.94509037826E+01  0.80181191520E+02  0.00000000000E+00 0. -1.
</event>
<event>
 7    1  0.2564986E-009  0.1944742E+03  0.7561462E-02  0.1154487E+00
          2   -1    0    0  501    0  0.00000000000E+00  0.00000000000E+00  0.63515849611E+03  0.63515849611E+03  0.00000000000E+00 0. -1.
         -2   -1    0    0    0  501 -0.00000000000E+00 -0.00000000000E+00 -0.94788857061E+02  0.94788857061E+02  0.00000000000E+00 0.  1.
         25    2    1    2    0    0 -0.11138455310E+03 -0.12482015071E+03  0.65540403521E+02  0.21892526293E+03  0.12508452168E+03 0.  0.
          5    1    3    3  502    0 -0.22841146655E+02 -0.11549916129E+03  0.51983962989E+02  0.12876948026E+03  0.41800000000E+01 0.  1.
         -5    1    3    3    0  502 -0.88543406446E+02 -0.93209894151E+01  0.13556440532E+02  0.90155782669E+02  0.41800000000E+01 0.  1.
        -11    1    1    2    0    0  0.75685889845E+02  0.12520898064E+03  0.31594791347E+03  0.34817915902E+03  0.00000000000E+00 0.  1.
         11    1    1    2    0    0  0.35698663256E+02 -0.38882992910E+00  0.15888132206E+03  0.16284293121E+03  0.00000000000E+00 0. -1.
</event>
<event>
 7    1  0.2564986E-009  0.1015178E+03  0.7561462E-02  0.1277136E+00
          1   -1    0    0  501    0  0.00000000000E+00  0.00000000000E+00  0.39054350123E+03  0.39054350123E+03  0.00000000000E+00 0. -1.
         -1   -1    0    0    0  501 -0.00000000000E+00 -0.00000000000E+00 -0.34137841000E+02  0.34137841000E+02  0.00000000000E+00 0.  1.
         25    2    1    2    0    0  0.51213529032E+02 -0.22590301745E+02  0.15989022997E+03  0.21058597611E+03  0.12509364654E+03 0.  0.
          5    1    3    3  502    0  0.40529660280E+02 -0.67701520090E+02  0.56311264858E+02  0.97028759318E+02  0.41800000000E+01 0. -1.
         -5    1    3    3    0  502  0.10683868752E+02  0.45111218345E+02  0.10357896511E+03  0.11355721679E+03  0.41800000000E+01 0. -1.
        -11    1    1    2    0    0 -0.11516117537E+02  0.34220103694E+02  0.48847765727E+02  0.60743235644E+02  0.00000000000E+00 0.  1.
         11    1    1    2    0    0 -0.39697411495E+02 -0.11629801949E+02  0.14766766453E+03  0.15335213048E+03  0.00000000000E+00 0. -1.
</event>
<event>
 7    1  0.2564986E-009  0.9149855E+02  0.7561462E-02  0.1299263E+00
         -1   -1    0    0    0  501 -0.00000000000E+00  0.00000000000E+00  0.59422738435E+03  0.59422738435E+03  0.00000000000E+00 0.  1.
          1   -1    0    0  501    0  0.00000000000E+00 -0.00000000000E+00 -0.23920736559E+02  0.23920736559E+02  0.00000000000E+00 0. -1.
         25    2    1    2    0    0  0.42798656905E+02 -0.14663982531E+02  0.26946003847E+03  0.30050878830E+03  0.12510020822E+03 0.  0.
          5    1    3    3  502    0 -0.16609156721E+02 -0.37936075036E+02  0.26656320360E+02  0.49427135171E+02  0.41800000000E+01 0.  1.
         -5    1    3    3    0  502  0.59407813626E+02  0.23272092505E+02  0.24280371811E+03  0.25108165313E+03  0.41800000000E+01 0.  1.
        -11    1    1    2    0    0 -0.17066180956E+02 -0.24930400968E+02  0.29540054011E+02  0.42253925449E+02  0.00000000000E+00 0. -1.
         11    1    1    2    0    0 -0.25732475949E+02  0.39594383499E+02  0.27130655531E+03  0.27538540716E+03  0.00000000000E+00 0.  1.
</event>
<event>
 7    1  0.2564986E-009  0.1655054E+03  0.7561462E-02  0.1182618E+00
          1   -1    0    0  501    0  0.00000000000E+00  0.00000000000E+00  0.87047375434E+03  0.87047375434E+03  0.00000000000E+00 0. -1.
         -1   -1    0    0    0  501 -0.00000000000E+00 -0.00000000000E+00 -0.40512849878E+02  0.40512849878E+02  0.00000000000E+00 0.  1.
         25    2    1    2    0    0 -0.14264914599E+03  0.33539189610E+02  0.57847009054E+03  0.60971351054E+03  0.12509701514E+03 0.  0.
          5    1    3    3  502    0 -0.75212312753E+02 -0.21713286342E+02  0.43322472794E+03  0.44026071378E+03  0.41800000000E+01 0.  1.
         -5    1    3    3    0  502 -0.67436833238E+02  0.55252475952E+02  0.14524536260E+03  0.16945279677E+03  0.41800000000E+01 0.  1.
        -11    1    1    2    0    0  0.56874220359E+02  0.24333904967E+02  0.10618184636E+03  0.12288775517E+03  0.00000000000E+00 0. -1.
         11    1    1    2    0    0  0.85774925632E+02 -0.57873094577E+02  0.14530896756E+03  0.17838533851E+03  0.00000000000E+00 0.  1.
</event>
<event>
 7    1  0.2564986E-009  0.1208125E+03  0.7561462E-02  0.1241763E+00
          1   -1    0    0  501    0  0.00000000000E+00  0.00000000000E+00  0.28156260429E+03  0.28156260429E+03  0.00000000000E+00 0. -1.
         -1   -1    0    0    0  501 -0.00000000000E+00 -0.00000000000E+00 -0.69430987163E+02  0.69430987163E+02  0.00000000000E+00 0.  1.
         25    2    1    2    0    0 -0.66517331585E+02  0.27212999851E+02  0.17923846298E+03  0.23008668370E+03  0.12509337569E+03 0.  0.
          5    1    3    3  502    0 -0.24842404727E+02 -0.39824002241E+02  0.17868980325E+02  0.50397113856E+02  0.41800000000E+01 0.  1.
         -5    1    3    3    0  502 -0.41674926857E+02  0.67037002092E+02  0.16136948266E+03  0.17968956984E+03  0.41800000000E+01 0.  1.
        -11    1    1    2    0    0  0.75759358104E+02  0.10629747042E+02  0.28777926670E+02  0.81735187808E+02  0.00000000000E+00 0.  1.
         11    1    1    2    0    0 -0.92420265191E+01 -0.37842746893E+02  0.41152274784E+01  0.39171719949E+02  0.00000000000E+00 0. -1.
</event>
<event>
 7    1  0.2564986E-009  0.1924728E+03  0.7561462E-02  0.1156250E+00
         -2   -1    0    0    0  501 -0.00000000000E+00  0.00000000000E+00  0.70226578740E+02  0.70226578740E+02  0.00000000000E+00 0.  1.
          2   -1    0    0  501    0  0.00000000000E+00 -0.00000000000E+00 -0.12064608858E+04  0.12064608858E+04  0.00000000000E+00 0. -1.
         25    2    1    2    0    0  0.57976237807E+02  0.16630235514E+03 -0.10268738600E+04  0.10493491618E+04  0.12508405779E+03 0.  0.
          5    1    3    3  502    0 -0.10526101296E+02  0.96158664646E+02 -0.28466205476E+03  0.30067797627E+03  0.41800000000E+01 0.  1.
         -5    1    3    3    0  502  0.68502339103E+02  0.70143690489E+02 -0.74221180528E+03  0.74867118555E+03  0.41800000000E+01 0.  1.
        -11    1    1    2    0    0 -0.70962661947E+02 -0.10118110504E+03 -0.36730029627E+02  0.12892792748E+03  0.00000000000E+00 0.  1.
         11    1    1    2    0    0  0.12986424140E+02 -0.65121250093E+02 -0.72630417436E+02  0.98410375279E+02  0.00000000000E+00 0. -1.
</event>
<event>
 7    1  0.2564986E-009  0.1537490E+03  0.7561462E-02  0.1195940E+00
          3   -1    0    0  501    0  0.00000000000E+00  0.00000000000E+00  0.32265707577E+03  0.32265707577E+03  0.00000000000E+00 0. -1.
         -3   -1    0    0    0  501 -0.00000000000E+00 -0.00000000000E+00 -0.10137662835E+03  0.10137662835E+03  0.00000000000E+00 0.  1.
         25    2    1    2    0    0  0.11160511240E+03  0.91699913536E+02  0.12390947435E+03  0.22774165066E+03  0.12509247123E+03 0.  0.
          5    1    3    3  502    0  0.10465807293E+02  0.22011883477E+02 -0.24665153348E+02  0.34927042906E+02  0.41800000000E+01 0.  1.
         -5    1    3    3    0  502  0.10113930510E+03  0.69688030059E+02  0.14857462769E+03  0.19281460776E+03  0.41800000000E+01 0.  1.
        -11    1    1    2    0    0 -0.53516139332E+02 -0.86285087962E+02  0.27352443913E+02  0.10515345815E+03  0.00000000000E+00 0.  1.
         11    1    1    2    0    0 -0.58088973063E+02 -0.54148255738E+01  0.70018529167E+02  0.91138595305E+02  0.00000000000E+00 0. -1.
</event>
<event>
 7    1  0.2564986E-009  0.2120414E+03  0.7561462E-02  0.1139960E+00
          1   -1    0    0  501    0  0.00000000000E+00  0.00000000000E+00  0.11898350331E+04  0.11898350331E+04  0.00000000000E+00 0. -1.
         -1   -1    0    0    0  501 -0.00000000000E+00 -0.00000000000E+00 -0.67170187201E+02  0.67170187201E+02  0.00000000000E+00 0.  1.
         25    2    1    2    0    0  0.17756687173E+03  0.90163472149E+02  0.19948263540E+03  0.30838328874E+03  0.12508990889E+03 0.  0.
          5    1    3    3  502    0  0.18828508245E+02 -0.20742205472E+02 -0.26306385049E+01  0.28445464832E+02  0.41800000000E+01 0.  1.
         -5    1    3    3    0  502  0.15873836348E+03  0.11090567762E+03  0.20211327390E+03  0.27993782391E+03  0.41800000000E+01 0.  1.
        -11    1    1    2    0    0 -0.12928588585E+03 -0.82017737051E+02  0.82293032542E+03  0.83705201151E+03  0.00000000000E+00 0.  1.
         11    1    1    2    0    0 -0.48280985879E+02 -0.81457350978E+01  0.10025188510E+03  0.11156992007E+03  0.00000000000E+00 0. -1.
</event>
<event>
 7    1  0.2564986E-009  0.2058049E+03  0.7561462E-02  0.1144932E+00
          1   -1    0    0  501    0  0.00000000000E+00  0.00000000000E+00  0.46918733681E+03  0.46918733681E+03  0.00000000000E+00 0.  1.
         -1   -1    0    0    0  501 -0.00000000000E+00 -0.00000000000E+00 -0.15161921748E+03  0.15161921748E+03  0.00000000000E+00 0. -1.
         25    2    1    2    0    0 -0.13686806675E+03 -0.11250384191E+03  0.35742612606E+03  0.41808466013E+03  0.12510541679E+03 0.  0.
          5    1    3    3  502    0 -0.14579017059E+03 -0.12841999514E+03  0.29786104892E+03  0.35564750225E+03  0.41800000000E+01 0. -1.
         -5    1    3    3    0  502  0.89221038359E+01  0.15916153231E+02  0.59565077131E+02  0.62437157880E+02  0.41800000000E+01 0. -1.
        -11    1    1    2    0    0  0.62850484846E+02  0.10731111254E+03 -0.29391923416E+02  0.12778788472E+03  0.00000000000E+00 0.  1.
         11    1    1    2    0    0  0.74017581908E+02  0.51927293758E+01 -0.10466083306E+02  0.74934009432E+02  0.00000000000E+00 0. -1.
</event>
<event>
 7    1  0.2564986E-009  0.8330612E+02  0.7561462E-02  0.1319923E+00
          2   -1    0    0  501    0  0.00000000000E+00  0.00000000000E+00  0.38887173290E+03  0.38887173290E+03  0.00000000000E+00 0. -1.
         -2   -1    0    0    0  501 -0.00000000000E+00 -0.00000000000E+00 -0.33243836536E+02  0.33243836536E+02  0.00000000000E+00 0.  1.
         25    2    1    2    0    0  0.60401609052E+01  0.34711984514E+02  0.19199094281E+03  0.23183786973E+03  0.12508745063E+03 0.  0.
          5    1    3    3  502    0  0.18669078022E+02  0.51612928140E+02  0.20108742723E+03  0.20848514244E+03  0.41800000000E+01 0.  1.
         -5    1    3    3    0  502 -0.12628917117E+02 -0.16900943626E+02 -0.90964844223E+01  0.23352727289E+02  0.41800000000E+01 0.  1.
        -11    1    1    2    0    0 -0.11545453779E+02  0.26340282329E+02  0.22875789383E+02  0.36747921247E+02  0.00000000000E+00 0.  1.
         11    1    1    2    0    0  0.55052928734E+01 -0.61052266842E+02  0.14076116417E+03  0.15352977847E+03  0.00000000000E+00 0. -1.
</event>
<event>
 7    1  0.2564986E-009  0.1145504E+03  0.7561462E-02  0.1252368E+00
         -2   -1    0    0    0  501 -0.00000000000E+00  0.00000000000E+00  0.23618152329E+03  0.23618152329E+03  0.00000000000E+00 0.  1.
          2   -1    0    0  501    0  0.00000000000E+00 -0.00000000000E+00 -0.72308921074E+02  0.72308921074E+02  0.00000000000E+00 0. -1.
         25    2    1    2    0    0  0.58172769511E+02  0.33908174525E+02  0.57268497843E+02  0.15317024780E+03  0.12509040153E+03 0.  0.
          5    1    3    3  502    0  0.15787013369E+02  0.63091899045E+02 -0.12516280748E+02  0.66362242277E+02  0.41800000000E+01 0.  1.
         -5    1    3    3    0  502  0.42385756142E+02 -0.29183724520E+02  0.69784778591E+02  0.86808005527E+02  0.41800000000E+01 0.  1.
        -11    1    1    2    0    0 -0.39149580762E+02  0.27610409452E+02  0.53865964282E+02  0.72087214483E+02  0.00000000000E+00 0.  1.
         11    1    1    2    0    0 -0.19023188749E+02 -0.61518583978E+02  0.52738140089E+02  0.83232982074E+02  0.00000000000E+00 0. -1.
</event>
<event>
 7    1  0.2564986E-009  0.1160046E+03  0.7561462E-02  0.1249838E+00
         -2   -1    0    0    0  501 -0.00000000000E+00  0.00000000000E+00  0.18566054747E+03  0.18566054747E+03  0.00000000000E+00 0.  1.
          2   -1    0    0  501    0  0.00000000000E+00 -0.00000000000E+00 -0.11406038388E+03  0.11406038388E+03  0.00000000000E+00 0. -1.
         25    2    1    2    0    0  0.81210787407E+01 -0.39468820547E+02  0.12666479462E+03  0.18252538575E+03  0.12509119286E+03 0.  0.
          5    1    3    3  502    0 -0.58327140376E+02 -0.14196919393E+02  0.59999398012E+02  0.84976514323E+02  0.41800000000E+01 0. -1.
         -5    1    3    3    0  502  0.66448219117E+02 -0.25271901154E+02  0.66665396608E+02  0.97548871426E+02  0.41800000000E+01 0. -1.
        -11    1    1    2    0    0 -0.33626903953E+01 -0.30401553212E+02 -0.47284251339E+01  0.30950284791E+02  0.00000000000E+00 0.  1.
         11    1    1    2    0    0 -0.47583883454E+01  0.69870373758E+02 -0.50336205899E+02  0.86245260815E+02  0.00000000000E+00 0. -1.
</event>
<event>
 7    1  0.2564986E-009  0.2128135E+03  0.7561462E-02  0.1139357E+00
         -2   -1    0    0    0  501 -0.00000000000E+00  0.00000000000E+00  0.77435961704E+03  0.77435961704E+03  0.00000000000E+00 0. -1.
          2   -1    0    0  501    0  0.00000000000E+00 -0.00000000000E+00 -0.69752407665E+02  0.69752407665E+02  0.00000000000E+00 0.  1.
         25    2    1    2    0    0 -0.19101078079E+03 -0.33947839718E+02  0.48613228545E+03  0.53815374763E+03  0.12508909998E+03 0.  0.
          5    1    3    3  502    0 -0.18616811717E+02  0.38817895358E+02  0.79218185955E+02  0.90257454343E+02  0.41800000000E+01 0.  1.
         -5    1    3    3    0  502 -0.17239396907E+03 -0.72765735076E+02  0.40691409949E+03  0.44789629328E+03  0.41800000000E+01 0.  1.
        -11    1    1    2    0    0  0.11935894690E+03  0.31793134051E+02  0.72229117620E+02  0.14308880812E+03  0.00000000000E+00 0.  1.
         11    1    1    2    0    0  0.71651833888E+02  0.21547056669E+01  0.14624580631E+03  0.16286946896E+03  0.00000000000E+00 0. -1.
</event>
<event>
 7    1  0.2564986E-009  0.1047570E+03  0.7561462E-02  0.1270599E+00
          1   -1    0    0  501    0  0.00000000000E+00  0.00000000000E+00  0.71281529184E+03  0.71281529184E+03  0.00000000000E+00 0. -1.
         -1   -1    0    0    0  501 -0.00000000000E+00 -0.00000000000E+00 -0.17585549128E+02  0.17585549128E+02  0.00000000000E+00 0.  1.
         25    2    1    2    0    0  0.18053612525E+02 -0.21871347155E+02  0.42081138496E+03  0.43992494535E+03  0.12508975609E+03 0.  0.
          5    1    3    3  502    0  0.60732718849E+02 -0.42100137836E+02  0.18241946402E+03  0.19686345013E+03  0.41800000000E+01 0.  1.
         -5    1    3    3    0  502 -0.42679106324E+02  0.20228790681E+02  0.23839192093E+03  0.24306149521E+03  0.41800000000E+01 0.  1.
        -11    1    1    2    0    0  0.31176092066E+02  0.23158873161E+02  0.17824798451E+03  0.18242978404E+03  0.00000000000E+00 0. -1.
         11    1    1    2    0    0 -0.49229704591E+02 -0.12875260059E+01  0.96170373245E+02  0.10804611158E+03  0.00000000000E+00 0.  1.
</event>
<event>
 7    1  0.2564986E-009  0.9947104E+02  0.7561462E-02  0.1281412E+00
          1   -1    0    0  501    0  0.00000000000E+00  0.00000000000E+00  0.13037350653E+03  0.13037350653E+03  0.00000000000E+00 0. -1.
         -1   -1    0    0    0  501 -0.00000000000E+00 -0.00000000000E+00 -0.13341336370E+03  0.13341336370E+03  0.00000000000E+00 0.  1.
         25    2    1    2    0    0  0.77189123337E+01  0.17426933869E+02 -0.74913366855E+02  0.14704628387E+03  0.12508923789E+03 0.  0.
          5    1    3    3  502    0 -0.35981023416E+02 -0.40035795583E+02 -0.36425581794E+02  0.65129059436E+02  0.41800000000E+01 0.  1.
         -5    1    3    3    0  502  0.43699935749E+02  0.57462729451E+02 -0.38487785061E+02  0.81917224437E+02  0.41800000000E+01 0.  1.
        -11    1    1    2    0    0  0.10976858840E+02 -0.41061752374E+02  0.75242500069E+02  0.86417548881E+02  0.00000000000E+00 0. -1.
         11    1    1    2    0    0 -0.18695771174E+02  0.23634818505E+02 -0.33689903872E+01  0.30323037476E+02  0.00000000000E+00 0.  1.
</event>
<event>
 7    1  0.2564986E-009  0.1040753E+03  0.7561462E-02  0.1271952E+00
         -1   -1    0    0    0  501 -0.00000000000E+00  0.00000000000E+00  0.84175658828E+02  0.84175658828E+02  0.00000000000E+00 0.  1.
          1   -1    0    0  501    0  0.00000000000E+00 -0.00000000000E+00 -0.20221809778E+03  0.20221809778E+03  0.00000000000E+00 0. -1.
         25    2    1    2    0    0  0.27820209747E+02  0.47700457365E+02 -0.11713929849E+02  0.13723586647E+03  0.12508864532E+03 0.  0.
          5    1    3    3  502    0  0.72596438240E+02  0.21771286290E+02 -0.30815392574E+02  0.81922479035E+02  0.41800000000E+01 0.  1.
         -5    1    3    3    0  502 -0.44776228493E+02  0.25929171076E+02  0.19101462725E+02  0.55313387430E+02  0.41800000000E+01 0.  1.
        -11    1    1    2    0    0  0.16819365018E+02 -0.25323114422E+02  0.13865253818E+01  0.30431457676E+02  0.00000000000E+00 0.  1.
         11    1    1    2    0    0 -0.44639574766E+02 -0.22377342944E+02 -0.10771503448E+03  0.11872643246E+03  0.00000000000E+00 0. -1.
</event>
<event>
 7    1  0.2564986E-009  0.1678900E+03  0.7561462E-02  0.1180066E+00
         -1   -1    0    0    0  501 -0.00000000000E+00  0.00000000000E+00  0.28005913500E+03  0.28005913500E+03  0.00000000000E+00 0.  1.
          1   -1    0    0  501    0  0.00000000000E+00 -0.00000000000E+00 -0.27253592019E+03  0.27253592019E+03  0.00000000000E+00 0. -1.
         25    2    1    2    0    0 -0.99197919285E+02 -0.11341544298E+03 -0.20002093856E+03  0.27992851135E+03  0.12509318810E+03 0.  0.
          5    1    3    3  502    0 -0.12079972156E+03 -0.82686607379E+02 -0.19168456691E+03  0.24122622859E+03  0.41800000000E+01 0. -1.
         -5    1    3    3    0  502  0.21601802271E+02 -0.30728835604E+02 -0.83363716518E+01  0.38702282765E+02  0.41800000000E+01 0. -1.
        -11    1    1    2    0    0  0.33830499889E+02  0.50696516137E+02  0.15814508742E+03  0.16948306153E+03  0.00000000000E+00 0.  1.
         11    1    1    2    0    0  0.65367419396E+02  0.62718926846E+02  0.49399065955E+02  0.10318348230E+03  0.00000000000E+00 0. -1.
</event>
<event>
 7    1  0.2564986E-009  0.1426318E+03  0.7561462E-02  0.1209831E+00
         -3   -1    0    0    0  501 -0.00000000000E+00  0.00000000000E+00  0.47302891758E+03  0.47302891758E+03  0.00000000000E+00 0.  1.
          3   -1    0    0  501    0  0.00000000000E+00 -0.00000000000E+00 -0.52232205228E+02  0.52232205228E+02  0.00000000000E+00 0. -1.
         25    2    1    2    0    0 -0.58083052132E+02 -0.81814208822E+02  0.31049525775E+03  0.34945907984E+03  0.12508851942E+03 0.  0.
          5    1    3    3  502    0  0.48241630392E-01 -0.96859621954E+02  0.22400704837E+03  0.24408690832E+03  0.41800000000E+01 0.  1.
         -5    1    3    3    0  502 -0.58131293762E+02  0.15045413132E+02  0.86488209375E+02  0.10537217152E+03  0.41800000000E+01 0.  1.
        -11    1    1    2    0    0  0.50956761362E+01  0.74451032807E+02  0.93706334300E+02  0.11979064775E+03  0.00000000000E+00 0.  1.
         11    1    1    2    0    0  0.52987375996E+02  0.73631760150E+01  0.16595120309E+02  0.56011395216E+02  0.00000000000E+00 0. -1.
</event>
<event>
 7    1  0.2564986E-009  0.1211833E+03  0.7561462E-02  0.1241158E+00
         -2   -1    0    0    0  501 -0.00000000000E+00  0.00000000000E+00  0.11866469748E+03  0.11866469748E+03  0.00000000000E+00 0.  1.
          2   -1    0    0  501    0  0.00000000000E+00 -0.00000000000E+00 -0.16949414622E+03  0.16949414622E+03  0.00000000000E+00 0. -1.
         25    2    1    2    0    0  0.31048764024E+02  0.62322508443E+02  0.41566804583E+02  0.14908741778E+03  0.12510450867E+03 0.  0.
          5    1    3    3  502    0  0.39384089698E+02  0.97554510962E+02  0.21419521305E+02  0.10744420609E+03  0.41800000000E+01 0.  1.
         -5    1    3    3    0  502 -0.83353256740E+01 -0.35232002519E+02  0.20147283278E+02  0.41643211681E+02  0.41800000000E+01 0.  1.
        -11    1    1    2    0    0 -0.50514601205E+02 -0.63489226307E+02 -0.58707788678E+02  0.10014594971E+03  0.00000000000E+00 0.  1.
         11    1    1    2    0    0  0.19465837181E+02  0.11667178639E+01 -0.33688464645E+02  0.38925476206E+02  0.00000000000E+00 0. -1.
</event>
<event>
 7    1  0.2564986E-009  0.1116912E+03  0.7561462E-02  0.1257470E+00
          1   -1    0    0  501    0  0.00000000000E+00  0.00000000000E+00  0.24571918559E+04  0.24571918559E+04  0.00000000000E+00 0. -1.
         -1   -1    0    0    0  501 -0.00000000000E+00 -0.00000000000E+00 -0.66601836908E+01  0.66601836908E+01  0.00000000000E+00 0.  1.
         25    2    1    2    0    0 -0.20203016095E+02 -0.29933831909E+02  0.19326717678E+04  0.19370523651E+04  0.12508999532E+03 0.  0.
          5    1    3    3  502    0 -0.52020990580E+02 -0.62228615834E+02  0.14373194498E+04  0.14396121899E+04  0.41800000000E+01 0. -1.
         -5    1    3    3    0  502  0.31817974485E+02  0.32294783925E+02  0.49535231795E+03  0.49744017517E+03  0.41800000000E+01 0. -1.
        -11    1    1    2    0    0  0.47242153811E+02 -0.10118146757E+02  0.25818583272E+03  0.26266732230E+03  0.00000000000E+00 0.  1.
         11    1    1    2    0    0 -0.27039137716E+02  0.40051978667E+02  0.25967407171E+03  0.26413235221E+03  0.00000000000E+00 0. -1.
</event>
<event>
 7    1  0.2564986E-009  0.1095746E+03  0.7561462E-02  0.1261360E+00
          1   -1    0    0  501    0  0.00000000000E+00  0.00000000000E+00  0.22596232366E+03  0.22596232366E+03  0.00000000000E+00 0. -1.
         -1   -1    0    0    0  501 -0.00000000000E+00 -0.00000000000E+00 -0.11500868626E+03  0.11500868626E+03  0.00000000000E+00 0.  1.
         25    2    1    2    0    0 -0.67850850504E+02  0.81925389139E+02  0.44655575839E+01  0.16426290389E+03  0.12508738182E+03 0.  0.
          5    1    3    3  502    0 -0.69650091240E+02  0.79956512495E+02 -0.44480796795E+02  0.11506603662E+03  0.41800000000E+01 0. -1.
         -5    1    3    3    0  502  0.17992407357E+01  0.19688766436E+01  0.48946354379E+02  0.49196867273E+02  0.41800000000E+01 0. -1.
        -11    1    1    2    0    0  0.11900191296E+02 -0.27726546945E+02  0.92845572492E+02  0.97625182662E+02  0.00000000000E+00 0. -1.
         11    1    1    2    0    0  0.55950659209E+02 -0.54198842194E+02  0.13642507325E+02  0.79082923360E+02  0.00000000000E+00 0.  1.
</event>
<event>
 7    1  0.2564986E-009  0.1057182E+03  0.7561462E-02  0.1268711E+00
         -1   -1    0    0    0  501 -0.00000000000E+00  0.00000000000E+00  0.24882813502E+03  0.24882813502E+03  0.00000000000E+00 0.  1.
          1   -1    0    0  501    0  0.00000000000E+00 -0.00000000000E+00 -0.59633155471E+02  0.59633155471E+02  0.00000000000E+00 0. -1.
         25    2    1    2    0    0 -0.13822046474E+02  0.39077819069E+02  0.14321937592E+03  0.19462141964E+03  0.12509029711E+03 0.  0.
          5    1    3    3  502    0  0.50294293069E+02  0.48507804178E+00  0.88287520162E+02  0.10169518097E+03  0.41800000000E+01 0.  1.
         -5    1    3    3    0  502 -0.64116339543E+02  0.38592741027E+02  0.54931855763E+02  0.92926238673E+02  0.41800000000E+01 0.  1.
        -11    1    1    2    0    0  0.44210581790E+02 -0.32633580184E+02 -0.38922596828E+01  0.55087891440E+02  0.00000000000E+00 0. -1.
         11    1    1    2    0    0 -0.30388535316E+02 -0.64442388847E+01  0.49867863303E+02  0.58751979404E+02  0.00000000000E+00 0.  1.
</event>
<event>
 7    1  0.2564986E-009  0.1772913E+03  0.7561462E-02  0.1170451E+00
         -1   -1    0    0    0  501 -0.00000000000E+00  0.00000000000E+00  0.37642995336E+03  0.37642995336E+03  0.00000000000E+00 0.  1.
          1   -1    0    0  501    0  0.00000000000E+00 -0.00000000000E+00 -0.90280811926E+02  0.90280811926E+02  0.00000000000E+00 0. -1.
         25    2    1    2    0    0  0.61078375399E+02  0.13109188491E+03  0.10921899475E+03  0.22020778434E+03  0.12508808591E+03 0.  0.
          5    1    3    3  502    0 -0.67440690220E+01  0.11963430337E+03  0.85769720707E+02  0.14741698138E+03  0.41800000000E+01 0.  1.
         -5    1    3    3    0  502  0.67822444421E+02  0.11457581546E+02  0.23449274047E+02  0.72790802959E+02  0.41800000000E+01 0.  1.
        -11    1    1    2    0    0 -0.72713875499E+02 -0.61550128022E+02  0.13239353690E+03  0.16310663555E+03  0.00000000000E+00 0. -1.
         11    1    1    2    0    0  0.11635500100E+02 -0.69541756891E+02  0.44536609783E+02  0.83396345394E+02  0.00000000000E+00 0.  1.
</event>
<event>
 7    1  0.2564986E-009  0.1315042E+03  0.7561462E-02  0.1225241E+00
          2   -1    0    0  501    0  0.00000000000E+00  0.00000000000E+00  0.64635702798E+03  0.64635702798E+03  0.00000000000E+00 0. -1.
         -2   -1    0    0    0  501 -0.00000000000E+00 -0.00000000000E+00 -0.35652134045E+02  0.35652134045E+02  0.00000000000E+00 0.  1.
         25    2    1    2    0    0 -0.59530585222E+02 -0.77021197705E+02  0.42769649862E+03  0.45612305394E+03  0.12509112649E+03 0.  0.
          5    1    3    3  502    0 -0.88906618514E+02 -0.21040468963E+02  0.29901965490E+03  0.31269364331E+03  0.41800000000E+01 0.  1.
         -5    1    3    3    0  502  0.29376033292E+02 -0.55980728742E+02  0.12867684372E+03  0.14342941063E+03  0.41800000000E+01 0.  1.
        -11    1    1    2    0    0  0.32209447678E+02  0.69052758924E+01  0.12931134181E+03  0.13344120232E+03  0.00000000000E+00 0. -1.
         11    1    1    2    0    0  0.27321137544E+02  0.70115921813E+02  0.53697053499E+02  0.92444905770E+02  0.00000000000E+00 0.  1.
</event>
<event>
 7    1  0.2564986E-009  0.1055208E+03  0.7561462E-02  0.1269097E+00
         -1   -1    0    0    0  501 -0.00000000000E+00  0.00000000000E+00  0.39602376665E+02  0.39602376665E+02  0.00000000000E+00 0.  1.
          1   -1    0    0  501    0  0.00000000000E+00 -0.00000000000E+00 -0.62808373117E+03  0.62808373117E+03  0.00000000000E+00 0. -1.
         25    2    1    2    0    0 -0.10641681663E+02 -0.84911920987E+02 -0.47677727147E+03  0.50028771211E+03  0.12509176068E+03 0.  0.
          5    1    3    3  502    0  0.38130058759E+02 -0.17621884985E+02 -0.49826767934E+02  0.65303992329E+02  0.41800000000E+01 0. -1.
         -5    1    3    3    0  502 -0.48771740422E+02 -0.67290036002E+02 -0.42695050354E+03  0.43498371978E+03  0.41800000000E+01 0. -1.
        -11    1    1    2    0    0  0.71829099157E+01  0.46632442455E+02 -0.11923609567E+03  0.12823192034E+03  0.00000000000E+00 0. -1.
         11    1    1    2    0    0  0.34587717470E+01  0.38279478532E+02  0.75320126397E+01  0.39166475372E+02  0.00000000000E+00 0.  1.
</event>
<event>
 7    1  0.2564986E-009  0.1079779E+03  0.7561462E-02  0.1264361E+00
         -1   -1    0    0    0  501 -0.00000000000E+00  0.00000000000E+00  0.27064043565E+02  0.27064043565E+02  0.00000000000E+00 0.  1.
          1   -1    0    0  501    0  0.00000000000E+00 -0.00000000000E+00 -0.62559807677E+03  0.62559807677E+03  0.00000000000E+00 0. -1.
         25    2    1    2    0    0  0.38546942560E+02 -0.14460481747E+02 -0.48515554245E+03  0.50271152085E+03  0.12509196819E+03 0.  0.
          5    1    3    3  502    0  0.26677101155E+02 -0.63051304366E+02 -0.16567585773E+03  0.17931284657E+03  0.41800000000E+01 0.  1.
         -5    1    3    3    0  502  0.11869841406E+02  0.48590822618E+02 -0.31947968472E+03  0.32339867428E+03  0.41800000000E+01 0.  1.
        -11    1    1    2    0    0 -0.60515677526E+02  0.32549477089E+02 -0.70157816758E+02  0.98202520016E+02  0.00000000000E+00 0.  1.
         11    1    1    2    0    0  0.21968734966E+02 -0.18088995341E+02 -0.43220673994E+02  0.51748079471E+02  0.00000000000E+00 0. -1.
</event>
<event>
 7    1  0.2564986E-009  0.1232539E+03  0.7561462E-02  0.1237824E+00
         -2   -1    0    0    0  501 -0.00000000000E+00  0.00000000000E+00  0.26592103643E+03  0.26592103643E+03  0.00000000000E+00 0.  1.
          2   -1    0    0  501    0  0.00000000000E+00 -0.00000000000E+00 -0.65257202069E+02  0.65257202069E+02  0.00000000000E+00 0. -1.
         25    2    1    2    0    0 -0.71104963875E+02  0.14493427647E+02  0.88533179379E+02  0.16956274124E+03  0.12508966397E+03 0.  0.
          5    1    3    3  502    0  0.11170522365E+02  0.42033037538E+02  0.67138727850E+02  0.80103919953E+02  0.41800000000E+01 0.  1.
         -5    1    3    3    0  502 -0.82275486240E+02 -0.27539609891E+02  0.21394451529E+02  0.89458821282E+02  0.41800000000E+01 0.  1.
        -11    1    1    2    0    0 -0.21524562912E+02  0.28530897757E+01  0.15794486060E+02  0.26849817871E+02  0.00000000000E+00 0. -1.
         11    1    1    2    0    0  0.92629526787E+02 -0.17346517423E+02  0.96336168923E+02  0.13476567939E+03  0.00000000000E+00 0.  1.
</event>
<event>
 7    1  0.2564986E-009  0.9308083E+02  0.7561462E-02  0.1295558E+00
          2   -1    0    0  501    0  0.00000000000E+00  0.00000000000E+00  0.20313657402E+03  0.20313657402E+03  0.00000000000E+00 0. -1.
         -2   -1    0    0    0  501 -0.00000000000E+00 -0.00000000000E+00 -0.78986783103E+02  0.78986783103E+02  0.00000000000E+00 0.  1.
         25    2    1    2    0    0 -0.20190755925E+02 -0.17249027547E+02  0.34596222212E+01  0.12792046831E+03  0.12508589709E+03 0.  0.
          5    1    3    3  502    0 -0.56093542243E+02 -0.50212762173E+02 -0.12571177495E+02  0.76441571608E+02  0.41800000000E+01 0.  1.
         -5    1    3    3    0  502  0.35902786317E+02  0.32963734626E+02  0.16030799717E+02  0.51478896699E+02  0.41800000000E+01 0.  1.
        -11    1    1    2    0    0 -0.13557290432E+02  0.23868959256E+02  0.11634359750E+03  0.11953811116E+03  0.00000000000E+00 0. -1.
         11    1    1    2    0    0  0.33748046357E+02 -0.66199317097E+01  0.43465711943E+01  0.34664777655E+02  0.00000000000E+00 0.  1.
</event>
<event>
 7    1  0.2564986E-009  0.9496507E+02  0.7561462E-02  0.1291255E+00
         -2   -1    0    0    0  501 -0.00000000000E+00  0.00000000000E+00  0.25509066891E+03  0.25509066891E+03  0.00000000000E+00 0.  1.
          2   -1    0    0  501    0  0.00000000000E+00 -0.00000000000E+00 -0.46651799684E+02  0.46651799684E+02  0.00000000000E+00 0. -1.
         25    2    1    2    0    0  0.13529242375E+02  0.32662285663E+01  0.10879469454E+03  0.16636510164E+03  0.12508937938E+03 0.  0.
          5    1    3    3  502    0 -0.49032902247E+02  0.17059394484E+02  0.81237277050E+02  0.96499823965E+02  0.41800000000E+01 0.  1.
         -5    1    3    3    0  502  0.62562144621E+02 -0.13793165917E+02  0.27557417492E+02  0.69865277674E+02  0.41800000000E+01 0.  1.
        -11    1    1    2    0    0  0.94006249636E+01  0.31011760930E+02  0.86057800202E+02  0.91956761802E+02  0.00000000000E+00 0.  1.
         11    1    1    2    0    0 -0.22929867338E+02 -0.34277989496E+02  0.13586374481E+02  0.43420605150E+02  0.00000000000E+00 0. -1.
</event>
<event>
 7    1  0.2564986E-009  0.1209830E+03  0.7561462E-02  0.1241484E+00
         -1   -1    0    0    0  501 -0.00000000000E+00  0.00000000000E+00  0.32433155494E+02  0.32433155494E+02  0.00000000000E+00 0.  1.
          1   -1    0    0  501    0  0.00000000000E+00 -0.00000000000E+00 -0.48482988144E+03  0.48482988144E+03  0.00000000000E+00 0. -1.
         25    2    1    2    0    0  0.62470043301E+02 -0.66289065444E+01 -0.26098489146E+03  0.29615407975E+03  0.12509067381E+03 0.  0.
          5    1    3    3  502    0  0.74220044371E+02  0.42603328823E+02 -0.19412288931E+03  0.21219054448E+03  0.41800000000E+01 0. -1.
         -5    1    3    3    0  502 -0.11750001070E+02 -0.49232235367E+02 -0.66862002149E+02  0.83963535274E+02  0.41800000000E+01 0. -1.
        -11    1    1    2    0    0 -0.19522976924E+02 -0.38520427510E+02 -0.11287734473E+03  0.12085638137E+03  0.00000000000E+00 0. -1.
         11    1    1    2    0    0 -0.42947066376E+02  0.45149334054E+02 -0.78534489765E+02  0.10025257582E+03  0.00000000000E+00 0.  1.
</event>
<event>
 7    1  0.2564986E-009  0.2757519E+03  0.7561462E-02  0.1098032E+00
         -2   -1    0    0    0  501 -0.00000000000E+00  0.00000000000E+00  0.86343217857E+02  0.86343217857E+02  0.00000000000E+00 0. -1.
          2   -1    0    0  501    0  0.00000000000E+00 -0.00000000000E+00 -0.10994427015E+04  0.10994427015E+04  0.00000000000E+00 0.  1.
         25    2    1    2    0    0 -0.10397229355E+03  0.24719956492E+03 -0.72002415251E+03  0.77846022065E+03  0.12509065598E+03 0.  0.
          5    1    3    3  502    0 -0.48330090776E+02  0.98443228479E+02 -0.14475238193E+03  0.18165239162E+03  0.41800000000E+01 0. -1.
         -5    1    3    3    0  502 -0.55642202770E+02  0.14875633644E+03 -0.57527177058E+03  0.59680782903E+03  0.41800000000E+01 0. -1.
        -11    1    1    2    0    0  0.10863417447E+03 -0.14810057595E+03 -0.19038754470E+03  0.26454221145E+03  0.00000000000E+00 0. -1.
         11    1    1    2    0    0 -0.46618809282E+01 -0.99098988971E+02 -0.10268778639E+03  0.14278348722E+03  0.00000000000E+00 0.  1.
</event>
<event>
 7    1  0.2564986E-009  0.1146090E+03  0.7561462E-02  0.1252265E+00
         -1   -1    0    0    0  501 -0.00000000000E+00  0.00000000000E+00  0.19680395812E+03  0.19680395812E+03  0.00000000000E+00 0.  1.
          1   -1    0    0  501    0  0.00000000000E+00 -0.00000000000E+00 -0.72002170189E+02  0.72002170189E+02  0.00000000000E+00 0. -1.
         25    2    1    2    0    0  0.36031985622E+02  0.30267150414E+02  0.91552773191E+02  0.16199977459E+03  0.12509041652E+03 0.  0.
          5    1    3    3  502    0 -0.17320705908E+02 -0.40688241724E+02  0.25019300674E+02  0.50980169419E+02  0.41800000000E+01 0.  1.
         -5    1    3    3    0  502  0.53352691530E+02  0.70955392138E+02  0.66533472517E+02  0.11101960517E+03  0.41800000000E+01 0.  1.
        -11    1    1    2    0    0  0.27867927336E+01  0.26779111841E+02 -0.57725137975E+01  0.27535594424E+02  0.00000000000E+00 0.  1.
         11    1    1    2    0    0 -0.38818778356E+02 -0.57046262254E+02  0.39021528541E+02  0.79270759300E+02  0.00000000000E+00 0. -1.
</event>
<event>
 7    1  0.2564986E-009  0.1157730E+03  0.7561462E-02  0.1250238E+00
         -1   -1    0    0    0  501 -0.00000000000E+00  0.00000000000E+00  0.13223784509E+03  0.13223784509E+03  0.00000000000E+00 0.  1.
          1   -1    0    0  501    0  0.00000000000E+00 -0.00000000000E+00 -0.12646710652E+03  0.12646710652E+03  0.00000000000E+00 0. -1.
         25    2    1    2    0    0 -0.36694958703E+02  0.61358248168E+02 -0.53208017086E+01  0.14417909707E+03  0.12509175228E+03 0.  0.
          5    1    3    3  502    0 -0.17631210883E+02 -0.36544140273E+02  0.12733072000E+02  0.42730987680E+02  0.41800000000E+01 0.  1.
         -5    1    3    3    0  502 -0.19063747820E+02  0.97902388441E+02 -0.18053873709E+02  0.10144810939E+03  0.41800000000E+01 0.  1.
        -11    1    1    2    0    0  0.10526269859E+02 -0.63783813491E+02 -0.25483392952E+02  0.69487988436E+02  0.00000000000E+00 0. -1.
         11    1    1    2    0    0  0.26168688844E+02  0.24255653230E+01  0.36574933231E+02  0.45037866110E+02  0.00000000000E+00 0.  1.
</event>
<event>
 7    1  0.2564986E-009  0.1638081E+03  0.7561462E-02  0.1184463E+00
         -1   -1    0    0    0  501 -0.00000000000E+00  0.00000000000E+00  0.59607393310E+03  0.59607393310E+03  0.00000000000E+00 0.  1.
          1   -1    0    0  501    0  0.00000000000E+00 -0.00000000000E+00 -0.54602602218E+02  0.54602602218E+02  0.00000000000E+00 0. -1.
         25    2    1    2    0    0 -0.12628136782E+03 -0.52875835676E+02  0.37364231197E+03  0.41713434777E+03  0.12509855689E+03 0.  0.
          5    1    3    3  502    0 -0.14852951819E+02  0.25386187017E+02  0.16703682040E+03  0.16965801024E+03  0.41800000000E+01 0. -1.
         -5    1    3    3    0  502 -0.11142841601E+03 -0.78262022693E+02  0.20660549158E+03  0.24747633753E+03  0.41800000000E+01 0. -1.
        -11    1    1    2    0    0  0.10063843060E+03 -0.24825736820E+01  0.93614204734E+02  0.13746954649E+03  0.00000000000E+00 0. -1.
         11    1    1    2    0    0  0.25642937229E+02  0.55358409358E+02  0.74214814177E+02  0.96072641057E+02  0.00000000000E+00 0.  1.
</event>
<event>
 7    1  0.2564986E-009  0.1143253E+03  0.7561462E-02  0.1252763E+00
         -1   -1    0    0    0  501 -0.00000000000E+00  0.00000000000E+00  0.59784616838E+03  0.59784616838E+03  0.00000000000E+00 0.  1.
          1   -1    0    0  501    0  0.00000000000E+00 -0.00000000000E+00 -0.25950530715E+02  0.25950530715E+02  0.00000000000E+00 0. -1.
         25    2    1    2    0    0 -0.23974481782E+02 -0.54199487806E+02  0.35739939183E+03  0.38326936198E+03  0.12509483721E+03 0.  0.
          5    1    3    3  502    0  0.18359695871E+01  0.30730410661E+02  0.20100508223E+03  0.20339184940E+03  0.41800000000E+01 0.  1.
         -5    1    3    3    0  502 -0.25810451369E+02 -0.84929898467E+02  0.15639430961E+03  0.17987751258E+03  0.41800000000E+01 0.  1.
        -11    1    1    2    0    0 -0.28379418732E+02  0.48318331741E+02  0.11605578338E+03  0.12887589940E+03  0.00000000000E+00 0. -1.
         11    1    1    2    0    0  0.52353900514E+02  0.58811560649E+01  0.98440462444E+02  0.11165143771E+03  0.00000000000E+00 0.  1.
</event>
<event>
 7    1  0.2753716E-009  0.1118823E+03  0.7561462E-02  0.1257123E+00
         -2   -1    0    0    0  501 -0.00000000000E+00  0.00000000000E+00  0.52181239678E+02  0.52181239678E+02  0.00000000000E+00 0.  1.
          2   -1    0    0  501    0  0.00000000000E+00 -0.00000000000E+00 -0.34500457140E+03  0.34500457140E+03  0.00000000000E+00 0. -1.
         25    2    1    2    0    0 -0.54916069628E+02  0.32209265288E+02 -0.23074842541E+03  0.27008481024E+03  0.12509099656E+03 0.  0.
          5    1    3    3  502    0  0.19900260693E+02  0.55287627048E+02 -0.12740074362E+03  0.14036083484E+03  0.41800000000E+01 0.  1.
         -5    1    3    3    0  502 -0.74816330321E+02 -0.23078361761E+02 -0.10334768178E+03  0.12972397540E+03  0.41800000000E+01 0.  1.
        -11    1    1    2    0    0  0.50238207402E+02  0.35708695436E+01  0.53287730627E+01  0.50646070080E+02  0.00000000000E+00 0.  1.
         11    1    1    2    0    0  0.46778622262E+01 -0.35780134831E+02 -0.67403679383E+02  0.76454930763E+02  0.00000000000E+00 0. -1.
</event>
<event>
 7    1  0.2686919E-009  0.9766867E+02  0.7561462E-02  0.1285276E+00
         -2   -1    0    0    0  501 -0.00000000000E+00  0.00000000000E+00  0.65945237827E+02  0.65945237827E+02  0.00000000000E+00 0. -1.
          2   -1    0    0  501    0  0.00000000000E+00 -0.00000000000E+00 -0.27305371969E+03  0.27305371969E+03  0.00000000000E+00 0.  1.
         25    2    1    2    0    0 -0.63070552734E+02 -0.55718958337E+00 -0.17366551566E+03  0.22312980355E+03  0.12509593448E+03 0.  0.
          5    1    3    3  502    0  0.13816884351E+02  0.44493187291E+01 -0.13676557556E+03  0.13759723031E+03  0.41800000000E+01 0. -1.
         -5    1    3    3    0  502 -0.76887437085E+02 -0.50065083125E+01 -0.36899940096E+02  0.85532573246E+02  0.41800000000E+01 0. -1.
        -11    1    1    2    0    0  0.44080908594E+02 -0.39212281493E+02 -0.40048228201E+02  0.71306311813E+02  0.00000000000E+00 0.  1.
         11    1    1    2    0    0  0.18989644140E+02  0.39769471076E+02  0.66052619955E+01  0.44562842147E+02  0.00000000000E+00 0. -1.
</event>
<event>
 7    1  0.2564986E-009  0.1670531E+03  0.7561462E-02  0.1180956E+00
          2   -1    0    0  501    0  0.00000000000E+00  0.00000000000E+00  0.52774949033E+03  0.52774949033E+03  0.00000000000E+00 0. -1.
         -2   -1    0    0    0  501 -0.00000000000E+00 -0.00000000000E+00 -0.76348692491E+02  0.76348692491E+02  0.00000000000E+00 0.  1.
         25    2    1    2    0    0  0.15724097001E+03 -0.14214390665E+02  0.14560945963E+03  0.24854986836E+03  0.12509256883E+03 0.  0.
          5    1    3    3  502    0  0.11105426371E+03 -0.31311038669E+02  0.24901250514E+02  0.11811424685E+03  0.41800000000E+01 0. -1.
         -5    1    3    3    0  502  0.46186706295E+02  0.17096648004E+02  0.12070820912E+03  0.13043562151E+03  0.41800000000E+01 0. -1.
        -11    1    1    2    0    0 -0.46580207939E+02  0.32853480263E+02  0.48473399764E+02  0.74824711304E+02  0.00000000000E+00 0. -1.
         11    1    1    2    0    0 -0.11066076207E+03 -0.18639089598E+02  0.25731793845E+03  0.28072360316E+03  0.00000000000E+00 0.  1.
</event>
<event>
 7    1  0.3301254E-009  0.1187976E+03  0.7561462E-02  0.1245094E+00
          1   -1    0    0  501    0  0.00000000000E+00  0.00000000000E+00  0.94829792574E+03  0.94829792574E+03  0.00000000000E+00 0. -1.
         -1   -1    0    0    0  501 -0.00000000000E+00 -0.00000000000E+00 -0.19820466629E+02  0.19820466629E+02  0.00000000000E+00 0.  1.
         25    2    1    2    0    0 -0.60471407810E+02 -0.40615148163E+02  0.36904850801E+03  0.39642213820E+03  0.12508928397E+03 0.  0.
          5    1    3    3  502    0  0.18612119181E+02 -0.42253477434E+02  0.24422991561E+03  0.24859101234E+03  0.41800000000E+01 0. -1.
         -5    1    3    3    0  502 -0.79083526991E+02  0.16383292708E+01  0.12481859240E+03  0.14783112586E+03  0.41800000000E+01 0. -1.
        -11    1    1    2    0    0 -0.21289041164E+02  0.16024999501E+02  0.70476172169E+02  0.75345303280E+02  0.00000000000E+00 0.  1.
         11    1    1    2    0    0  0.81760448974E+02  0.24590148662E+02  0.48895277893E+03  0.49635095089E+03  0.00000000000E+00 0. -1.
</event>
<event>
 7    1  0.2564986E-009  0.1216570E+03  0.7561462E-02  0.1240388E+00
          2   -1    0    0  501    0  0.00000000000E+00  0.00000000000E+00  0.20085466192E+03  0.20085466192E+03  0.00000000000E+00 0. -1.
         -2   -1    0    0    0  501 -0.00000000000E+00 -0.00000000000E+00 -0.99869709855E+02  0.99869709855E+02  0.00000000000E+00 0.  1.
         25    2    1    2    0    0  0.75541256529E+02 -0.47726040395E+02  0.56406829410E+02  0.16374440685E+03  0.12508494714E+03 0.  0.
          5    1    3    3  502    0 -0.10614113491E+02 -0.36364629499E+02 -0.24195934835E+02  0.45143785246E+02  0.41800000000E+01 0. -1.
         -5    1    3    3    0  502  0.86155370019E+02 -0.11361410896E+02  0.80602764245E+02  0.11860062160E+03  0.41800000000E+01 0. -1.
        -11    1    1    2    0    0 -0.84526287672E+02  0.17041115172E+02  0.56239435570E+02  0.10294642795E+03  0.00000000000E+00 0. -1.
         11    1    1    2    0    0  0.89850311429E+01  0.30684925223E+02 -0.11661312912E+02  0.34033536980E+02  0.00000000000E+00 0.  1.
</event>
<event>
 7    1  0.2564986E-009  0.1341919E+03  0.7561462E-02  0.1221365E+00
         -1   -1    0    0    0  501 -0.00000000000E+00  0.00000000000E+00  0.69596676024E+02  0.69596676024E+02  0.00000000000E+00 0.  1.
          1   -1    0    0  501    0  0.00000000000E+00 -0.00000000000E+00 -0.34992929105E+03  0.34992929105E+03  0.00000000000E+00 0. -1.
         25    2    1    2    0    0  0.58849121432E+02 -0.85182659158E+02 -0.20746522130E+03  0.26345556372E+03  0.12509081298E+03 0.  0.
          5    1    3    3  502    0  0.76568344423E+02 -0.34583038849E+02 -0.51861998686E+02  0.98822250791E+02  0.41800000000E+01 0.  1.
         -5    1    3    3    0  502 -0.17719222991E+02 -0.50599620309E+02 -0.15560322262E+03  0.16463331293E+03  0.41800000000E+01 0.  1.
        -11    1    1    2    0    0 -0.39630277089E+02 -0.34650790953E+01 -0.47348206056E+02  0.61841881052E+02  0.00000000000E+00 0.  1.
         11    1    1    2    0    0 -0.19218844343E+02  0.88647738253E+02 -0.25519187669E+02  0.94228522299E+02  0.00000000000E+00 0. -1.
</event>
<event>
 7    1  0.2564986E-009  0.5736050E+02  0.7561462E-02  0.1409255E+00
          1   -1    0    0  501    0  0.00000000000E+00  0.00000000000E+00  0.30182878704E+03  0.30182878704E+03  0.00000000000E+00 0. -1.
         -1   -1    0    0    0  501 -0.00000000000E+00 -0.00000000000E+00 -0.50696854730E+02  0.50696854730E+02  0.00000000000E+00 0.  1.
         25    2    1    2    0    0 -0.33671048415E+02  0.34375171040E+02  0.93678770949E+02  0.16351988953E+03  0.12509056823E+03 0.  0.
          5    1    3    3  502    0 -0.30860167125E+02  0.64152635396E+01 -0.25652246163E+02  0.40853588024E+02  0.41800000000E+01 0.  1.
         -5    1    3    3    0  502 -0.28108812899E+01  0.27959907500E+02  0.11933101711E+03  0.12266630151E+03  0.41800000000E+01 0.  1.
        -11    1    1    2    0    0  0.27124197319E+02 -0.94167912909E+01  0.16047797191E+03  0.16302630925E+03  0.00000000000E+00 0. -1.
         11    1    1    2    0    0  0.65468510957E+01 -0.24958379749E+02 -0.30248105524E+01  0.25979442986E+02  0.00000000000E+00 0.  1.
</event>
<event>
 7    1  0.2564986E-009  0.1230496E+03  0.7561462E-02  0.1238149E+00
         -1   -1    0    0    0  501 -0.00000000000E+00  0.00000000000E+00  0.83251137546E+02  0.83251137546E+02  0.00000000000E+00 0.  1.
          1   -1    0    0  501    0  0.00000000000E+00 -0.00000000000E+00 -0.29447078076E+03  0.29447078076E+03  0.00000000000E+00 0. -1.
         25    2    1    2    0    0  0.69581237862E+01 -0.10698011823E+03 -0.16171903827E+03  0.23085432585E+03  0.12509001256E+03 0.  0.
          5    1    3    3  502    0  0.47272981681E+02 -0.52056711687E+02 -0.19482362798E+02  0.73086735383E+02  0.41800000000E+01 0.  1.
         -5    1    3    3    0  502 -0.40314857895E+02 -0.54923406540E+02 -0.14223667548E+03  0.15776759047E+03  0.41800000000E+01 0.  1.
        -11    1    1    2    0    0 -0.61190336698E+01  0.45253149915E+02  0.23423960041E+02  0.51322237425E+02  0.00000000000E+00 0.  1.
         11    1    1    2    0    0 -0.83909011638E+00  0.61726968313E+02 -0.72924564981E+02  0.95545355026E+02  0.00000000000E+00 0. -1.
</event>
<event>
 7    1  0.2564986E-009  0.1142942E+03  0.7561462E-02  0.1252818E+00
          2   -1    0    0  501    0  0.00000000000E+00  0.00000000000E+00  0.89926757416E+02  0.89926757416E+02  0.00000000000E+00 0. -1.
         -2   -1    0    0    0  501 -0.00000000000E+00 -0.00000000000E+00 -0.16154455615E+03  0.16154455615E+03  0.00000000000E+00 0.  1.
         25    2    1    2    0    0 -0.13450146154E+02  0.48900433329E+02 -0.58983495638E+02  0.14730556362E+03  0.12509083701E+03 0.  0.
          5    1    3    3  502    0  0.37324260968E+02 -0.23279462542E+02 -0.33205940083E+02  0.55273327110E+02  0.41800000000E+01 0. -1.
         -5    1    3    3    0  502 -0.50774407122E+02  0.72179895871E+02 -0.25777555555E+02  0.92032236509E+02  0.41800000000E+01 0. -1.
        -11    1    1    2    0    0  0.38675377334E+02  0.25416957713E+01 -0.24231106095E+02  0.45709862523E+02  0.00000000000E+00 0.  1.
         11    1    1    2    0    0 -0.25225231180E+02 -0.51442129100E+02  0.11596802999E+02  0.58455887422E+02  0.00000000000E+00 0. -1.
</event>
<event>
 7    1  0.2564986E-009  0.1221666E+03  0.7561462E-02  0.1239565E+00
          2   -1    0    0  501    0  0.00000000000E+00  0.00000000000E+00  0.56306912820E+03  0.56306912820E+03  0.00000000000E+00 0. -1.
         -2   -1    0    0    0  501 -0.00000000000E+00 -0.00000000000E+00 -0.31176932783E+02  0.31176932783E+02  0.00000000000E+00 0.  1.
         25    2    1    2    0    0 -0.23577991470E+02  0.68638044458E+02  0.35609336729E+03  0.38434019577E+03  0.12509115488E+03 0.  0.
          5    1    3    3  502    0 -0.71249916371E+02  0.65111565739E+02  0.23453519511E+03  0.25365389160E+03  0.41800000000E+01 0.  1.
         -5    1    3    3    0  502  0.47671924901E+02  0.35264787193E+01  0.12155817218E+03  0.13068630418E+03  0.41800000000E+01 0.  1.
        -11    1    1    2    0    0 -0.23967613852E+02 -0.30477728839E+02  0.22265486366E+02  0.44711188221E+02  0.00000000000E+00 0.  1.
         11    1    1    2    0    0  0.47545605322E+02 -0.38160315619E+02  0.15353334177E+03  0.16519467699E+03  0.00000000000E+00 0. -1.
</event>
<event>
 7    1  0.2564986E-009  0.1672657E+03  0.7561462E-02  0.1180730E+00
          2   -1    0    0  501    0  0.00000000000E+00  0.00000000000E+00  0.14433708840E+04  0.14433708840E+04  0.00000000000E+00 0. -1.
         -2   -1    0    0    0  501 -0.00000000000E+00 -0.00000000000E+00 -0.25641204660E+02  0.25641204660E+02  0.00000000000E+00 0.  1.
         25    2    1    2    0    0 -0.12363827831E+02  0.15851979092E+03  0.81327987865E+03  0.83806567511E+03  0.12509407033E+03 0.  0.
          5    1    3    3  502    0 -0.18229124849E+02  0.10760331853E+03  0.25476501851E+03  0.27718849581E+03  0.41800000000E+01 0. -1.
         -5    1    3    3    0  502  0.58652970187E+01  0.50916472397E+02  0.55851486014E+03  0.56087717931E+03  0.41800000000E+01 0. -1.
        -11    1    1    2    0    0  0.41558898778E+02 -0.80633265161E+02  0.40135164183E+03  0.41147540136E+03  0.00000000000E+00 0. -1.
         11    1    1    2    0    0 -0.29195070947E+02 -0.77886525762E+02  0.20309815889E+03  0.21947101223E+03  0.00000000000E+00 0.  1.
</event>
<event>
 7    1  0.2564986E-009  0.1126901E+03  0.7561462E-02  0.1255668E+00
         -2   -1    0    0    0  501 -0.00000000000E+00  0.00000000000E+00  0.14299492838E+03  0.14299492838E+03  0.00000000000E+00 0.  1.
          2   -1    0    0  501    0  0.00000000000E+00 -0.00000000000E+00 -0.12647927721E+03  0.12647927721E+03  0.00000000000E+00 0. -1.
         25    2    1    2    0    0 -0.47363333700E+02  0.45722317664E+02 -0.34967403399E+02  0.14561804260E+03  0.12509228321E+03 0.  0.
          5    1    3    3  502    0  0.18504919616E+02  0.59234558365E+02 -0.45987430946E+02  0.77352964776E+02  0.41800000000E+01 0. -1.
         -5    1    3    3    0  502 -0.65868253316E+02 -0.13512240701E+02  0.11020027547E+02  0.68265077828E+02  0.41800000000E+01 0. -1.
        -11    1    1    2    0    0  0.11345633136E+02  0.18776501494E+02  0.44548567851E+02  0.49657379080E+02  0.00000000000E+00 0.  1.
         11    1    1    2    0    0  0.36017700565E+02 -0.64498819158E+02  0.69344867126E+01  0.74198783903E+02  0.00000000000E+00 0. -1.
</event>
<event>
 7    1  0.2564986E-009  0.1035653E+03  0.7561462E-02  0.1272972E+00
          1   -1    0    0  501    0  0.00000000000E+00  0.00000000000E+00  0.49489503067E+02  0.49489503067E+02  0.00000000000E+00 0. -1.
         -1   -1    0    0    0  501 -0.00000000000E+00 -0.00000000000E+00 -0.29431181507E+03  0.29431181507E+03  0.00000000000E+00 0.  1.
         25    2    1    2    0    0 -0.45127680701E+02 -0.13409477533E+02 -0.17182528664E+03  0.21768736163E+03  0.12509011404E+03 0.  0.
          5    1    3    3  502    0 -0.59459325763E+02  0.23828206170E+02 -0.31050985653E+02  0.71308000529E+02  0.41800000000E+01 0. -1.
         -5    1    3    3    0  502  0.14331645062E+02 -0.37237683703E+02 -0.14077430099E+03  0.14637936110E+03  0.41800000000E+01 0. -1.
        -11    1    1    2    0    0 -0.25172067627E+01  0.45375124415E+02 -0.33532562730E+02  0.56477172457E+02  0.00000000000E+00 0. -1.
         11    1    1    2    0    0  0.47644887464E+02 -0.31965646881E+02 -0.39464462634E+02  0.69636784051E+02  0.00000000000E+00 0.  1.
</event>
<event>
 7    1  0.2564986E-009  0.1129462E+03  0.7561462E-02  0.1255209E+00
         -2   -1    0    0    0  501 -0.00000000000E+00  0.00000000000E+00  0.57044885411E+02  0.57044885411E+02  0.00000000000E+00 0.  1.
          2   -1    0    0  501    0  0.00000000000E+00 -0.00000000000E+00 -0.32600745879E+03  0.32600745879E+03  0.00000000000E+00 0. -1.
         25    2    1    2    0    0  0.26057627425E+02 -0.45286042829E+02 -0.57961973599E+02  0.14743287854E+03  0.12508811962E+03 0.  0.
          5    1    3    3  502    0 -0.19585440462E+02  0.33279265473E+02  0.13188044862E+01  0.38862715214E+02  0.41800000000E+01 0. -1.
         -5    1    3    3    0  502  0.45643067887E+02 -0.78565308302E+02 -0.59280778086E+02  0.10857016333E+03  0.41800000000E+01 0. -1.
        -11    1    1    2    0    0 -0.21588542909E+02  0.68826842085E+02 -0.19179564654E+03  0.20491161365E+03  0.00000000000E+00 0. -1.
         11    1    1    2    0    0 -0.44690845152E+01 -0.23540799256E+02 -0.19204953234E+02  0.30707852004E+02  0.00000000000E+00 0.  1.
</event>
<event>
 7    1  0.2564986E-009  0.1180323E+03  0.7561462E-02  0.1246379E+00
          2   -1    0    0  501    0  0.00000000000E+00  0.00000000000E+00  0.36896895141E+03  0.36896895141E+03  0.00000000000E+00 0. -1.
         -2   -1    0    0    0  501 -0.00000000000E+00 -0.00000000000E+00 -0.39770588634E+02  0.39770588634E+02  0.00000000000E+00 0.  1.
         25    2    1    2    0    0  0.64465061155E+01 -0.68572781397E+02  0.17906248605E+03  0.22902969636E+03  0.12508974423E+03 0.  0.
          5    1    3    3  502    0 -0.50149595491E+02  0.20036550351E+01  0.82390030515E+02  0.96563896409E+02  0.41800000000E+01 0. -1.
         -5    1    3    3    0  502  0.56596101606E+02 -0.70576436432E+02  0.96672455539E+02  0.13246579995E+03  0.41800000000E+01 0. -1.
        -11    1    1    2    0    0 -0.30594280906E+02  0.63467917884E+02  0.87199189184E+02  0.11210657973E+03  0.00000000000E+00 0.  1.
         11    1    1    2    0    0  0.24147774790E+02  0.51048635131E+01  0.62936687536E+02  0.67603263951E+02  0.00000000000E+00 0. -1.
</event>
<event>
 7    1  0.2564986E-009  0.1548727E+03  0.7561462E-02  0.1194610E+00
         -1   -1    0    0    0  501 -0.00000000000E+00  0.00000000000E+00  0.10504247567E+03  0.10504247567E+03  0.00000000000E+00 0.  1.
          1   -1    0    0  501    0  0.00000000000E+00 -0.00000000000E+00 -0.29810414395E+03  0.29810414395E+03  0.00000000000E+00 0. -1.
         25    2    1    2    0    0  0.12375737136E+03 -0.44590477642E+02 -0.50786460602E+02  0.18849682278E+03  0.12509032719E+03 0.  0.
          5    1    3    3  502    0  0.53307246907E+02 -0.82318971720E+02 -0.99780455334E+01  0.98666658353E+02  0.41800000000E+01 0. -1.
         -5    1    3    3    0  502  0.70450124454E+02  0.37728494078E+02 -0.40808415069E+02  0.89830164430E+02  0.41800000000E+01 0. -1.
        -11    1    1    2    0    0 -0.17314889159E+02  0.69335935888E+01  0.12948758175E+02  0.22705735947E+02  0.00000000000E+00 0.  1.
         11    1    1    2    0    0 -0.10644248220E+03  0.37656884053E+02 -0.15522396585E+03  0.19194406088E+03  0.00000000000E+00 0. -1.
</event>
<event>
 7    1  0.2564986E-009  0.1470076E+03  0.7561462E-02  0.1204199E+00
          1   -1    0    0  501    0  0.00000000000E+00  0.00000000000E+00  0.48678804209E+03  0.48678804209E+03  0.00000000000E+00 0. -1.
         -1   -1    0    0    0  501 -0.00000000000E+00 -0.00000000000E+00 -0.55648545652E+02  0.55648545652E+02  0.00000000000E+00 0.  1.
         25    2    1    2    0    0 -0.11533632367E+03 -0.23350751718E+01  0.15953477032E+03  0.23324506188E+03  0.12507596019E+03 0.  0.
          5    1    3    3  502    0 -0.56423355367E+01 -0.42325275917E+02  0.83422431909E+02  0.93808525612E+02  0.41800000000E+01 0.  1.
         -5    1    3    3    0  502 -0.10969398814E+03  0.39990200745E+02  0.76112338411E+02  0.13943653627E+03  0.41800000000E+01 0.  1.
        -11    1    1    2    0    0  0.77579062160E+00  0.18560489661E+02  0.60698447831E+01  0.19543199412E+02  0.00000000000E+00 0.  1.
         11    1    1    2    0    0  0.11456053305E+03 -0.16225414489E+02  0.26553488133E+03  0.28964832644E+03  0.00000000000E+00 0. -1.
</event>
<event>
 7    1  0.2564986E-009  0.1033989E+03  0.7561462E-02  0.1273307E+00
          2   -1    0    0  501    0  0.00000000000E+00  0.00000000000E+00  0.18920029764E+03  0.18920029764E+03  0.00000000000E+00 0.  1.
         -2   -1    0    0    0  501 -0.00000000000E+00 -0.00000000000E+00 -0.69916935404E+02  0.69916935404E+02  0.00000000000E+00 0. -1.
         25    2    1    2    0    0 -0.54710481935E+02  0.16020174084E+02  0.76960858783E+02  0.15754492755E+03  0.12509015789E+03 0.  0.
          5    1    3    3  502    0 -0.67181673406E+02 -0.24720893915E+02  0.26168891393E+01  0.71755280965E+02  0.41800000000E+01 0.  1.
         -5    1    3    3    0  502  0.12471191471E+02  0.40741067999E+02  0.74343969643E+02  0.85789646582E+02  0.41800000000E+01 0.  1.
        -11    1    1    2    0    0  0.57344108925E+02  0.16485195928E+02  0.25660979181E+02  0.64950707200E+02  0.00000000000E+00 0. -1.
         11    1    1    2    0    0 -0.26336269897E+01 -0.32505370012E+02  0.16661524274E+02  0.36621598298E+02  0.00000000000E+00 0.  1.
</event>
<event>
 7    1  0.2564986E-009  0.1131399E+03  0.7561462E-02  0.1254863E+00
         -1   -1    0    0    0  501 -0.00000000000E+00  0.00000000000E+00  0.41125405927E+03  0.41125405927E+03  0.00000000000E+00 0.  1.
          1   -1    0    0  501    0  0.00000000000E+00 -0.00000000000E+00 -0.52353861731E+02  0.52353861731E+02  0.00000000000E+00 0. -1.
         25    2    1    2    0    0 -0.11203815146E+02 -0.48111760341E+02  0.55885531886E+02  0.14563111099E+03  0.12507981794E+03 0.  0.
          5    1    3    3  502    0  0.29643290528E+02  0.31177827208E+02  0.30170045497E+02  0.52711342499E+02  0.41800000000E+01 0.  1.
         -5    1    3    3    0  502 -0.40847105674E+02 -0.79289587550E+02  0.25715486388E+02  0.92919768488E+02  0.41800000000E+01 0.  1.
        -11    1    1    2    0    0  0.43569645482E+02  0.11832513263E+02  0.18303316699E+03  0.18851913058E+03  0.00000000000E+00 0.  1.
         11    1    1    2    0    0 -0.32365830336E+02  0.36279247078E+02  0.11998149866E+03  0.12945767943E+03  0.00000000000E+00 0. -1.
</event>
<event>
 7    1  0.2564986E-009  0.9904614E+02  0.7561462E-02  0.1282315E+00
         -2   -1    0    0    0  501 -0.00000000000E+00  0.00000000000E+00  0.53778379398E+02  0.53778379398E+02  0.00000000000E+00 0.  1.
          2   -1    0    0  501    0  0.00000000000E+00 -0.00000000000E+00 -0.22549443849E+03  0.22549443849E+03  0.00000000000E+00 0. -1.
         25    2    1    2    0    0 -0.13247512772E+02 -0.83990674239E+01 -0.83132311444E+02  0.15101165210E+03  0.12508995537E+03 0.  0.
          5    1    3    3  502    0  0.34865195125E+02 -0.47958765998E+02 -0.21288514104E+02  0.63137138833E+02  0.41800000000E+01 0.  1.
         -5    1    3    3    0  502 -0.48112707897E+02  0.39559698574E+02 -0.61843797340E+02  0.87874513267E+02  0.41800000000E+01 0.  1.
        -11    1    1    2    0    0 -0.10935387040E+02  0.37108964337E+02 -0.82021259793E+01  0.39546590175E+02  0.00000000000E+00 0.  1.
         11    1    1    2    0    0  0.24182899811E+02 -0.28709896913E+02 -0.80381621668E+02  0.88714575612E+02  0.00000000000E+00 0. -1.
</event>
<event>
 7    1  0.2564986E-009  0.1009876E+03  0.7561462E-02  0.1278233E+00
          3   -1    0    0  501    0  0.00000000000E+00  0.00000000000E+00  0.21698530676E+03  0.21698530676E+03  0.00000000000E+00 0. -1.
         -3   -1    0    0    0  501 -0.00000000000E+00 -0.00000000000E+00 -0.89866199405E+02  0.89866199405E+02  0.00000000000E+00 0.  1.
         25    2    1    2    0    0  0.48013499581E+02 -0.17143932757E+02 -0.75389272904E+01  0.13528462050E+03  0.12508350230E+03 0.  0.
          5    1    3    3  502    0  0.67632727162E+02  0.13930531466E+02 -0.45090659635E+02  0.82576543138E+02  0.41800000000E+01 0.  1.
         -5    1    3    3    0  502 -0.19619227581E+02 -0.31074464222E+02  0.37551732345E+02  0.52708077366E+02  0.41800000000E+01 0.  1.
        -11    1    1    2    0    0  0.17684927577E+02 -0.14517234681E+02  0.59635667942E+01  0.23644680059E+02  0.00000000000E+00 0.  1.
         11    1    1    2    0    0 -0.65698427158E+02  0.31661167438E+02  0.12869446785E+03  0.14792220560E+03  0.00000000000E+00 0. -1.
</event>
<event>
 7    1  0.2564986E-009  0.2036257E+03  0.7561462E-02  0.1146716E+00
         -1   -1    0    0    0  501 -0.00000000000E+00  0.00000000000E+00  0.15023305450E+03  0.15023305450E+03  0.00000000000E+00 0.  1.
          1   -1    0    0  501    0  0.00000000000E+00 -0.00000000000E+00 -0.35322833972E+03  0.35322833972E+03  0.00000000000E+00 0. -1.
         25    2    1    2    0    0 -0.88232366050E+01  0.18821497674E+03 -0.22415821565E+02  0.22727536292E+03  0.12509554173E+03 0.  0.
          5    1    3    3  502    0 -0.37092039848E+02  0.48690572363E+02 -0.53614542171E+02  0.81477498669E+02  0.41800000000E+01 0.  1.
         -5    1    3    3    0  502  0.28268803243E+02  0.13952440438E+03  0.31198720606E+02  0.14579786426E+03  0.41800000000E+01 0.  1.
        -11    1    1    2    0    0 -0.34041769699E+02 -0.72961555225E+02 -0.41627434820E+02  0.90637045157E+02  0.00000000000E+00 0.  1.
         11    1    1    2    0    0  0.42865006304E+02 -0.11525342152E+03 -0.13895202884E+03  0.18554898613E+03  0.00000000000E+00 0. -1.
</event>
<event>
 7    1  0.2564986E-009  0.1580185E+03  0.7561462E-02  0.1190952E+00
         -1   -1    0    0    0  501 -0.00000000000E+00  0.00000000000E+00  0.43330347146E+02  0.43330347146E+02  0.00000000000E+00 0.  1.
          1   -1    0    0  501    0  0.00000000000E+00 -0.00000000000E+00 -0.81254298002E+03  0.81254298002E+03  0.00000000000E+00 0. -1.
         25    2    1    2    0    0 -0.14619497572E+03 -0.28044652457E+02 -0.40637760910E+03  0.45049929060E+03  0.12508947275E+03 0.  0.
          5    1    3    3  502    0 -0.12176969662E+03 -0.51875800579E+02 -0.19113016091E+03  0.23252347948E+03  0.41800000000E+01 0.  1.
         -5    1    3    3    0  502 -0.24425279103E+02  0.23831148122E+02 -0.21524744819E+03  0.21797581112E+03  0.41800000000E+01 0.  1.
        -11    1    1    2    0    0  0.59066229308E+02  0.16600430083E+02 -0.46291595257E+02  0.76858997619E+02  0.00000000000E+00 0.  1.
         11    1    1    2    0    0  0.87128746415E+02  0.11444222374E+02 -0.31654342852E+03  0.32851503895E+03  0.00000000000E+00 0. -1.
</event>
<event>
 7    1  0.2564986E-009  0.1182190E+03  0.7561462E-02  0.1246064E+00
          1   -1    0    0  501    0  0.00000000000E+00  0.00000000000E+00  0.64801324400E+03  0.64801324400E+03  0.00000000000E+00 0. -1.
         -1   -1    0    0    0  501 -0.00000000000E+00 -0.00000000000E+00 -0.23632870383E+02  0.23632870383E+02  0.00000000000E+00 0.  1.
         25    2    1    2    0    0 -0.49422383722E+02 -0.11685766904E+02  0.26415994147E+03  0.29665870258E+03  0.12508709755E+03 0.  0.
          5    1    3    3  502    0 -0.79351474056E+02  0.26386419611E+02  0.13742971953E+03  0.16092638002E+03  0.41800000000E+01 0.  1.
         -5    1    3    3    0  502  0.29929090335E+02 -0.38072186515E+02  0.12673022194E+03  0.13573232256E+03  0.41800000000E+01 0.  1.
        -11    1    1    2    0    0  0.11522131062E+02  0.49345601965E+02  0.18329654265E+03  0.19017194978E+03  0.00000000000E+00 0.  1.
         11    1    1    2    0    0  0.37900252660E+02 -0.37659835061E+02  0.17692388950E+03  0.18481546202E+03  0.00000000000E+00 0. -1.
</event>
<event>
 7    1  0.2564986E-009  0.9147934E+02  0.7561462E-02  0.1299308E+00
          1   -1    0    0  501    0  0.00000000000E+00  0.00000000000E+00  0.72725534863E+02  0.72725534863E+02  0.00000000000E+00 0. -1.
         -1   -1    0    0    0  501 -0.00000000000E+00 -0.00000000000E+00 -0.21607954869E+03  0.21607954869E+03  0.00000000000E+00 0.  1.
         25    2    1    2    0    0 -0.29101877639E+02 -0.53960566941E+02 -0.76663663873E+02  0.15900753300E+03  0.12508963237E+03 0.  0.
          5    1    3    3  502    0 -0.63880741617E+02 -0.19866349070E+02 -0.86210101586E+02  0.10920199170E+03  0.41800000000E+01 0. -1.
         -5    1    3    3    0  502  0.34778863978E+02 -0.34094217870E+02  0.95464377129E+01  0.49805541306E+02  0.41800000000E+01 0. -1.
        -11    1    1    2    0    0  0.34090524335E+02  0.42039075157E+02  0.73649036614E+01  0.54623158966E+02  0.00000000000E+00 0. -1.
         11    1    1    2    0    0 -0.49886466959E+01  0.11921491784E+02 -0.74055253618E+02  0.75174391588E+02  0.00000000000E+00 0.  1.
</event>
<event>
 7    1  0.2564986E-009  0.1129686E+03  0.7561462E-02  0.1255169E+00
         -2   -1    0    0    0  501 -0.00000000000E+00  0.00000000000E+00  0.15269011323E+02  0.15269011323E+02  0.00000000000E+00 0.  1.
          2   -1    0    0  501    0  0.00000000000E+00 -0.00000000000E+00 -0.11513734277E+04  0.11513734277E+04  0.00000000000E+00 0. -1.
         25    2    1    2    0    0  0.52917444973E+02 -0.24937029480E+02 -0.84521466523E+03  0.85642154939E+03  0.12509168042E+03 0.  0.
          5    1    3    3  502    0 -0.15003211836E+02 -0.57959357117E+02 -0.45527580817E+03  0.45921445682E+03  0.41800000000E+01 0.  1.
         -5    1    3    3    0  502  0.67920656808E+02  0.33022327637E+02 -0.38993885706E+03  0.39720709258E+03  0.41800000000E+01 0.  1.
        -11    1    1    2    0    0 -0.63737779379E+02  0.70099923598E+00 -0.26702625038E+03  0.27452871309E+03  0.00000000000E+00 0. -1.
         11    1    1    2    0    0  0.10820334406E+02  0.24236030244E+02 -0.23863500812E+02  0.35692176589E+02  0.00000000000E+00 0.  1.
</event>
<event>
 7    1  0.2564986E-009  0.1963140E+03  0.7561462E-02  0.1152887E+00
          2   -1    0    0  501    0  0.00000000000E+00  0.00000000000E+00  0.40070350858E+03  0.40070350858E+03  0.00000000000E+00 0. -1.
         -2   -1    0    0    0  501 -0.00000000000E+00 -0.00000000000E+00 -0.25582471377E+03  0.25582471377E+03  0.00000000000E+00 0.  1.
         25    2    1    2    0    0 -0.13947950590E+03  0.11914520466E+03 -0.17080724842E+03  0.28012849993E+03  0.12508696175E+03 0.  0.
          5    1    3    3  502    0 -0.12876249164E+03  0.13155704926E+03 -0.10454790176E+03  0.21174223156E+03  0.41800000000E+01 0. -1.
         -5    1    3    3    0  502 -0.10717014258E+02 -0.12411844603E+02 -0.66259346660E+02  0.68386268365E+02  0.41800000000E+01 0. -1.
        -11    1    1    2    0    0  0.72053560085E+02 -0.26033373229E+02  0.19602074814E+03  0.21046041372E+03  0.00000000000E+00 0.  1.
         11    1    1    2    0    0  0.67425945815E+02 -0.93111831426E+02  0.11966529509E+03  0.16593930870E+03  0.00000000000E+00 0. -1.
</event>
<event>
 7    1  0.2564986E-009  0.1091046E+03  0.7561462E-02  0.1262237E+00
         -2   -1    0    0    0  501 -0.00000000000E+00  0.00000000000E+00  0.39073943978E+02  0.39073943978E+02  0.00000000000E+00 0.  1.
          2   -1    0    0  501    0  0.00000000000E+00 -0.00000000000E+00 -0.41175250299E+03  0.41175250299E+03  0.00000000000E+00 0. -1.
         25    2    1    2    0    0  0.42288679965E+02  0.13765865896E+01 -0.11895551777E+03  0.17772886261E+03  0.12508759311E+03 0.  0.
          5    1    3    3  502    0  0.37143586938E+02 -0.57583050481E+02 -0.85378597361E+02  0.10955560707E+03  0.41800000000E+01 0. -1.
         -5    1    3    3    0  502  0.51450930269E+01  0.58959637071E+02 -0.33576920414E+02  0.68173255535E+02  0.41800000000E+01 0. -1.
        -11    1    1    2    0    0 -0.10879289539E+01  0.35149811552E+02 -0.44321802203E+02  0.56578396867E+02  0.00000000000E+00 0.  1.
         11    1    1    2    0    0 -0.41200751011E+02 -0.36526398141E+02 -0.20940123903E+03  0.21651918750E+03  0.00000000000E+00 0. -1.
</event>
<event>
 7    1  0.2564986E-009  0.1646628E+03  0.7561462E-02  0.1183531E+00
          1   -1    0    0  501    0  0.00000000000E+00  0.00000000000E+00  0.10331377115E+04  0.10331377115E+04  0.00000000000E+00 0. -1.
         -1   -1    0    0    0  501 -0.00000000000E+00 -0.00000000000E+00 -0.27631117104E+02  0.27631117104E+02  0.00000000000E+00 0.  1.
         25    2    1    2    0    0  0.12042783025E+03  0.46751391883E+02  0.54435487900E+03  0.57328722822E+03  0.12508979497E+03 0.  0.
          5    1    3    3  502    0  0.12389110136E+03 -0.41463900572E+00  0.46083077621E+03  0.47721237790E+03  0.41800000000E+01 0. -1.
         -5    1    3    3    0  502 -0.34632711074E+01  0.47166030889E+02  0.83524102792E+02  0.96074850319E+02  0.41800000000E+01 0. -1.
        -11    1    1    2    0    0  0.57245756997E+01 -0.30099739177E+02  0.98352847260E+02  0.10301479326E+03  0.00000000000E+00 0.  1.
         11    1    1    2    0    0 -0.12615240595E+03 -0.16651652706E+02  0.36279886816E+03  0.38446680715E+03  0.00000000000E+00 0. -1.
</event>
<event>
 7    1  0.2564986E-009  0.1646393E+03  0.7561462E-02  0.1183556E+00
         -4   -1    0    0    0  501 -0.00000000000E+00  0.00000000000E+00  0.25141117263E+03  0.25141117263E+03  0.00000000000E+00 0.  1.
          4   -1    0    0  501    0  0.00000000000E+00 -0.00000000000E+00 -0.11128225142E+03  0.11128225142E+03  0.00000000000E+00 0. -1.
         25    2    1    2    0    0 -0.10590324258E+03 -0.66607953601E+02  0.83760808333E+02  0.19574410332E+03  0.12509102565E+03 0.  0.
          5    1    3    3  502    0 -0.64339606409E+02 -0.99783741082E+02  0.35982902998E+02  0.12413146920E+03  0.41800000000E+01 0.  1.
         -5    1    3    3    0  502 -0.41563636176E+02  0.33175787481E+02  0.47777905335E+02  0.71612634119E+02  0.41800000000E+01 0.  1.
        -11    1    1    2    0    0  0.51347623543E+00  0.50518807829E+02  0.19139363371E+02  0.54025261060E+02  0.00000000000E+00 0.  1.
         11    1    1    2    0    0  0.10538976635E+03  0.16089145771E+02  0.37228749506E+02  0.11292405967E+03  0.00000000000E+00 0. -1.
</event>
<event>
 7    1  0.2564986E-009  0.1140076E+03  0.7561462E-02  0.1253323E+00
         -1   -1    0    0    0  501 -0.00000000000E+00  0.00000000000E+00  0.22982644790E+02  0.22982644790E+02  0.00000000000E+00 0.  1.
          1   -1    0    0  501    0  0.00000000000E+00 -0.00000000000E+00 -0.68458226931E+03  0.68458226931E+03  0.00000000000E+00 0. -1.
         25    2    1    2    0    0 -0.96493185759E+01  0.46564039230E+02 -0.25145198498E+03  0.28484660640E+03  0.12509264299E+03 0.  0.
          5    1    3    3  502    0 -0.26243128010E+02  0.82344199249E+02 -0.12281436882E+03  0.15023351992E+03  0.41800000000E+01 0. -1.
         -5    1    3    3    0  502  0.16593809434E+02 -0.35780160020E+02 -0.12863761616E+03  0.13461308649E+03  0.41800000000E+01 0. -1.
        -11    1    1    2    0    0  0.25349508258E+02 -0.69530601153E+02 -0.31570458359E+03  0.32426298920E+03  0.00000000000E+00 0.  1.
         11    1    1    2    0    0 -0.15700189682E+02  0.22966561923E+02 -0.94443055952E+02  0.98455318496E+02  0.00000000000E+00 0. -1.
</event>
<event>
 7    1  0.2564986E-009  0.7096029E+02  0.7561462E-02  0.1356858E+00
          2   -1    0    0  501    0  0.00000000000E+00  0.00000000000E+00  0.28131262845E+02  0.28131262845E+02  0.00000000000E+00 0. -1.
         -2   -1    0    0    0  501 -0.00000000000E+00 -0.00000000000E+00 -0.97914776087E+03  0.97914776087E+03  0.00000000000E+00 0.  1.
         25    2    1    2    0    0  0.42570059416E+02 -0.35434686094E+02 -0.84298896084E+03  0.85401785190E+03  0.12509307064E+03 0.  0.
          5    1    3    3  502    0  0.35746749853E+02 -0.31356564090E+02 -0.98320918588E+02  0.10929565256E+03  0.41800000000E+01 0.  1.
         -5    1    3    3    0  502  0.68233095626E+01 -0.40781220041E+01 -0.74466804225E+03  0.74472219934E+03  0.41800000000E+01 0.  1.
        -11    1    1    2    0    0 -0.43336407315E+02 -0.60121752054E+01 -0.73253319358E+01  0.44360465932E+02  0.00000000000E+00 0. -1.
         11    1    1    2    0    0  0.76634789946E+00  0.41446861300E+02 -0.10070220525E+03  0.10890070589E+03  0.00000000000E+00 0.  1.
</event>
<event>
 7    1  0.2564986E-009  0.6452617E+02  0.7561462E-02  0.1379763E+00
         -2   -1    0    0    0  501 -0.00000000000E+00  0.00000000000E+00  0.33221118663E+03  0.33221118663E+03  0.00000000000E+00 0.  1.
          2   -1    0    0  501    0  0.00000000000E+00 -0.00000000000E+00 -0.43596328567E+02  0.43596328567E+02  0.00000000000E+00 0. -1.
         25    2    1    2    0    0  0.16410271642E+02  0.14238948630E+02  0.90480044935E+02  0.15590041852E+03  0.12508500026E+03 0.  0.
          5    1    3    3  502    0  0.23872955795E+02 -0.29430217747E+02  0.10287091714E+03  0.10970849433E+03  0.41800000000E+01 0.  1.
         -5    1    3    3    0  502 -0.74626841536E+01  0.43669166378E+02 -0.12390872200E+02  0.46191924195E+02  0.41800000000E+01 0.  1.
        -11    1    1    2    0    0 -0.21439451777E+02 -0.25963075293E+02  0.20335455787E+03  0.20612328247E+03  0.00000000000E+00 0.  1.
         11    1    1    2    0    0  0.50291801349E+01  0.11724126662E+02 -0.52197447409E+01  0.13783814203E+02  0.00000000000E+00 0. -1.
</event>
<event>
 7    1  0.2564986E-009  0.1288269E+03  0.7561462E-02  0.1229207E+00
         -2   -1    0    0    0  501 -0.00000000000E+00  0.00000000000E+00  0.24696310502E+02  0.24696310502E+02  0.00000000000E+00 0.  1.
          2   -1    0    0  501    0  0.00000000000E+00 -0.00000000000E+00 -0.83790414453E+03  0.83790414453E+03  0.00000000000E+00 0. -1.
         25    2    1    2    0    0 -0.76790118331E+02 -0.47699488503E+02 -0.33529257807E+03  0.36910821051E+03  0.12509114550E+03 0.  0.
          5    1    3    3  502    0 -0.52906520190E+02 -0.83909855564E+02 -0.28877812657E+03  0.30536902680E+03  0.41800000000E+01 0.  1.
         -5    1    3    3    0  502 -0.23883598140E+02  0.36210367062E+02 -0.46514451498E+02  0.63739183718E+02  0.41800000000E+01 0.  1.
        -11    1    1    2    0    0  0.89691472643E+02  0.33859218583E+02 -0.44763908578E+03  0.45779008079E+03  0.00000000000E+00 0. -1.
         11    1    1    2    0    0 -0.12901354312E+02  0.13840269920E+02 -0.30276170174E+02  0.35702163730E+02  0.00000000000E+00 0.  1.
</event>
<event>
 7    1  0.2564986E-009  0.8031171E+02  0.7561462E-02  0.1328169E+00
          2   -1    0    0  501    0  0.00000000000E+00  0.00000000000E+00  0.15749565397E+03  0.15749565397E+03  0.00000000000E+00 0. -1.
         -2   -1    0    0    0  501 -0.00000000000E+00 -0.00000000000E+00 -0.81212778899E+02  0.81212778899E+02  0.00000000000E+00 0.  1.
         25    2    1    2    0    0  0.26935354088E+02 -0.11247601162E+02  0.38070677084E+02  0.13397147722E+03  0.12508780285E+03 0.  0.
          5    1    3    3  502    0  0.76856342501E+02 -0.10720611963E+02  0.29614263578E+02  0.83164330760E+02  0.41800000000E+01 0. -1.
         -5    1    3    3    0  502 -0.49920988413E+02 -0.52698919919E+00  0.84564135063E+01  0.50807146457E+02  0.41800000000E+01 0. -1.
        -11    1    1    2    0    0 -0.17729469821E+02 -0.68297127440E+00 -0.30014170975E+02  0.34866187190E+02  0.00000000000E+00 0.  1.
         11    1    1    2    0    0 -0.92058842677E+01  0.11930572436E+02  0.68226368960E+02  0.69870768460E+02  0.00000000000E+00 0. -1.
</event>
<event>
 7    1  0.2564986E-009  0.1701162E+03  0.7561462E-02  0.1177727E+00
          1   -1    0    0  501    0  0.00000000000E+00  0.00000000000E+00  0.17514117239E+03  0.17514117239E+03  0.00000000000E+00 0. -1.
         -1   -1    0    0    0  501 -0.00000000000E+00 -0.00000000000E+00 -0.21330683141E+03  0.21330683141E+03  0.00000000000E+00 0.  1.
         25    2    1    2    0    0 -0.58810281291E+02 -0.14870606815E+03 -0.18865255932E+02  0.20389833875E+03  0.12508593357E+03 0.  0.
          5    1    3    3  502    0 -0.36921552238E+02 -0.10452278321E+03 -0.71245830477E+02  0.13183950087E+03  0.41800000000E+01 0.  1.
         -5    1    3    3    0  502 -0.21888729053E+02 -0.44183284938E+02  0.52380574546E+02  0.72058837884E+02  0.41800000000E+01 0.  1.
        -11    1    1    2    0    0  0.22733399923E+02 -0.38461690747E+01 -0.15427357898E+02  0.27741734991E+02  0.00000000000E+00 0.  1.
         11    1    1    2    0    0  0.36076881368E+02  0.15255223722E+03 -0.38730451932E+01  0.15680793006E+03  0.00000000000E+00 0. -1.
</event>
<event>
 7    1  0.2564986E-009  0.1565112E+03  0.7561462E-02  0.1192693E+00
          1   -1    0    0  501    0  0.00000000000E+00  0.00000000000E+00  0.17627805497E+03  0.17627805497E+03  0.00000000000E+00 0. -1.
         -1   -1    0    0    0  501 -0.00000000000E+00 -0.00000000000E+00 -0.17153379098E+03  0.17153379098E+03  0.00000000000E+00 0.  1.
         25    2    1    2    0    0  0.11871148215E+03  0.60562243566E+02  0.18478327787E+02  0.18370883768E+03  0.12508911665E+03 0.  0.
          5    1    3    3  502    0  0.63266345336E+01 -0.13083611427E+02  0.44309697718E+02  0.46819108325E+02  0.41800000000E+01 0.  1.
         -5    1    3    3    0  502  0.11238484761E+03  0.73645854993E+02 -0.25831369931E+02  0.13688972936E+03  0.41800000000E+01 0.  1.
        -11    1    1    2    0    0 -0.30865312621E+02  0.25839568526E+02 -0.52599857595E+01  0.40595791346E+02  0.00000000000E+00 0. -1.
         11    1    1    2    0    0 -0.87846169527E+02 -0.86401812092E+02 -0.84740780280E+01  0.12350721692E+03  0.00000000000E+00 0.  1.
</event>
<event>
 7    1  0.2564986E-009  0.8952238E+02  0.7561462E-02  0.1304012E+00
          2   -1    0    0  501    0  0.00000000000E+00  0.00000000000E+00  0.35178796109E+03  0.35178796109E+03  0.00000000000E+00 0. -1.
         -2   -1    0    0    0  501 -0.00000000000E+00 -0.00000000000E+00 -0.51723657114E+02  0.51723657114E+02  0.00000000000E+00 0.  1.
         25    2    1    2    0    0  0.16289140277E+02  0.64582327259E+02  0.23123504876E+03  0.27120756136E+03  0.12509068900E+03 0.  0.
          5    1    3    3  502    0  0.21969790392E+02  0.71261112177E+02  0.24399555241E+03  0.25517076595E+03  0.41800000000E+01 0.  1.
         -5    1    3    3    0  502 -0.56806501149E+01 -0.66787849180E+01 -0.12760503646E+02  0.16036795410E+02  0.41800000000E+01 0.  1.
        -11    1    1    2    0    0 -0.40336662373E+02 -0.22533397408E+02  0.69972722375E+02  0.83850952330E+02  0.00000000000E+00 0. -1.
         11    1    1    2    0    0  0.24047522096E+02 -0.42048929851E+02 -0.11434671579E+01  0.48453104521E+02  0.00000000000E+00 0.  1.
</event>
<event>
 7    1  0.2564986E-009  0.1049768E+03  0.7561462E-02  0.1270165E+00
          3   -1    0    0  501    0  0.00000000000E+00  0.00000000000E+00  0.43979464872E+03  0.43979464872E+03  0.00000000000E+00 0. -1.
         -3   -1    0    0    0  501 -0.00000000000E+00 -0.00000000000E+00 -0.39586360413E+02  0.39586360413E+02  0.00000000000E+00 0.  1.
         25    2    1    2    0    0 -0.72026451501E+02 -0.15644525416E+02  0.23488578003E+03  0.27613704041E+03  0.12509106496E+03 0.  0.
          5    1    3    3  502    0 -0.54440026163E+02 -0.49700671975E+02  0.54741472561E+02  0.91912863417E+02  0.41800000000E+01 0. -1.
         -5    1    3    3    0  502 -0.17586425338E+02  0.34056146559E+02  0.18014430747E+03  0.18422417699E+03  0.41800000000E+01 0. -1.
        -11    1    1    2    0    0  0.21394370434E+02  0.36898390341E+02  0.13266907846E+03  0.13935671737E+03  0.00000000000E+00 0. -1.
         11    1    1    2    0    0  0.50632081066E+02 -0.21253864924E+02  0.32653429820E+02  0.63887251360E+02  0.00000000000E+00 0.  1.
</event>
<event>
 7    1  0.2564986E-009  0.1282030E+03  0.7561462E-02  0.1230147E+00
         -2   -1    0    0    0  501 -0.00000000000E+00  0.00000000000E+00  0.20500523255E+03  0.20500523255E+03  0.00000000000E+00 0.  1.
          2   -1    0    0  501    0  0.00000000000E+00 -0.00000000000E+00 -0.89402382551E+02  0.89402382551E+02  0.00000000000E+00 0. -1.
         25    2    1    2    0    0 -0.41361071550E+02 -0.69565739260E+02  0.60594750461E+02  0.16083787641E+03  0.12508784268E+03 0.  0.
          5    1    3    3  502    0 -0.30878711366E+02  0.29492877563E+02  0.40771083584E+02  0.59186808489E+02  0.41800000000E+01 0.  1.
         -5    1    3    3    0  502 -0.10482360184E+02 -0.99058616823E+02  0.19823666877E+02  0.10165106793E+03  0.41800000000E+01 0.  1.
        -11    1    1    2    0    0 -0.20714310636E+02  0.39999992066E+02  0.45730286764E+02  0.64189883611E+02  0.00000000000E+00 0.  1.
         11    1    1    2    0    0  0.62075382187E+02  0.29565747193E+02  0.92778127766E+01  0.69379855078E+02  0.00000000000E+00 0. -1.
</event>
<event>
 7    1  0.2564986E-009  0.1024631E+03  0.7561462E-02  0.1275200E+00
          2   -1    0    0  501    0  0.00000000000E+00  0.00000000000E+00  0.46137895007E+03  0.46137895007E+03  0.00000000000E+00 0. -1.
         -2   -1    0    0    0  501 -0.00000000000E+00 -0.00000000000E+00 -0.34062156088E+02  0.34062156088E+02  0.00000000000E+00 0.  1.
         25    2    1    2    0    0  0.52719097843E+02 -0.33098270772E+02  0.24020403410E+03  0.27788530778E+03  0.12508983763E+03 0.  0.
          5    1    3    3  502    0  0.73201358995E+02  0.22864741867E+02  0.16368550698E+03  0.18080833215E+03  0.41800000000E+01 0. -1.
         -5    1    3    3    0  502 -0.20482261152E+02 -0.55963012639E+02  0.76518527115E+02  0.97076975629E+02  0.41800000000E+01 0. -1.
        -11    1    1    2    0    0 -0.29701534242E+02  0.21027543020E+01  0.35613733190E+01  0.29988099171E+02  0.00000000000E+00 0.  1.
         11    1    1    2    0    0 -0.23017563601E+02  0.30995516470E+02  0.18355138657E+03  0.18756769921E+03  0.00000000000E+00 0. -1.
</event>
<event>
 7    1  0.2564986E-009  0.1232392E+03  0.7561462E-02  0.1237847E+00
          1   -1    0    0  501    0  0.00000000000E+00  0.00000000000E+00  0.33718387949E+03  0.33718387949E+03  0.00000000000E+00 0. -1.
         -1   -1    0    0    0  501 -0.00000000000E+00 -0.00000000000E+00 -0.57453970907E+02  0.57453970907E+02  0.00000000000E+00 0.  1.
         25    2    1    2    0    0 -0.59913569028E+02 -0.20282748053E+01  0.24118568698E+03  0.27823015213E+03  0.12509089615E+03 0.  0.
          5    1    3    3  502    0 -0.56884459439E+02 -0.58196000934E+02  0.15714673910E+03  0.17701747445E+03  0.41800000000E+01 0. -1.
         -5    1    3    3    0  502 -0.30291095892E+01  0.56167726129E+02  0.84038947880E+02  0.10121267768E+03  0.41800000000E+01 0. -1.
        -11    1    1    2    0    0  0.66383619369E+02  0.34959552925E+02  0.34585301309E+02  0.82614153314E+02  0.00000000000E+00 0. -1.
         11    1    1    2    0    0 -0.64700503407E+01 -0.32931278120E+02  0.39589202892E+01  0.33793544944E+02  0.00000000000E+00 0.  1.
</event>
<event>
 7    1  0.2564986E-009  0.1308423E+03  0.7561462E-02  0.1226211E+00
          2   -1    0    0  501    0  0.00000000000E+00  0.00000000000E+00  0.33951655552E+03  0.33951655552E+03  0.00000000000E+00 0. -1.
         -2   -1    0    0    0  501 -0.00000000000E+00 -0.00000000000E+00 -0.77238796186E+02  0.77238796186E+02  0.00000000000E+00 0.  1.
         25    2    1    2    0    0  0.94150996148E+00  0.11899741227E+03  0.12458110785E+03  0.21290563054E+03  0.12508830686E+03 0.  0.
          5    1    3    3  502    0 -0.23915609056E+02  0.71857783403E+02 -0.16035329572E+01  0.75865282641E+02  0.41800000000E+01 0.  1.
         -5    1    3    3    0  502  0.24857119017E+02  0.47139628871E+02  0.12618464081E+03  0.13704034790E+03  0.41800000000E+01 0.  1.
        -11    1    1    2    0    0  0.21981596752E+02 -0.16860999272E+02 -0.36713306864E+01  0.27945707384E+02  0.00000000000E+00 0.  1.
         11    1    1    2    0    0 -0.22923106713E+02 -0.10213641300E+03  0.14136798217E+03  0.17590401378E+03  0.00000000000E+00 0. -1.
</event>
<event>
 7    1  0.2564986E-009  0.1322912E+03  0.7561462E-02  0.1224095E+00
          2   -1    0    0  501    0  0.00000000000E+00  0.00000000000E+00  0.88013385591E+03  0.88013385591E+03  0.00000000000E+00 0. -1.
         -2   -1    0    0    0  501 -0.00000000000E+00 -0.00000000000E+00 -0.23741666082E+02  0.23741666082E+02  0.00000000000E+00 0.  1.
         25    2    1    2    0    0  0.29255648428E+02 -0.75681835896E+02  0.59661203537E+03  0.61496278136E+03  0.12509863494E+03 0.  0.
          5    1    3    3  502    0  0.74919179302E+02 -0.62133840273E+02  0.32931621831E+03  0.34342414239E+03  0.41800000000E+01 0. -1.
         -5    1    3    3    0  502 -0.45663530874E+02 -0.13547995624E+02  0.26729581706E+03  0.27153863897E+03  0.41800000000E+01 0. -1.
        -11    1    1    2    0    0  0.11362481418E+02  0.77846094828E+02  0.12126449158E+03  0.14454825278E+03  0.00000000000E+00 0.  1.
         11    1    1    2    0    0 -0.40618129846E+02 -0.21642589320E+01  0.13851566288E+03  0.14436448785E+03  0.00000000000E+00 0. -1.
</event>
<event>
 7    1  0.2564986E-009  0.8751017E+02  0.7561462E-02  0.1308996E+00
          4   -1    0    0  501    0  0.00000000000E+00  0.00000000000E+00  0.16396386518E+03  0.16396386518E+03  0.00000000000E+00 0. -1.
         -4   -1    0    0    0  501 -0.00000000000E+00 -0.00000000000E+00 -0.21083765976E+03  0.21083765976E+03  0.00000000000E+00 0.  1.
         25    2    1    2    0    0  0.30144861602E+01  0.19838645474E+02 -0.17503108390E+03  0.21607489240E+03  0.12509923985E+03 0.  0.
          5    1    3    3  502    0 -0.97196886201E+00  0.72960238273E+02 -0.95425846798E+02  0.12019860952E+03  0.41800000000E+01 0.  1.
         -5    1    3    3    0  502  0.39864550222E+01 -0.53121592798E+02 -0.79605237101E+02  0.95876282880E+02  0.41800000000E+01 0.  1.
        -11    1    1    2    0    0  0.18495621360E+02 -0.19654139940E+02 -0.17550986378E+01  0.27045398823E+02  0.00000000000E+00 0.  1.
         11    1    1    2    0    0 -0.21510107520E+02 -0.18450553435E+00  0.12991238796E+03  0.13168123371E+03  0.00000000000E+00 0. -1.
</event>
<event>
 7    1  0.2564986E-009  0.1080071E+03  0.7561462E-02  0.1264306E+00
         -1   -1    0    0    0  501 -0.00000000000E+00  0.00000000000E+00  0.49575393470E+02  0.49575393470E+02  0.00000000000E+00 0.  1.
          1   -1    0    0  501    0  0.00000000000E+00 -0.00000000000E+00 -0.29240304628E+03  0.29240304628E+03  0.00000000000E+00 0. -1.
         25    2    1    2    0    0  0.16595926342E+02  0.40789456949E+02 -0.17747448880E+03  0.22154880392E+03  0.12508986280E+03 0.  0.
          5    1    3    3  502    0  0.51061408070E+02 -0.25840171069E+02 -0.72549267403E+02  0.92497840167E+02  0.41800000000E+01 0. -1.
         -5    1    3    3    0  502 -0.34465481728E+02  0.66629628017E+02 -0.10492522139E+03  0.12905096375E+03  0.41800000000E+01 0. -1.
        -11    1    1    2    0    0 -0.31993691431E+02 -0.54295238878E+02 -0.13185007524E+02  0.64384887044E+02  0.00000000000E+00 0.  1.
         11    1    1    2    0    0  0.15397765089E+02  0.13505781929E+02 -0.52168156492E+02  0.56044748791E+02  0.00000000000E+00 0. -1.
</event>
<event>
 7    1  0.2564986E-009  0.1527299E+03  0.7561462E-02  0.1197158E+00
          1   -1    0    0  501    0  0.00000000000E+00  0.00000000000E+00  0.78423748691E+03  0.78423748691E+03  0.00000000000E+00 0. -1.
         -1   -1    0    0    0  501 -0.00000000000E+00 -0.00000000000E+00 -0.63329468815E+02  0.63329468815E+02  0.00000000000E+00 0.  1.
         25    2    1    2    0    0  0.70060314103E+02  0.92052684182E+02  0.76707119903E+02  0.18685407829E+03  0.12509324544E+03 0.  0.
          5    1    3    3  502    0  0.38617405719E+02 -0.20013626480E+02 -0.58606397635E+01  0.44087058961E+02  0.41800000000E+01 0.  1.
         -5    1    3    3    0  502  0.31442908384E+02  0.11206631066E+03  0.82567759667E+02  0.14276701933E+03  0.41800000000E+01 0.  1.
        -11    1    1    2    0    0 -0.36049659157E+02 -0.10335033900E+03  0.52265882735E+03  0.53399730365E+03  0.00000000000E+00 0. -1.
         11    1    1    2    0    0 -0.34010654946E+02  0.11297654823E+02  0.12154207084E+03  0.12671557378E+03  0.00000000000E+00 0.  1.
</event>
<event>
 7    1  0.2564986E-009  0.1013533E+03  0.7561462E-02  0.1277476E+00
          2   -1    0    0  501    0  0.00000000000E+00  0.00000000000E+00  0.10793525523E+03  0.10793525523E+03  0.00000000000E+00 0.  1.
         -2   -1    0    0    0  501 -0.00000000000E+00 -0.00000000000E+00 -0.11696680498E+03  0.11696680498E+03  0.00000000000E+00 0. -1.
         25    2    1    2    0    0  0.22352521124E+02 -0.18143767629E+02  0.12726005837E+02  0.12898738345E+03  0.12508781859E+03 0.  0.
          5    1    3    3  502    0 -0.25147405610E+02  0.31962423204E+02 -0.27216413289E+02  0.49114092258E+02  0.41800000000E+01 0. -1.
         -5    1    3    3    0  502  0.47499926735E+02 -0.50106190833E+02  0.39942419125E+02  0.79873291188E+02  0.41800000000E+01 0. -1.
        -11    1    1    2    0    0 -0.54479292773E+02 -0.23799898778E+01 -0.18784876321E+02  0.57676071913E+02  0.00000000000E+00 0.  1.
         11    1    1    2    0    0  0.32126771649E+02  0.20523757507E+02 -0.29726792612E+01  0.38238604849E+02  0.00000000000E+00 0. -1.
</event>
<event>
 7    1  0.2564986E-009  0.1377162E+03  0.7561462E-02  0.1216435E+00
         -2   -1    0    0    0  501 -0.00000000000E+00  0.00000000000E+00  0.42504504281E+02  0.42504504281E+02  0.00000000000E+00 0.  1.
          2   -1    0    0  501    0  0.00000000000E+00 -0.00000000000E+00 -0.65885324259E+03  0.65885324259E+03  0.00000000000E+00 0. -1.
         25    2    1    2    0    0  0.85555750616E+02 -0.92934873362E+02 -0.30295364849E+03  0.35126224921E+03  0.12509027714E+03 0.  0.
          5    1    3    3  502    0  0.83491770455E+02 -0.10008589429E+03 -0.15286457096E+03  0.20093061346E+03  0.41800000000E+01 0. -1.
         -5    1    3    3    0  502  0.20639801610E+01  0.71510209271E+01 -0.15008907753E+03  0.15033163575E+03  0.41800000000E+01 0. -1.
        -11    1    1    2    0    0 -0.10886986528E+02  0.48270778917E+02 -0.41383377555E+02  0.64507197356E+02  0.00000000000E+00 0.  1.
         11    1    1    2    0    0 -0.74668764088E+02  0.44664094445E+02 -0.27201171226E+03  0.28558830031E+03  0.00000000000E+00 0. -1.
</event>
<event>
 7    1  0.2564986E-009  0.1037452E+03  0.7561462E-02  0.1272612E+00
          2   -1    0    0  501    0  0.00000000000E+00  0.00000000000E+00  0.29880063688E+03  0.29880063688E+03  0.00000000000E+00 0. -1.
         -2   -1    0    0    0  501 -0.00000000000E+00 -0.00000000000E+00 -0.58623871537E+02  0.58623871537E+02  0.00000000000E+00 0.  1.
         25    2    1    2    0    0 -0.60543000946E+02 -0.39680822220E+02  0.15759764676E+03  0.21384233460E+03  0.12510596784E+03 0.  0.
          5    1    3    3  502    0  0.95277142772E+01 -0.30685759331E+02 -0.83281592463E+01  0.33454802368E+02  0.41800000000E+01 0. -1.
         -5    1    3    3    0  502 -0.70070715223E+02 -0.89950628888E+01  0.16592580600E+03  0.18038753224E+03  0.41800000000E+01 0. -1.
        -11    1    1    2    0    0  0.61945582336E+02 -0.26146216848E+01  0.14907258366E+02  0.63767685935E+02  0.00000000000E+00 0.  1.
         11    1    1    2    0    0 -0.14025813901E+01  0.42295443904E+02  0.67671860217E+02  0.79814487876E+02  0.00000000000E+00 0. -1.
</event>
<event>
 7    1  0.2564986E-009  0.1484286E+03  0.7561462E-02  0.1202417E+00
          2   -1    0    0  501    0  0.00000000000E+00  0.00000000000E+00  0.14899148307E+04  0.14899148307E+04  0.00000000000E+00 0. -1.
         -2   -1    0    0    0  501 -0.00000000000E+00 -0.00000000000E+00 -0.16193991677E+02  0.16193991677E+02  0.00000000000E+00 0.  1.
         25    2    1    2    0    0  0.10462296856E+03 -0.24194968149E+02  0.93255864446E+03  0.94701834778E+03  0.12508702430E+03 0.  0.
          5    1    3    3  502    0  0.56951586580E+02 -0.74104632068E+02  0.45888375553E+03  0.46832334257E+03  0.41800000000E+01 0. -1.
         -5    1    3    3    0  502  0.47671381983E+02  0.49909663919E+02  0.47367488893E+03  0.47869500521E+03  0.41800000000E+01 0. -1.
        -11    1    1    2    0    0 -0.87840917567E+02 -0.17183400305E+02  0.43151422287E+03  0.44069924051E+03  0.00000000000E+00 0. -1.
         11    1    1    2    0    0 -0.16782050996E+02  0.41378368454E+02  0.10964797169E+03  0.11839123408E+03  0.00000000000E+00 0.  1.
</event>
<event>
 7    1  0.2564986E-009  0.1390136E+03  0.7561462E-02  0.1214662E+00
         -2   -1    0    0    0  501 -0.00000000000E+00  0.00000000000E+00  0.32649293410E+02  0.32649293410E+02  0.00000000000E+00 0.  1.
          2   -1    0    0  501    0  0.00000000000E+00 -0.00000000000E+00 -0.96858972513E+03  0.96858972513E+03  0.00000000000E+00 0. -1.
         25    2    1    2    0    0 -0.58712667044E+02  0.10902607029E+03 -0.31022818782E+03  0.35668319603E+03  0.12509001774E+03 0.  0.
          5    1    3    3  502    0 -0.23016893362E+02  0.21692355490E+02 -0.23162598824E+03  0.23381275948E+03  0.41800000000E+01 0. -1.
         -5    1    3    3    0  502 -0.35695773681E+02  0.87333714798E+02 -0.78602199575E+02  0.12287043655E+03  0.41800000000E+01 0. -1.
        -11    1    1    2    0    0  0.33991550510E+02  0.55765141255E+01 -0.20232605306E+03  0.20523731328E+03  0.00000000000E+00 0. -1.
         11    1    1    2    0    0  0.24721116533E+02 -0.11460258441E+03 -0.42338619084E+03  0.43931850923E+03  0.00000000000E+00 0.  1.
</event>
<event>
 7    1  0.2564986E-009  0.1337293E+03  0.7561462E-02  0.1222025E+00
          1   -1    0    0  501    0  0.00000000000E+00  0.00000000000E+00  0.12665655729E+04  0.12665655729E+04  0.00000000000E+00 0. -1.
         -1   -1    0    0    0  501 -0.00000000000E+00 -0.00000000000E+00 -0.14724721668E+02  0.14724721668E+02  0.00000000000E+00 0.  1.
         25    2    1    2    0    0 -0.11109669143E+01  0.78827230497E+02  0.81057880339E+03  0.82395354675E+03  0.12508590718E+03 0.  0.
          5    1    3    3  502    0 -0.24564028363E+02  0.10749224087E+03  0.58478156502E+03  0.59510076838E+03  0.41800000000E+01 0. -1.
         -5    1    3    3    0  502  0.23453061448E+02 -0.28665010375E+02  0.22579723837E+03  0.22885277837E+03  0.41800000000E+01 0. -1.
        -11    1    1    2    0    0 -0.40530362518E+02 -0.14165807773E+02  0.17497025830E+03  0.18016096049E+03  0.00000000000E+00 0.  1.
         11    1    1    2    0    0  0.41641329432E+02 -0.64661422724E+02  0.26629178955E+03  0.27717578734E+03  0.00000000000E+00 0. -1.
</event>
<event>
 7    1  0.2819916E-009  0.1266119E+03  0.7561462E-02  0.1232571E+00
          2   -1    0    0  501    0  0.00000000000E+00  0.00000000000E+00  0.16521845405E+03  0.16521845405E+03  0.00000000000E+00 0.  1.
         -2   -1    0    0    0  501 -0.00000000000E+00 -0.00000000000E+00 -0.12590056494E+03  0.12590056494E+03  0.00000000000E+00 0. -1.
         25    2    1    2    0    0  0.58182813172E+02 -0.74616465431E+02  0.21787871944E+02  0.15835037898E+03  0.12508906626E+03 0.  0.
          5    1    3    3  502    0  0.95366449393E+02 -0.68492778195E+02  0.25595602624E+02  0.12024403357E+03  0.41800000000E+01 0.  1.
         -5    1    3    3    0  502 -0.37183636221E+02 -0.61236872358E+01 -0.38077306802E+01  0.38106345416E+02  0.41800000000E+01 0.  1.
        -11    1    1    2    0    0 -0.42008128854E+02  0.33807543057E+02  0.53542252041E+02  0.75989509874E+02  0.00000000000E+00 0.  1.
         11    1    1    2    0    0 -0.16174684318E+02  0.40808922374E+02 -0.36012234876E+02  0.56779130135E+02  0.00000000000E+00 0. -1.
</event>
<event>
 7    1  0.2564986E-009  0.1290883E+03  0.7561462E-02  0.1228815E+00
         -2   -1    0    0    0  501 -0.00000000000E+00  0.00000000000E+00  0.13397084941E+03  0.13397084941E+03  0.00000000000E+00 0.  1.
          2   -1    0    0  501    0  0.00000000000E+00 -0.00000000000E+00 -0.17923270602E+03  0.17923270602E+03  0.00000000000E+00 0. -1.
         25    2    1    2    0    0  0.49544255445E+02 -0.97152333079E+02 -0.37339105712E+02  0.17010195714E+03  0.12508900006E+03 0.  0.
          5    1    3    3  502    0  0.76083298672E+02 -0.57794976897E+02 -0.64402814274E+02  0.11530014127E+03  0.41800000000E+01 0. -1.
         -5    1    3    3    0  502 -0.26539043227E+02 -0.39357356182E+02  0.27063708562E+02  0.54801815866E+02  0.41800000000E+01 0. -1.
        -11    1    1    2    0    0 -0.17203465748E+02  0.71690602115E+02  0.36732762713E+02  0.82369882371E+02  0.00000000000E+00 0.  1.
         11    1    1    2    0    0 -0.32340789697E+02  0.25461730965E+02 -0.44655513610E+02  0.60731715913E+02  0.00000000000E+00 0. -1.
</event>
<event>
 7    1  0.2570923E-009  0.8347927E+02  0.7561462E-02  0.1319458E+00
          2   -1    0    0  501    0  0.00000000000E+00  0.00000000000E+00  0.27524407788E+03  0.27524407788E+03  0.00000000000E+00 0. -1.
         -2   -1    0    0    0  501 -0.00000000000E+00 -0.00000000000E+00 -0.72333259698E+02  0.72333259698E+02  0.00000000000E+00 0.  1.
         25    2    1    2    0    0 -0.38707234328E+02 -0.54349066277E+02  0.18351790139E+03  0.23189729461E+03  0.12508182971E+03 0.  0.
          5    1    3    3  502    0 -0.16618513750E+02  0.42945313566E+01 -0.15315519022E+02  0.23380665554E+02  0.41800000000E+01 0.  1.
         -5    1    3    3    0  502 -0.22088720578E+02 -0.58643597634E+02  0.19883342042E+03  0.20851662906E+03  0.41800000000E+01 0.  1.
        -11    1    1    2    0    0  0.46534866605E+02  0.18969987999E+02 -0.26814765191E+02  0.56959510943E+02  0.00000000000E+00 0. -1.
         11    1    1    2    0    0 -0.78276322767E+01  0.35379078278E+02  0.46207681981E+02  0.58720532022E+02  0.00000000000E+00 0.  1.
</event>
<event>
 7    1  0.2564986E-009  0.1036703E+03  0.7561462E-02  0.1272762E+00
         -2   -1    0    0    0  501 -0.00000000000E+00  0.00000000000E+00  0.22330442105E+02  0.22330442105E+02  0.00000000000E+00 0.  1.
          2   -1    0    0  501    0  0.00000000000E+00 -0.00000000000E+00 -0.57995984612E+03  0.57995984612E+03  0.00000000000E+00 0. -1.
         25    2    1    2    0    0 -0.39118807218E+02 -0.17441183452E+01 -0.31331580751E+03  0.33962382231E+03  0.12507686605E+03 0.  0.
          5    1    3    3  502    0  0.20996379259E+01  0.51485364624E+02 -0.69311751896E+02  0.86468159462E+02  0.41800000000E+01 0.  1.
         -5    1    3    3    0  502 -0.41218445144E+02 -0.53229482970E+02 -0.24400405561E+03  0.25315566285E+03  0.41800000000E+01 0.  1.
        -11    1    1    2    0    0 -0.56016684716E+01 -0.31798979774E+02 -0.43232120315E+02  0.53958966180E+02  0.00000000000E+00 0.  1.
         11    1    1    2    0    0  0.44720475690E+02  0.33543098119E+02 -0.20108147619E+03  0.20870749973E+03  0.00000000000E+00 0. -1.
</event>
<event>
 7    1  0.2564986E-009  0.1517635E+03  0.7561462E-02  0.1198323E+00
         -1   -1    0    0    0  501 -0.00000000000E+00  0.00000000000E+00  0.55059594278E+02  0.55059594278E+02  0.00000000000E+00 0.  1.
          1   -1    0    0  501    0  0.00000000000E+00 -0.00000000000E+00 -0.57653095230E+03  0.57653095230E+03  0.00000000000E+00 0. -1.
         25    2    1    2    0    0  0.11287096070E+03 -0.34917524045E+02 -0.13608897959E+03  0.21937751002E+03  0.12508874562E+03 0.  0.
          5    1    3    3  502    0  0.17420930779E+02  0.36453539189E+02 -0.75218881746E+02  0.85485097647E+02  0.41800000000E+01 0.  1.
         -5    1    3    3    0  502  0.95450029922E+02 -0.71371063234E+02 -0.60870097843E+02  0.13389241237E+03  0.41800000000E+01 0.  1.
        -11    1    1    2    0    0 -0.12271306546E+03  0.17924281025E+02 -0.30041941832E+03  0.32501015859E+03  0.00000000000E+00 0.  1.
         11    1    1    2    0    0  0.98421047592E+01  0.16993243020E+02 -0.84962960116E+02  0.87202877969E+02  0.00000000000E+00 0. -1.
</event>
<event>
 7    1  0.2564986E-009  0.1721854E+03  0.7561462E-02  0.1175588E+00
          4   -1    0    0  501    0  0.00000000000E+00  0.00000000000E+00  0.33110442716E+03  0.33110442716E+03  0.00000000000E+00 0. -1.
         -4   -1    0    0    0  501 -0.00000000000E+00 -0.00000000000E+00 -0.10044597034E+03  0.10044597034E+03  0.00000000000E+00 0.  1.
         25    2    1    2    0    0 -0.14102195715E+03 -0.28253012366E+02  0.13009382983E+03  0.23078028315E+03  0.12509879865E+03 0.  0.
          5    1    3    3  502    0 -0.72000255775E+02  0.48605497883E+02  0.53446920082E+02  0.10208122708E+03  0.41800000000E+01 0.  1.
         -5    1    3    3    0  502 -0.69021701378E+02 -0.76858510249E+02  0.76646909745E+02  0.12869905607E+03  0.41800000000E+01 0.  1.
        -11    1    1    2    0    0  0.12960400926E+03  0.68858350384E+01  0.40429072883E+02  0.13593794126E+03  0.00000000000E+00 0.  1.
         11    1    1    2    0    0  0.11417947896E+02  0.21367177328E+02  0.60135554106E+02  0.64832173099E+02  0.00000000000E+00 0. -1.
</event>
<event>
 7    1  0.2564986E-009  0.1485056E+03  0.7561462E-02  0.1202321E+00
          1   -1    0    0  501    0  0.00000000000E+00  0.00000000000E+00  0.52714884212E+03  0.52714884212E+03  0.00000000000E+00 0. -1.
         -1   -1    0    0    0  501 -0.00000000000E+00 -0.00000000000E+00 -0.58727473845E+02  0.58727473845E+02  0.00000000000E+00 0.  1.
         25    2    1    2    0    0  0.72105627777E+02  0.10411144184E+03  0.15256159740E+03  0.23443737269E+03  0.12508967516E+03 0.  0.
          5    1    3    3  502    0  0.15758190090E+02 -0.24629948843E+02  0.57737911012E+02  0.64854403883E+02  0.41800000000E+01 0.  1.
         -5    1    3    3    0  502  0.56347437687E+02  0.12874139068E+03  0.94823686391E+02  0.16958296881E+03  0.41800000000E+01 0.  1.
        -11    1    1    2    0    0 -0.35591192636E+02 -0.58175531154E+02  0.66451236382E+02  0.95220230177E+02  0.00000000000E+00 0.  1.
         11    1    1    2    0    0 -0.36514435141E+02 -0.45935910687E+02  0.24940853449E+03  0.25621871310E+03  0.00000000000E+00 0. -1.
</event>
<event>
 7    1  0.2564986E-009  0.1866246E+03  0.7561462E-02  0.1161541E+00
          1   -1    0    0  501    0  0.00000000000E+00  0.00000000000E+00  0.23795577492E+03  0.23795577492E+03  0.00000000000E+00 0. -1.
         -1   -1    0    0    0  501 -0.00000000000E+00 -0.00000000000E+00 -0.14781921069E+03  0.14781921069E+03  0.00000000000E+00 0.  1.
         25    2    1    2    0    0  0.15137159501E+03 -0.14765646312E+02  0.66397294055E+02  0.20781706478E+03  0.12509175699E+03 0.  0.
          5    1    3    3  502    0  0.13367376892E+03  0.39695272035E+02  0.46590504877E+02  0.14708004169E+03  0.41800000000E+01 0. -1.
         -5    1    3    3    0  502  0.17697826091E+02 -0.54460918347E+02  0.19806789178E+02  0.60737023084E+02  0.41800000000E+01 0. -1.
        -11    1    1    2    0    0 -0.27346154307E+02  0.41263320074E+02  0.49483485061E+01  0.49748968751E+02  0.00000000000E+00 0. -1.
         11    1    1    2    0    0 -0.12402544071E+03 -0.26497673762E+02  0.18790921668E+02  0.12820895208E+03  0.00000000000E+00 0.  1.
</event>
<event>
 7    1  0.2564986E-009  0.1425790E+03  0.7561462E-02  0.1209900E+00
          3   -1    0    0  501    0  0.00000000000E+00  0.00000000000E+00  0.79735356641E+03  0.79735356641E+03  0.00000000000E+00 0. -1.
         -3   -1    0    0    0  501 -0.00000000000E+00 -0.00000000000E+00 -0.46784898538E+02  0.46784898538E+02  0.00000000000E+00 0.  1.
         25    2    1    2    0    0  0.38037342374E+02  0.10917095263E+03  0.63510417632E+03  0.65754849154E+03  0.12509023794E+03 0.  0.
          5    1    3    3  502    0  0.82018441054E+01  0.11546242988E+03  0.59904772457E+03  0.61014300919E+03  0.41800000000E+01 0.  1.
         -5    1    3    3    0  502  0.29835498269E+02 -0.62914772518E+01  0.36056451753E+02  0.47405482341E+02  0.41800000000E+01 0.  1.
        -11    1    1    2    0    0  0.16444768338E+02 -0.68812927809E+02  0.28396786533E+02  0.76236650796E+02  0.00000000000E+00 0.  1.
         11    1    1    2    0    0 -0.54482110712E+02 -0.40358024818E+02  0.87067705017E+02  0.11035332261E+03  0.00000000000E+00 0. -1.
</event>
<event>
 7    1  0.2564986E-009  0.2135879E+03  0.7561462E-02  0.1138756E+00
         -1   -1    0    0    0  501 -0.00000000000E+00  0.00000000000E+00  0.14262900575E+03  0.14262900575E+03  0.00000000000E+00 0.  1.
          1   -1    0    0  501    0  0.00000000000E+00 -0.00000000000E+00 -0.40719467190E+03  0.40719467190E+03  0.00000000000E+00 0. -1.
         25    2    1    2    0    0 -0.11889554574E+03 -0.16166399919E+03 -0.50170840718E+02  0.24173739210E+03  0.12509378102E+03 0.  0.
          5    1    3    3  502    0  0.15327431758E+02 -0.13295266880E+02  0.20850109112E+02  0.29392069265E+02  0.41800000000E+01 0. -1.
         -5    1    3    3    0  502 -0.13422297750E+03 -0.14836873231E+03 -0.71020949830E+02  0.21234532284E+03  0.41800000000E+01 0. -1.
        -11    1    1    2    0    0  0.96835867840E+01  0.47018293437E+02 -0.10552568781E+03  0.11593171507E+03  0.00000000000E+00 0. -1.
         11    1    1    2    0    0  0.10921195896E+03  0.11464570576E+03 -0.10886913762E+03  0.19215457048E+03  0.00000000000E+00 0.  1.
</event>
<event>
 7    1  0.2564986E-009  0.1064571E+03  0.7561462E-02  0.1267275E+00
          1   -1    0    0  501    0  0.00000000000E+00  0.00000000000E+00  0.78468998376E+03  0.78468998376E+03  0.00000000000E+00 0. -1.
         -1   -1    0    0    0  501 -0.00000000000E+00 -0.00000000000E+00 -0.19161498961E+02  0.19161498961E+02  0.00000000000E+00 0.  1.
         25    2    1    2    0    0 -0.50571900936E+02  0.20968241650E+02  0.52500884987E+03  0.54247591288E+03  0.12509452144E+03 0.  0.
          5    1    3    3  502    0  0.35136687842E+02  0.84463133054E+01  0.28438705744E+03  0.28670437367E+03  0.41800000000E+01 0.  1.
         -5    1    3    3    0  502 -0.85708588778E+02  0.12521928344E+02  0.24062179242E+03  0.25577153921E+03  0.41800000000E+01 0.  1.
        -11    1    1    2    0    0  0.85722120808E+01 -0.41985444124E+02  0.53481854977E+02  0.68531519391E+02  0.00000000000E+00 0.  1.
         11    1    1    2    0    0  0.41999688855E+02  0.21017202474E+02  0.18703777995E+03  0.19284405045E+03  0.00000000000E+00 0. -1.
</event>
<event>
 7    1  0.2564986E-009  0.1271301E+03  0.7561462E-02  0.1231777E+00
         -1   -1    0    0    0  501 -0.00000000000E+00  0.00000000000E+00  0.24282216588E+02  0.24282216588E+02  0.00000000000E+00 0.  1.
          1   -1    0    0  501    0  0.00000000000E+00 -0.00000000000E+00 -0.79367767833E+03  0.79367767833E+03  0.00000000000E+00 0. -1.
         25    2    1    2    0    0  0.30514916605E+02 -0.73110841340E+02 -0.33523206027E+03  0.36647684638E+03  0.12509352278E+03 0.  0.
          5    1    3    3  502    0  0.55459991075E+02 -0.94074108489E+02 -0.29465555640E+03  0.31426918050E+03  0.41800000000E+01 0.  1.
         -5    1    3    3    0  502 -0.24945074470E+02  0.20963267149E+02 -0.40576503877E+02  0.52207665881E+02  0.41800000000E+01 0.  1.
        -11    1    1    2    0    0  0.20951615269E+02  0.52781962762E+02 -0.12351111809E+03  0.13594080354E+03  0.00000000000E+00 0.  1.
         11    1    1    2    0    0 -0.51466531874E+02  0.20328878578E+02 -0.31065228338E+03  0.31554224500E+03  0.00000000000E+00 0. -1.
</event>
<event>
 7    1  0.2564986E-009  0.9576353E+02  0.7561462E-02  0.1289466E+00
          2   -1    0    0  501    0  0.00000000000E+00  0.00000000000E+00  0.34133843215E+03  0.34133843215E+03  0.00000000000E+00 0. -1.
         -2   -1    0    0    0  501 -0.00000000000E+00 -0.00000000000E+00 -0.45100037771E+02  0.45100037771E+02  0.00000000000E+00 0.  1.
         25    2    1    2    0    0 -0.40932635739E+02  0.29155814117E+02  0.21763293479E+03  0.25600154030E+03  0.12508857728E+03 0.  0.
          5    1    3    3  502    0  0.16067752451E+02  0.42167409042E+02  0.19421112822E+02  0.49304310941E+02  0.41800000000E+01 0. -1.
         -5    1    3    3    0  502 -0.57000388191E+02 -0.13011594925E+02  0.19821182197E+03  0.20669722936E+03  0.41800000000E+01 0. -1.
        -11    1    1    2    0    0  0.60131991957E+02 -0.32109222665E+02  0.23657330621E+02  0.72156274356E+02  0.00000000000E+00 0.  1.
         11    1    1    2    0    0 -0.19199356218E+02  0.29534085477E+01  0.54948128959E+02  0.58280655259E+02  0.00000000000E+00 0. -1.
</event>
<event>
 7    1  0.2564986E-009  0.1128464E+03  0.7561462E-02  0.1255388E+00
         -2   -1    0    0    0  501 -0.00000000000E+00  0.00000000000E+00  0.29386536511E+02  0.29386536511E+02  0.00000000000E+00 0.  1.
          2   -1    0    0  501    0  0.00000000000E+00 -0.00000000000E+00 -0.62928102077E+03  0.62928102077E+03  0.00000000000E+00 0. -1.
         25    2    1    2    0    0 -0.19250774494E+02  0.16513382586E+02 -0.14512008290E+03  0.19326133570E+03  0.12508725472E+03 0.  0.
          5    1    3    3  502    0  0.65773529926E+00  0.69886162660E+02 -0.71357590219E+02  0.99969427471E+02  0.41800000000E+01 0. -1.
         -5    1    3    3    0  502 -0.19908509793E+02 -0.53372780074E+02 -0.73762492679E+02  0.93291908230E+02  0.41800000000E+01 0. -1.
        -11    1    1    2    0    0 -0.37277603300E+02 -0.19272565308E+02 -0.21320020628E+03  0.21729100174E+03  0.00000000000E+00 0. -1.
         11    1    1    2    0    0  0.56528377793E+02  0.27591827219E+01 -0.24157419508E+03  0.24811521984E+03  0.00000000000E+00 0.  1.
</event>
<event>
 7    1  0.2564986E-009  0.1245361E+03  0.7561462E-02  0.1235796E+00
          2   -1    0    0  501    0  0.00000000000E+00  0.00000000000E+00  0.59370932495E+02  0.59370932495E+02  0.00000000000E+00 0. -1.
         -2   -1    0    0    0  501 -0.00000000000E+00 -0.00000000000E+00 -0.35273068151E+03  0.35273068151E+03  0.00000000000E+00 0.  1.
         25    2    1    2    0    0  0.71451458344E+02  0.26143111690E+02 -0.23568361886E+03  0.27745487681E+03  0.12508264180E+03 0.  0.
          5    1    3    3  502    0 -0.19859679406E+02  0.32969180719E+02 -0.13873316801E+03  0.14403380870E+03  0.41800000000E+01 0. -1.
         -5    1    3    3    0  502  0.91311137750E+02 -0.68260690288E+01 -0.96950450851E+02  0.13342106811E+03  0.41800000000E+01 0. -1.
        -11    1    1    2    0    0 -0.73125819351E+02 -0.53928114480E+02 -0.30759838241E+02  0.95925985196E+02  0.00000000000E+00 0. -1.
         11    1    1    2    0    0  0.16743610069E+01  0.27785002790E+02 -0.26916291914E+02  0.38720751997E+02  0.00000000000E+00 0.  1.
</event>
<event>
 7    1  0.2564986E-009  0.8232199E+02  0.7561462E-02  0.1322588E+00
         -3   -1    0    0    0  501 -0.00000000000E+00  0.00000000000E+00  0.10589862882E+03  0.10589862882E+03  0.00000000000E+00 0.  1.
          3   -1    0    0  501    0  0.00000000000E+00 -0.00000000000E+00 -0.15476571742E+03  0.15476571742E+03  0.00000000000E+00 0. -1.
         25    2    1    2    0    0 -0.35460498913E+02 -0.37814225428E+02  0.16252491590E+02  0.13638204540E+03  0.12509418930E+03 0.  0.
          5    1    3    3  502    0 -0.58232182017E+02 -0.10239321656E+02  0.56842341282E+02  0.82124021412E+02  0.41800000000E+01 0. -1.
         -5    1    3    3    0  502  0.22771683104E+02 -0.27574903773E+02 -0.40589849692E+02  0.54258023991E+02  0.41800000000E+01 0. -1.
        -11    1    1    2    0    0 -0.64848263183E+01  0.24520954418E+02 -0.75010683553E+02  0.79182907405E+02  0.00000000000E+00 0. -1.
         11    1    1    2    0    0  0.41945325231E+02  0.13293271010E+02  0.98911033608E+01  0.45099393439E+02  0.00000000000E+00 0.  1.
</event>
<event>
 7    1  0.2564986E-009  0.1086387E+03  0.7561462E-02  0.1263112E+00
         -1   -1    0    0    0  501 -0.00000000000E+00  0.00000000000E+00  0.16630339128E+02  0.16630339128E+02  0.00000000000E+00 0.  1.
          1   -1    0    0  501    0  0.00000000000E+00 -0.00000000000E+00 -0.77252361546E+03  0.77252361546E+03  0.00000000000E+00 0. -1.
         25    2    1    2    0    0 -0.10581952726E+02 -0.30269435888E+02 -0.45207827035E+03  0.47016155707E+03  0.12509560645E+03 0.  0.
          5    1    3    3  502    0  0.24032933616E+02  0.37332196508E+02 -0.25583853330E+03  0.25969617309E+03  0.41800000000E+01 0. -1.
         -5    1    3    3    0  502 -0.34614886342E+02 -0.67601632396E+02 -0.19623973705E+03  0.21046538398E+03  0.41800000000E+01 0. -1.
        -11    1    1    2    0    0 -0.27663998193E+02 -0.19503791837E+02 -0.12397349724E+03  0.12851117737E+03  0.00000000000E+00 0. -1.
         11    1    1    2    0    0  0.38245950919E+02  0.49773227726E+02 -0.17984150875E+03  0.19048122015E+03  0.00000000000E+00 0.  1.
</event>
<event>
 7    1  0.2564986E-009  0.2069761E+03  0.7561462E-02  0.1143983E+00
         -2   -1    0    0    0  501 -0.00000000000E+00  0.00000000000E+00  0.75692059130E+02  0.75692059130E+02  0.00000000000E+00 0.  1.
          2   -1    0    0  501    0  0.00000000000E+00 -0.00000000000E+00 -0.86108924210E+03  0.86108924210E+03  0.00000000000E+00 0. -1.
         25    2    1    2    0    0  0.18770931793E+03 -0.38910551030E+02 -0.16759292611E+03  0.28369736771E+03  0.12509192038E+03 0.  0.
          5    1    3    3  502    0  0.15872380353E+03  0.28335508204E+01 -0.17001804666E+03  0.23264755191E+03  0.41800000000E+01 0.  1.
         -5    1    3    3    0  502  0.28985514401E+02 -0.41744101851E+02  0.24251205464E+01  0.51049815808E+02  0.41800000000E+01 0.  1.
        -11    1    1    2    0    0 -0.91276945498E+02  0.54740037653E+02 -0.23457883335E+03  0.25759499521E+03  0.00000000000E+00 0.  1.
         11    1    1    2    0    0 -0.96432372433E+02 -0.15829486623E+02 -0.38322542351E+03  0.39548893831E+03  0.00000000000E+00 0. -1.
</event>
<event>
 7    1  0.2564986E-009  0.2083388E+03  0.7561462E-02  0.1142888E+00
          2   -1    0    0  501    0  0.00000000000E+00  0.00000000000E+00  0.30695127280E+04  0.30695127280E+04  0.00000000000E+00 0. -1.
         -2   -1    0    0    0  501 -0.00000000000E+00 -0.00000000000E+00 -0.18856298608E+02  0.18856298608E+02  0.00000000000E+00 0.  1.
         25    2    1    2    0    0 -0.11630816166E+03  0.14036208978E+03  0.22865521972E+04  0.22972150927E+04  0.12508847583E+03 0.  0.
          5    1    3    3  502    0 -0.10950523379E+02  0.97129117765E+02  0.73486409218E+03  0.74134788450E+03  0.41800000000E+01 0.  1.
         -5    1    3    3    0  502 -0.10535763828E+03  0.43232972019E+02  0.15516881050E+04  0.15558672082E+04  0.41800000000E+01 0.  1.
        -11    1    1    2    0    0 -0.55690245559E+01 -0.56891594241E+02  0.19697894195E+03  0.20510575590E+03  0.00000000000E+00 0. -1.
         11    1    1    2    0    0  0.12187718622E+03 -0.83470495543E+02  0.56712529023E+03  0.58604817803E+03  0.00000000000E+00 0.  1.
</event>
<event>
 7    1  0.2564986E-009  0.2859350E+03  0.7561462E-02  0.1092491E+00
          2   -1    0    0  501    0  0.00000000000E+00  0.00000000000E+00  0.39407863089E+03  0.39407863089E+03  0.00000000000E+00 0. -1.
         -2   -1    0    0    0  501 -0.00000000000E+00 -0.00000000000E+00 -0.25818989621E+03  0.25818989621E+03  0.00000000000E+00 0.  1.
         25    2    1    2    0    0  0.76522115037E+02 -0.25562646012E+03 -0.70910124521E+02  0.30311571645E+03  0.12510144122E+03 0.  0.
          5    1    3    3  502    0 -0.11412337901E+02 -0.17382201508E+03 -0.48491622257E+02  0.18086802982E+03  0.41800000000E+01 0. -1.
         -5    1    3    3    0  502  0.87934452938E+02 -0.81804445044E+02 -0.22418502264E+02  0.12224768663E+03  0.41800000000E+01 0. -1.
        -11    1    1    2    0    0 -0.37601127618E+02  0.28948018500E+02  0.59194936417E+02  0.75867470438E+02  0.00000000000E+00 0.  1.
         11    1    1    2    0    0 -0.38920987419E+02  0.22667844162E+03  0.14760392278E+03  0.27328534022E+03  0.00000000000E+00 0. -1.
</event>
<event>
 7    1  0.2564986E-009  0.1263836E+03  0.7561462E-02  0.1232923E+00
          4   -1    0    0  501    0  0.00000000000E+00  0.00000000000E+00  0.46574277545E+02  0.46574277545E+02  0.00000000000E+00 0. -1.
         -4   -1    0    0    0  501 -0.00000000000E+00 -0.00000000000E+00 -0.41260194398E+03  0.41260194398E+03  0.00000000000E+00 0.  1.
         25    2    1    2    0    0 -0.63024019858E+02  0.49905686221E+02 -0.26378262340E+03  0.30280588597E+03  0.12509007784E+03 0.  0.
          5    1    3    3  502    0  0.11468537406E+02 -0.31367120001E+02 -0.33649587701E+02  0.47594019790E+02  0.41800000000E+01 0.  1.
         -5    1    3    3    0  502 -0.74492557264E+02  0.81272806221E+02 -0.23013303570E+03  0.25521186618E+03  0.41800000000E+01 0.  1.
        -11    1    1    2    0    0  0.23224221717E+02 -0.62791425353E+02 -0.91141580768E+02  0.11308808654E+03  0.00000000000E+00 0.  1.
         11    1    1    2    0    0  0.39799798141E+02  0.12885739133E+02 -0.11103462259E+02  0.43282249008E+02  0.00000000000E+00 0. -1.
</event>
<event>
 7    1  0.2564986E-009  0.1091658E+03  0.7561462E-02  0.1262123E+00
         -2   -1    0    0    0  501 -0.00000000000E+00  0.00000000000E+00  0.44489464677E+02  0.44489464677E+02  0.00000000000E+00 0.  1.
          2   -1    0    0  501    0  0.00000000000E+00 -0.00000000000E+00 -0.46554271636E+03  0.46554271636E+03  0.00000000000E+00 0. -1.
         25    2    1    2    0    0  0.44351480508E+02  0.32019327736E+01 -0.37790335661E+03  0.40054505181E+03  0.12509230752E+03 0.  0.
          5    1    3    3  502    0  0.65750507373E+02 -0.41588288853E+02 -0.17403411072E+03  0.19067789353E+03  0.41800000000E+01 0. -1.
         -5    1    3    3    0  502 -0.21399026864E+02  0.44790221626E+02 -0.20386924589E+03  0.20986715828E+03  0.41800000000E+01 0. -1.
        -11    1    1    2    0    0 -0.44123807415E+02  0.32563503903E+02 -0.18736669149E+01  0.54870782708E+02  0.00000000000E+00 0.  1.
         11    1    1    2    0    0 -0.22767309347E+00 -0.35765436677E+02 -0.41276228161E+02  0.54616346517E+02  0.00000000000E+00 0. -1.
</event>
<event>
 7    1  0.2564986E-009  0.1300317E+03  0.7561462E-02  0.1227409E+00
         -1   -1    0    0    0  501 -0.00000000000E+00  0.00000000000E+00  0.49385111713E+02  0.49385111713E+02  0.00000000000E+00 0.  1.
          1   -1    0    0  501    0  0.00000000000E+00 -0.00000000000E+00 -0.62544659492E+03  0.62544659492E+03  0.00000000000E+00 0. -1.
         25    2    1    2    0    0 -0.61466994255E+02 -0.75200082454E+02 -0.11737257861E+03  0.19712339563E+03  0.12509223441E+03 0.  0.
          5    1    3    3  502    0 -0.76836744668E+02 -0.36842324489E+02 -0.14970242412E+02  0.86618836074E+02  0.41800000000E+01 0. -1.
         -5    1    3    3    0  502  0.15369750413E+02 -0.38357757965E+02 -0.10240233619E+03  0.11050455955E+03  0.41800000000E+01 0. -1.
        -11    1    1    2    0    0 -0.23712886521E+02  0.24459698576E+02 -0.10524158241E+03  0.11061812017E+03  0.00000000000E+00 0. -1.
         11    1    1    2    0    0  0.85179880776E+02  0.50740383878E+02 -0.35344732220E+03  0.36709019084E+03  0.00000000000E+00 0.  1.
</event>
<event>
 7    1  0.2564986E-009  0.9577530E+02  0.7561462E-02  0.1289439E+00
          2   -1    0    0  501    0  0.00000000000E+00  0.00000000000E+00  0.55877506797E+02  0.55877506797E+02  0.00000000000E+00 0. -1.
         -2   -1    0    0    0  501 -0.00000000000E+00 -0.00000000000E+00 -0.23147903800E+03  0.23147903800E+03  0.00000000000E+00 0.  1.
         25    2    1    2    0    0 -0.23731483377E+02  0.21866268771E+01 -0.90779119527E+02  0.15638752396E+03  0.12509294332E+03 0.  0.
          5    1    3    3  502    0 -0.99758611278E+01  0.47744467587E+02  0.51468318510E+01  0.49224122831E+02  0.41800000000E+01 0.  1.
         -5    1    3    3    0  502 -0.13755622249E+02 -0.45557840709E+02 -0.95925951378E+02  0.10716340113E+03  0.41800000000E+01 0.  1.
        -11    1    1    2    0    0  0.58309604696E+02 -0.10531451080E+02 -0.71793398578E+02  0.93087128762E+02  0.00000000000E+00 0. -1.
         11    1    1    2    0    0 -0.34578121319E+02  0.83448242032E+01 -0.13029013095E+02  0.37881892075E+02  0.00000000000E+00 0.  1.
</event>
<event>
 7    1  0.2564986E-009  0.1065091E+03  0.7561462E-02  0.1267175E+00
         -3   -1    0    0    0  501 -0.00000000000E+00  0.00000000000E+00  0.34321858456E+03  0.34321858456E+03  0.00000000000E+00 0.  1.
          3   -1    0    0  501    0  0.00000000000E+00 -0.00000000000E+00 -0.47227765906E+02  0.47227765906E+02  0.00000000000E+00 0. -1.
         25    2    1    2    0    0 -0.22477647752E+02 -0.31602918757E+02  0.25402924089E+03  0.28580203903E+03  0.12509181094E+03 0.  0.
          5    1    3    3  502    0  0.46392290659E+02 -0.33931973949E+02  0.15249632826E+03  0.16302216421E+03  0.41800000000E+01 0. -1.
         -5    1    3    3    0  502 -0.68869938411E+02  0.23290551919E+01  0.10153291263E+03  0.12277987482E+03  0.41800000000E+01 0. -1.
        -11    1    1    2    0    0 -0.16317665909E+02  0.42939504177E+02  0.44750913725E+02  0.64130425844E+02  0.00000000000E+00 0.  1.
         11    1    1    2    0    0  0.38795313661E+02 -0.11336585421E+02 -0.27893359587E+01  0.40513885596E+02  0.00000000000E+00 0. -1.
</event>
<event>
 7    1  0.2564986E-009  0.1791658E+03  0.7561462E-02  0.1168613E+00
         -2   -1    0    0    0  501 -0.00000000000E+00  0.00000000000E+00  0.10364382586E+03  0.10364382586E+03  0.00000000000E+00 0. -1.
          2   -1    0    0  501    0  0.00000000000E+00 -0.00000000000E+00 -0.40198958616E+03  0.40198958616E+03  0.00000000000E+00 0.  1.
         25    2    1    2    0    0  0.76539349203E+02  0.14212339760E+03 -0.89435741943E+02  0.22294599261E+03  0.12509528992E+03 0.  0.
          5    1    3    3  502    0  0.28954244485E+02  0.74304393992E-01 -0.64761585332E+02  0.71062571932E+02  0.41800000000E+01 0.  1.
         -5    1    3    3    0  502  0.47585104718E+02  0.14204909320E+03 -0.24674156611E+02  0.15188342067E+03  0.41800000000E+01 0.  1.
        -11    1    1    2    0    0 -0.22766649266E+01  0.98255261767E+01 -0.48677091402E+02  0.49710998735E+02  0.00000000000E+00 0.  1.
         11    1    1    2    0    0 -0.74262684277E+02 -0.15194892378E+03 -0.16023292695E+03  0.23297642068E+03  0.00000000000E+00 0. -1.
</event>
<event>
 7    1  0.2564986E-009  0.9551286E+02  0.7561462E-02  0.1290025E+00
          2   -1    0    0  501    0  0.00000000000E+00  0.00000000000E+00  0.29575708226E+02  0.29575708226E+02  0.00000000000E+00 0. -1.
         -2   -1    0    0    0  501 -0.00000000000E+00 -0.00000000000E+00 -0.44100295202E+03  0.44100295202E+03  0.00000000000E+00 0.  1.
         25    2    1    2    0    0 -0.19040846049E+02 -0.10021125699E+02 -0.16922854753E+03  0.21153483594E+03  0.12508280751E+03 0.  0.
          5    1    3    3  502    0  0.15079411522E+02 -0.57182825633E+02 -0.45497996745E+02  0.74731548271E+02  0.41800000000E+01 0.  1.
         -5    1    3    3    0  502 -0.34120257570E+02  0.47161699934E+02 -0.12373055079E+03  0.13680328766E+03  0.41800000000E+01 0.  1.
        -11    1    1    2    0    0 -0.17772684549E+02 -0.19359216153E+02 -0.23257308020E+02  0.35093445861E+02  0.00000000000E+00 0. -1.
         11    1    1    2    0    0  0.36813530597E+02  0.29380341852E+02 -0.21894138824E+03  0.22395037845E+03  0.00000000000E+00 0.  1.
</event>
<event>
 7    1  0.2564986E-009  0.1015341E+03  0.7561462E-02  0.1277103E+00
          1   -1    0    0  501    0  0.00000000000E+00  0.00000000000E+00  0.23774688647E+03  0.23774688647E+03  0.00000000000E+00 0. -1.
         -1   -1    0    0    0  501 -0.00000000000E+00 -0.00000000000E+00 -0.64547798151E+02  0.64547798151E+02  0.00000000000E+00 0.  1.
         25    2    1    2    0    0 -0.18702041021E+02  0.57384301524E+02  0.99428836003E+02  0.17081131654E+03  0.12509071920E+03 0.  0.
          5    1    3    3  502    0 -0.58967745343E+02  0.67400587845E+02  0.91988523428E+02  0.12844997110E+03  0.41800000000E+01 0.  1.
         -5    1    3    3    0  502  0.40265704323E+02 -0.10016286321E+02  0.74403125748E+01  0.42361345440E+02  0.41800000000E+01 0.  1.
        -11    1    1    2    0    0  0.30120662201E+02 -0.49112523933E+02  0.12726592603E+01  0.57627371622E+02  0.00000000000E+00 0.  1.
         11    1    1    2    0    0 -0.11418621180E+02 -0.82717775910E+01  0.72497593054E+02  0.73855996458E+02  0.00000000000E+00 0. -1.
</event>
<event>
 7    1  0.2564986E-009  0.1528846E+03  0.7561462E-02  0.1196973E+00
          1   -1    0    0  501    0  0.00000000000E+00  0.00000000000E+00  0.38107210817E+03  0.38107210817E+03  0.00000000000E+00 0. -1.
         -1   -1    0    0    0  501 -0.00000000000E+00 -0.00000000000E+00 -0.12286672241E+03  0.12286672241E+03  0.00000000000E+00 0.  1.
         25    2    1    2    0    0 -0.14706221849E+03 -0.39921144457E+02  0.26536590844E+03  0.33058716391E+03  0.12509122152E+03 0.  0.
          5    1    3    3  502    0 -0.57304949108E+02 -0.23195164951E+02  0.14564799076E+02  0.63651226552E+02  0.41800000000E+01 0.  1.
         -5    1    3    3    0  502 -0.89757269378E+02 -0.16725979507E+02  0.25080110937E+03  0.26693593736E+03  0.41800000000E+01 0.  1.
        -11    1    1    2    0    0  0.88261907211E+02  0.25342201839E+02 -0.44651439907E+02  0.10210848419E+03  0.00000000000E+00 0.  1.
         11    1    1    2    0    0  0.58800311276E+02  0.14578942618E+02  0.37490917225E+02  0.71243182469E+02  0.00000000000E+00 0. -1.
</event>
<event>
 7    1  0.2564986E-009  0.1275766E+03  0.7561462E-02  0.1231097E+00
          2   -1    0    0  501    0  0.00000000000E+00  0.00000000000E+00  0.19553946717E+04  0.19553946717E+04  0.00000000000E+00 0. -1.
         -2   -1    0    0    0  501 -0.00000000000E+00 -0.00000000000E+00 -0.90315339734E+01  0.90315339734E+01  0.00000000000E+00 0.  1.
         25    2    1    2    0    0 -0.66564193116E+02 -0.79327554272E+01  0.13396226892E+04  0.13471201528E+04  0.12510010481E+03 0.  0.
          5    1    3    3  502    0  0.37388861040E+02 -0.28656736140E+01  0.37007988351E+03  0.37199829515E+03  0.41800000000E+01 0.  1.
         -5    1    3    3    0  502 -0.10395305416E+03 -0.50670818132E+01  0.96954280573E+03  0.97512185768E+03  0.41800000000E+01 0.  1.
        -11    1    1    2    0    0  0.32632834496E+02  0.49695757895E+02  0.34607457290E+03  0.35114410183E+03  0.00000000000E+00 0.  1.
         11    1    1    2    0    0  0.33931358620E+02 -0.41763002467E+02  0.26066587559E+03  0.26616195102E+03  0.00000000000E+00 0. -1.
</event>
<event>
 7    1  0.2564986E-009  0.1190152E+03  0.7561462E-02  0.1244731E+00
          2   -1    0    0  501    0  0.00000000000E+00  0.00000000000E+00  0.11458491520E+04  0.11458491520E+04  0.00000000000E+00 0. -1.
         -2   -1    0    0    0  501 -0.00000000000E+00 -0.00000000000E+00 -0.14922409837E+02  0.14922409837E+02  0.00000000000E+00 0.  1.
         25    2    1    2    0    0  0.62880833946E+02 -0.10603024727E+01  0.77288234450E+03  0.78546219309E+03  0.12509442361E+03 0.  0.
          5    1    3    3  502    0  0.48843268282E+02 -0.53040038593E+02  0.26329596174E+03  0.27302224528E+03  0.41800000000E+01 0. -1.
         -5    1    3    3    0  502  0.14037565664E+02  0.51979736121E+02  0.50958638276E+03  0.51243994781E+03  0.41800000000E+01 0. -1.
        -11    1    1    2    0    0 -0.52537084177E+02  0.43444992946E+02  0.23851508871E+03  0.24806664461E+03  0.00000000000E+00 0. -1.
         11    1    1    2    0    0 -0.10343749769E+02 -0.42384690473E+02  0.11952930892E+03  0.12724272410E+03  0.00000000000E+00 0.  1.
</event>
<event>
 7    1  0.2564986E-009  0.2302849E+03  0.7561462E-02  0.1126439E+00
          3   -1    0    0  501    0  0.00000000000E+00  0.00000000000E+00  0.63981934422E+02  0.63981934422E+02  0.00000000000E+00 0. -1.
         -3   -1    0    0    0  501 -0.00000000000E+00 -0.00000000000E+00 -0.13245112012E+04  0.13245112012E+04  0.00000000000E+00 0.  1.
         25    2    1    2    0    0  0.22641015641E+03 -0.27833198981E+02 -0.98694930916E+03  0.10206626197E+04  0.12508796270E+03 0.  0.
          5    1    3    3  502    0  0.31096807040E+02 -0.13101371612E+02 -0.40899867135E+03  0.41040960383E+03  0.41800000000E+01 0.  1.
         -5    1    3    3    0  502  0.19531334937E+03 -0.14731827368E+02 -0.57795063781E+03  0.61025301582E+03  0.41800000000E+01 0.  1.
        -11    1    1    2    0    0 -0.20104351094E+03  0.35503007878E+02 -0.18547364055E+03  0.27582499560E+03  0.00000000000E+00 0. -1.
         11    1    1    2    0    0 -0.25366645465E+02 -0.76698088968E+01 -0.88106317037E+02  0.92005520337E+02  0.00000000000E+00 0.  1.
</event>
<event>
 7    1  0.2564986E-009  0.1438893E+03  0.7561462E-02  0.1208189E+00
          2   -1    0    0  501    0  0.00000000000E+00  0.00000000000E+00  0.18856927819E+03  0.18856927819E+03  0.00000000000E+00 0. -1.
         -2   -1    0    0    0  501 -0.00000000000E+00 -0.00000000000E+00 -0.16503399077E+03  0.16503399077E+03  0.00000000000E+00 0.  1.
         25    2    1    2    0    0  0.78423984587E+02 -0.11337165504E+03  0.20010856153E+02  0.18722171692E+03  0.12509229951E+03 0.  0.
          5    1    3    3  502    0  0.44022626186E+02 -0.64907457086E+02 -0.51670922919E+02  0.94012373000E+02  0.41800000000E+01 0.  1.
         -5    1    3    3    0  502  0.34401358401E+02 -0.48464197949E+02  0.71681779072E+02  0.93209343918E+02  0.41800000000E+01 0.  1.
        -11    1    1    2    0    0 -0.69618177446E+02  0.11993562623E+03  0.26251656776E+02  0.14113962786E+03  0.00000000000E+00 0. -1.
         11    1    1    2    0    0 -0.88058071406E+01 -0.65639711903E+01 -0.22727225504E+02  0.25241924180E+02  0.00000000000E+00 0.  1.
</event>
<event>
 7    1  0.2564986E-009  0.1258003E+03  0.7561462E-02  0.1233824E+00
         -1   -1    0    0    0  501 -0.00000000000E+00  0.00000000000E+00  0.14201239699E+03  0.14201239699E+03  0.00000000000E+00 0.  1.
          1   -1    0    0  501    0  0.00000000000E+00 -0.00000000000E+00 -0.15131089584E+03  0.15131089584E+03  0.00000000000E+00 0. -1.
         25    2    1    2    0    0  0.74683186699E+02  0.62804140936E+02  0.69307192075E+00  0.15865057973E+03  0.12509031779E+03 0.  0.
          5    1    3    3  502    0  0.62054766275E+02  0.97161473201E+02  0.19955707401E+02  0.11707625101E+03  0.41800000000E+01 0.  1.
         -5    1    3    3    0  502  0.12628420424E+02 -0.34357332265E+02 -0.19262635480E+02  0.41574328719E+02  0.41800000000E+01 0.  1.
        -11    1    1    2    0    0 -0.36687302922E+02 -0.18690517137E+02 -0.49444513531E+02  0.64343247857E+02  0.00000000000E+00 0. -1.
         11    1    1    2    0    0 -0.37995883777E+02 -0.44113623799E+02  0.39452942767E+02  0.70329465245E+02  0.00000000000E+00 0.  1.
</event>
<event>
 7    1  0.2564986E-009  0.1046408E+03  0.7561462E-02  0.1270829E+00
          2   -1    0    0  501    0  0.00000000000E+00  0.00000000000E+00  0.56977610522E+03  0.56977610522E+03  0.00000000000E+00 0. -1.
         -2   -1    0    0    0  501 -0.00000000000E+00 -0.00000000000E+00 -0.59013218268E+02  0.59013218268E+02  0.00000000000E+00 0.  1.
         25    2    1    2    0    0  0.59295872131E+02 -0.17150449580E+02  0.49901339284E+03  0.51814273331E+03  0.12508951787E+03 0.  0.
          5    1    3    3  502    0 -0.25689317296E+02 -0.36770184861E+02  0.99884933783E+02  0.10957399288E+03  0.41800000000E+01 0.  1.
         -5    1    3    3    0  502  0.84985189426E+02  0.19619735281E+02  0.39912845905E+03  0.40856874043E+03  0.41800000000E+01 0.  1.
        -11    1    1    2    0    0 -0.11180635373E+01 -0.11852432120E+02 -0.30754266685E+02  0.32978100802E+02  0.00000000000E+00 0.  1.
         11    1    1    2    0    0 -0.58177808593E+02  0.29002881699E+02  0.42503760801E+02  0.77668489375E+02  0.00000000000E+00 0. -1.
</event>
<event>
 7    1  0.2564986E-009  0.2556934E+03  0.7561462E-02  0.1109759E+00
         -2   -1    0    0    0  501 -0.00000000000E+00  0.00000000000E+00  0.48614816018E+03  0.48614816018E+03  0.00000000000E+00 0.  1.
          2   -1    0    0  501    0  0.00000000000E+00 -0.00000000000E+00 -0.14580394206E+03  0.14580394206E+03  0.00000000000E+00 0. -1.
         25    2    1    2    0    0 -0.79453687978E+02  0.22394272115E+03  0.23424486794E+03  0.35634394382E+03  0.12508843772E+03 0.  0.
          5    1    3    3  502    0  0.21665806243E+02  0.11310682914E+03  0.12931193567E+03  0.17320973144E+03  0.41800000000E+01 0. -1.
         -5    1    3    3    0  502 -0.10111949422E+03  0.11083589201E+03  0.10493293227E+03  0.18313421238E+03  0.41800000000E+01 0. -1.
        -11    1    1    2    0    0  0.70095972205E+02 -0.10204580393E+03  0.88297563156E+02  0.15206331273E+03  0.00000000000E+00 0.  1.
         11    1    1    2    0    0  0.93577157738E+01 -0.12189691723E+03  0.17801787019E+02  0.12354484569E+03  0.00000000000E+00 0. -1.
</event>
<event>
 7    1  0.2564986E-009  0.6824007E+02  0.7561462E-02  0.1366182E+00
          1   -1    0    0  501    0  0.00000000000E+00  0.00000000000E+00  0.62544953143E+02  0.62544953143E+02  0.00000000000E+00 0. -1.
         -1   -1    0    0    0  501 -0.00000000000E+00 -0.00000000000E+00 -0.22914724754E+03  0.22914724754E+03  0.00000000000E+00 0.  1.
         25    2    1    2    0    0  0.65867013532E+01 -0.23169913851E+02 -0.39599623332E+02  0.13340139801E+03  0.12509026053E+03 0.  0.
          5    1    3    3  502    0 -0.12046353502E+02  0.21087065346E+02  0.36069890580E+02  0.43683960032E+02  0.41800000000E+01 0. -1.
         -5    1    3    3    0  502  0.18633054855E+02 -0.44256979198E+02 -0.75669513912E+02  0.89717437974E+02  0.41800000000E+01 0. -1.
        -11    1    1    2    0    0  0.11689799533E+02  0.38215744315E+02 -0.12849961120E+03  0.13457059339E+03  0.00000000000E+00 0.  1.
         11    1    1    2    0    0 -0.18276500886E+02 -0.15045830464E+02  0.14969401329E+01  0.23720209290E+02  0.00000000000E+00 0. -1.
</event>
<event>
 7    1  0.2564986E-009  0.9111853E+02  0.7561462E-02  0.1300165E+00
         -1   -1    0    0    0  501 -0.00000000000E+00  0.00000000000E+00  0.61322282100E+02  0.61322282100E+02  0.00000000000E+00 0.  1.
          1   -1    0    0  501    0  0.00000000000E+00 -0.00000000000E+00 -0.22857596922E+03  0.22857596922E+03  0.00000000000E+00 0. -1.
         25    2    1    2    0    0 -0.37904973817E+02  0.42518127668E+01 -0.12953324124E+03  0.18407335884E+03  0.12509706590E+03 0.  0.
          5    1    3    3  502    0 -0.63937424601E+02  0.16380711655E+02 -0.17596582651E+02  0.68435620110E+02  0.41800000000E+01 0. -1.
         -5    1    3    3    0  502  0.26032450784E+02 -0.12128898888E+02 -0.11193665859E+03  0.11563773873E+03  0.41800000000E+01 0. -1.
        -11    1    1    2    0    0 -0.12062477309E+02 -0.28935206473E+02 -0.39051157358E+02  0.50077364382E+02  0.00000000000E+00 0.  1.
         11    1    1    2    0    0  0.49967451126E+02  0.24683393706E+02  0.13307114732E+01  0.55747528105E+02  0.00000000000E+00 0. -1.
</event>
<event>
 7    1  0.2564986E-009  0.1360269E+03  0.7561462E-02  0.1218777E+00
          4   -1    0    0  501    0  0.00000000000E+00  0.00000000000E+00  0.13193658882E+03  0.13193658882E+03  0.00000000000E+00 0. -1.
         -4   -1    0    0    0  501 -0.00000000000E+00 -0.00000000000E+00 -0.15548482578E+03  0.15548482578E+03  0.00000000000E+00 0.  1.
         25    2    1    2    0    0 -0.85431232241E+02  0.38337969804E+02 -0.19988835418E+02  0.15752955781E+03  0.12509081769E+03 0.  0.
          5    1    3    3  502    0 -0.13921763276E+02  0.66402487548E+02  0.19957290809E+02  0.70843995524E+02  0.41800000000E+01 0.  1.
         -5    1    3    3    0  502 -0.71509468965E+02 -0.28064517744E+02 -0.39946126227E+02  0.86685562284E+02  0.41800000000E+01 0.  1.
        -11    1    1    2    0    0  0.14887797814E+02  0.27102993127E+02  0.10478881151E+02  0.32650049163E+02  0.00000000000E+00 0. -1.
         11    1    1    2    0    0  0.70543434427E+02 -0.65440962931E+02 -0.14038282688E+02  0.97241807629E+02  0.00000000000E+00 0.  1.
</event>
<event>
 7    1  0.2564986E-009  0.7089756E+02  0.7561462E-02  0.1357067E+00
          1   -1    0    0  501    0  0.00000000000E+00  0.00000000000E+00  0.40758666232E+03  0.40758666232E+03  0.00000000000E+00 0. -1.
         -1   -1    0    0    0  501 -0.00000000000E+00 -0.00000000000E+00 -0.36879404643E+02  0.36879404643E+02  0.00000000000E+00 0.  1.
         25    2    1    2    0    0  0.29634901814E+02  0.46665266483E+02  0.18374970315E+03  0.22905766757E+03  0.12509031602E+03 0.  0.
          5    1    3    3  502    0  0.67135798274E+01  0.27399732593E+01 -0.18755103615E+02  0.20537914188E+02  0.41800000000E+01 0. -1.
         -5    1    3    3    0  502  0.22921321986E+02  0.43925293224E+02  0.20250480676E+03  0.20851975338E+03  0.41800000000E+01 0. -1.
        -11    1    1    2    0    0  0.27627731014E+01 -0.50948788865E+02  0.17211006508E+03  0.17951402871E+03  0.00000000000E+00 0. -1.
         11    1    1    2    0    0 -0.32397674915E+02  0.42835223821E+01  0.14847489446E+02  0.35894370683E+02  0.00000000000E+00 0.  1.
</event>
<event>
 7    1  0.2564986E-009  0.9386073E+02  0.7561462E-02  0.1293763E+00
          1   -1    0    0  501    0  0.00000000000E+00  0.00000000000E+00  0.14147540461E+03  0.14147540461E+03  0.00000000000E+00 0. -1.
         -1   -1    0    0    0  501 -0.00000000000E+00 -0.00000000000E+00 -0.13990251898E+03  0.13990251898E+03  0.00000000000E+00 0.  1.
         25    2    1    2    0    0  0.60209939254E+02  0.53121251001E+02  0.36574756472E+02  0.15306555272E+03  0.12507696241E+03 0.  0.
          5    1    3    3  502    0 -0.15261341686E+02  0.14306934091E+02 -0.35651392120E+02  0.41546252216E+02  0.41800000000E+01 0.  1.
         -5    1    3    3    0  502  0.75471280940E+02  0.38814316910E+02  0.72226148592E+02  0.11151930050E+03  0.41800000000E+01 0.  1.
        -11    1    1    2    0    0 -0.50315405356E+02 -0.36815864572E+02  0.23616470802E+02  0.66669225235E+02  0.00000000000E+00 0. -1.
         11    1    1    2    0    0 -0.98945338984E+01 -0.16305386429E+02 -0.58618341645E+02  0.61643145644E+02  0.00000000000E+00 0.  1.
</event>
<event>
 7    1  0.2564986E-009  0.6810359E+02  0.7561462E-02  0.1366663E+00
         -2   -1    0    0    0  501 -0.00000000000E+00  0.00000000000E+00  0.36634855101E+02  0.36634855101E+02  0.00000000000E+00 0.  1.
          2   -1    0    0  501    0  0.00000000000E+00 -0.00000000000E+00 -0.35973489172E+03  0.35973489172E+03  0.00000000000E+00 0. -1.
         25    2    1    2    0    0 -0.13281149436E+02  0.29646186477E+02 -0.17944872080E+03  0.22114541532E+03  0.12509262975E+03 0.  0.
          5    1    3    3  502    0 -0.25753360923E+01  0.27448589874E+02 -0.19759548043E+03  0.19955326038E+03  0.41800000000E+01 0. -1.
         -5    1    3    3    0  502 -0.10705813344E+02  0.21975966026E+01  0.18146759625E+02  0.21592154942E+02  0.41800000000E+01 0. -1.
        -11    1    1    2    0    0 -0.26881084493E+02  0.19458448494E+02 -0.73498108559E+02  0.80642395073E+02  0.00000000000E+00 0. -1.
         11    1    1    2    0    0  0.40162233929E+02 -0.49104634971E+02 -0.70153207251E+02  0.94581936422E+02  0.00000000000E+00 0.  1.
</event>
<event>
 7    1  0.2564986E-009  0.1608621E+03  0.7561462E-02  0.1187727E+00
          2   -1    0    0  501    0  0.00000000000E+00  0.00000000000E+00  0.89348985149E+03  0.89348985149E+03  0.00000000000E+00 0.  1.
         -2   -1    0    0    0  501 -0.00000000000E+00 -0.00000000000E+00 -0.31920273906E+02  0.31920273906E+02  0.00000000000E+00 0. -1.
         25    2    1    2    0    0 -0.91577251191E+02  0.91311572957E+02  0.46176277841E+03  0.49557759622E+03  0.12509234213E+03 0.  0.
          5    1    3    3  502    0 -0.88627846083E+02  0.85883928521E+01  0.16598369541E+03  0.18840571949E+03  0.41800000000E+01 0. -1.
         -5    1    3    3    0  502 -0.29494051086E+01  0.82723180105E+02  0.29577908300E+03  0.30717187674E+03  0.41800000000E+01 0. -1.
        -11    1    1    2    0    0  0.10459326483E+03 -0.74371595940E+02  0.37847544716E+03  0.39964302750E+03  0.00000000000E+00 0.  1.
         11    1    1    2    0    0 -0.13016013639E+02 -0.16939977017E+02  0.21331352018E+02  0.30189501674E+02  0.00000000000E+00 0. -1.
</event>
<event>
 7    1  0.2564986E-009  0.1409240E+03  0.7561462E-02  0.1212091E+00
          2   -1    0    0  501    0  0.00000000000E+00  0.00000000000E+00  0.11008465331E+03  0.11008465331E+03  0.00000000000E+00 0. -1.
         -2   -1    0    0    0  501 -0.00000000000E+00 -0.00000000000E+00 -0.32703446540E+03  0.32703446540E+03  0.00000000000E+00 0.  1.
         25    2    1    2    0    0 -0.52011010536E+01  0.12141668054E+03 -0.22713600051E+03  0.28636790788E+03  0.12508698641E+03 0.  0.
          5    1    3    3  502    0 -0.23280981736E+02  0.13491144676E+03 -0.22488470245E+03  0.26331294000E+03  0.41800000000E+01 0. -1.
         -5    1    3    3    0  502  0.18079880683E+02 -0.13494766215E+02 -0.22512980573E+01  0.23054967873E+02  0.41800000000E+01 0. -1.
        -11    1    1    2    0    0 -0.29920963338E+01 -0.36876467071E+02 -0.38051426025E+02  0.53072944959E+02  0.00000000000E+00 0.  1.
         11    1    1    2    0    0  0.81931973873E+01 -0.84540213474E+02  0.48237614443E+02  0.97678265877E+02  0.00000000000E+00 0. -1.
</event>
<event>
 7    1  0.2564986E-009  0.9147339E+02  0.7561462E-02  0.1299322E+00
          2   -1    0    0  501    0  0.00000000000E+00  0.00000000000E+00  0.28508263274E+03  0.28508263274E+03  0.00000000000E+00 0. -1.
         -2   -1    0    0    0  501 -0.00000000000E+00 -0.00000000000E+00 -0.46300995989E+02  0.46300995989E+02  0.00000000000E+00 0.  1.
         25    2    1    2    0    0 -0.13782234127E+02  0.36969674636E+02  0.11849069291E+03  0.17675604660E+03  0.12508376747E+03 0.  0.
          5    1    3    3  502    0  0.46386947563E+02  0.37737520590E+02  0.94357050543E+02  0.11178816910E+03  0.41800000000E+01 0.  1.
         -5    1    3    3    0  502 -0.60169181690E+02 -0.76784595339E+00  0.24133642370E+02  0.64967877499E+02  0.41800000000E+01 0.  1.
        -11    1    1    2    0    0 -0.11480617046E+02 -0.35575299864E+02  0.12358301447E+03  0.12911300474E+03  0.00000000000E+00 0. -1.
         11    1    1    2    0    0  0.25262851173E+02 -0.13943747722E+01 -0.32920706251E+01  0.25514577391E+02  0.00000000000E+00 0.  1.
</event>
<event>
 7    1  0.2564986E-009  0.1292417E+03  0.7561462E-02  0.1228585E+00
          2   -1    0    0  501    0  0.00000000000E+00  0.00000000000E+00  0.82768054994E+03  0.82768054994E+03  0.00000000000E+00 0. -1.
         -2   -1    0    0    0  501 -0.00000000000E+00 -0.00000000000E+00 -0.45380178053E+02  0.45380178053E+02  0.00000000000E+00 0.  1.
         25    2    1    2    0    0  0.11160063163E+03 -0.11982511351E+02  0.66724308218E+03  0.68808274109E+03  0.12508495640E+03 0.  0.
          5    1    3    3  502    0  0.10648181145E+03 -0.16697144550E+02  0.67065728630E+03  0.67927596665E+03  0.41800000000E+01 0. -1.
         -5    1    3    3    0  502  0.51188201844E+01  0.47146331982E+01 -0.34142041220E+01  0.88067744413E+01  0.41800000000E+01 0. -1.
        -11    1    1    2    0    0 -0.42934276708E+02 -0.38187226496E+02  0.30499204770E+02  0.65052424056E+02  0.00000000000E+00 0.  1.
         11    1    1    2    0    0 -0.68666354927E+02  0.50169737847E+02  0.84558084940E+02  0.11992556284E+03  0.00000000000E+00 0. -1.
</event>
<event>
 7    1  0.2564986E-009  0.8685069E+02  0.7561462E-02  0.1310663E+00
         -1   -1    0    0    0  501 -0.00000000000E+00  0.00000000000E+00  0.48076543217E+03  0.48076543217E+03  0.00000000000E+00 0.  1.
          1   -1    0    0  501    0  0.00000000000E+00 -0.00000000000E+00 -0.25198599445E+02  0.25198599445E+02  0.00000000000E+00 0. -1.
         25    2    1    2    0    0  0.23060688742E+01 -0.21299940765E+02  0.27083882369E+03  0.29909785105E+03  0.12508737207E+03 0.  0.
          5    1    3    3  502    0  0.52148691376E+02 -0.35719651567E+02  0.84398935832E+02  0.10552740066E+03  0.41800000000E+01 0.  1.
         -5    1    3    3    0  502 -0.49842622502E+02  0.14419710802E+02  0.18643988786E+03  0.19357045039E+03  0.41800000000E+01 0.  1.
        -11    1    1    2    0    0 -0.18851688233E+02 -0.11130515648E+02  0.36869260831E+01  0.22200629535E+02  0.00000000000E+00 0. -1.
         11    1    1    2    0    0  0.16545619358E+02  0.32430456413E+02  0.18104108295E+03  0.18466555103E+03  0.00000000000E+00 0.  1.
</event>
<event>
 7    1  0.2564986E-009  0.1514175E+03  0.7561462E-02  0.1198742E+00
          2   -1    0    0  501    0  0.00000000000E+00  0.00000000000E+00  0.12346803385E+04  0.12346803385E+04  0.00000000000E+00 0. -1.
         -2   -1    0    0    0  501 -0.00000000000E+00 -0.00000000000E+00 -0.21241662483E+02  0.21241662483E+02  0.00000000000E+00 0.  1.
         25    2    1    2    0    0 -0.33524550718E+01 -0.94621353669E+02  0.66570486577E+03  0.68394077159E+03  0.12509025226E+03 0.  0.
          5    1    3    3  502    0 -0.52742328657E+02 -0.28875007543E+02  0.14921132492E+03  0.16092548330E+03  0.41800000000E+01 0. -1.
         -5    1    3    3    0  502  0.49389873585E+02 -0.65746346125E+02  0.51649354085E+03  0.52301528829E+03  0.41800000000E+01 0. -1.
        -11    1    1    2    0    0  0.24441954907E+02  0.12269781234E+03  0.36340618460E+03  0.38433867529E+03  0.00000000000E+00 0.  1.
         11    1    1    2    0    0 -0.21089499835E+02 -0.28076458675E+02  0.18432762565E+03  0.18764255411E+03  0.00000000000E+00 0. -1.
</event>
<event>
 7    1  0.2564986E-009  0.1170748E+03  0.7561462E-02  0.1248002E+00
          1   -1    0    0  501    0  0.00000000000E+00  0.00000000000E+00  0.16162246032E+03  0.16162246032E+03  0.00000000000E+00 0. -1.
         -1   -1    0    0    0  501 -0.00000000000E+00 -0.00000000000E+00 -0.10934724266E+03  0.10934724266E+03  0.00000000000E+00 0.  1.
         25    2    1    2    0    0 -0.70459506253E+02  0.23713144813E+02  0.52396753000E+02  0.15465428687E+03  0.12508266652E+03 0.  0.
          5    1    3    3  502    0 -0.83278631672E+01  0.65452217447E+02  0.57539748179E+01  0.66362087820E+02  0.41800000000E+01 0. -1.
         -5    1    3    3    0  502 -0.62131643086E+02 -0.41739072634E+02  0.46642778182E+02  0.88292199052E+02  0.41800000000E+01 0. -1.
        -11    1    1    2    0    0  0.85457291988E+01 -0.29665396737E+02 -0.33640830333E+02  0.45659289488E+02  0.00000000000E+00 0.  1.
         11    1    1    2    0    0  0.61913777055E+02  0.59522519236E+01  0.33519294986E+02  0.70656126617E+02  0.00000000000E+00 0. -1.
</event>
<event>
 7    1  0.2564986E-009  0.1027897E+03  0.7561462E-02  0.1274537E+00
         -2   -1    0    0    0  501 -0.00000000000E+00  0.00000000000E+00  0.19220300096E+02  0.19220300096E+02  0.00000000000E+00 0.  1.
          2   -1    0    0  501    0  0.00000000000E+00 -0.00000000000E+00 -0.74325878310E+03  0.74325878310E+03  0.00000000000E+00 0. -1.
         25    2    1    2    0    0  0.48821404282E+02 -0.14405073640E+02 -0.44684610673E+03  0.46680760721E+03  0.12508742298E+03 0.  0.
          5    1    3    3  502    0  0.73936230771E+02 -0.47831334300E+02 -0.35538716769E+03  0.36615831838E+03  0.41800000000E+01 0. -1.
         -5    1    3    3    0  502 -0.25114826490E+02  0.33426260660E+02 -0.91458939039E+02  0.10064928883E+03  0.41800000000E+01 0. -1.
        -11    1    1    2    0    0  0.10332115594E+02 -0.70171969443E+01 -0.11409488713E+01  0.12541747483E+02  0.00000000000E+00 0.  1.
         11    1    1    2    0    0 -0.59153519876E+02  0.21422270584E+02 -0.27605142740E+03  0.28312972850E+03  0.00000000000E+00 0. -1.
</event>
<event>
 7    1  0.2564986E-009  0.1036983E+03  0.7561462E-02  0.1272706E+00
         -2   -1    0    0    0  501 -0.00000000000E+00  0.00000000000E+00  0.56757810222E+02  0.56757810222E+02  0.00000000000E+00 0.  1.
          2   -1    0    0  501    0  0.00000000000E+00 -0.00000000000E+00 -0.25037674527E+03  0.25037674527E+03  0.00000000000E+00 0. -1.
         25    2    1    2    0    0  0.69573154113E+01 -0.21662735644E+02 -0.63879676286E+02  0.14228799158E+03  0.12509029200E+03 0.  0.
          5    1    3    3  502    0 -0.22865672155E+02 -0.62926628170E+02 -0.96268806310E+01  0.67769821651E+02  0.41800000000E+01 0.  1.
         -5    1    3    3    0  502  0.29822987567E+02  0.41263892526E+02 -0.54252795655E+02  0.74518169934E+02  0.41800000000E+01 0.  1.
        -11    1    1    2    0    0  0.32124346489E+02  0.35401065896E+02 -0.28976152536E+02  0.55900147761E+02  0.00000000000E+00 0.  1.
         11    1    1    2    0    0 -0.39081661901E+02 -0.13738330253E+02 -0.10076310623E+03  0.10894641615E+03  0.00000000000E+00 0. -1.
</event>
<event>
 7    1  0.2564986E-009  0.1071975E+03  0.7561462E-02  0.1265849E+00
          2   -1    0    0  501    0  0.00000000000E+00  0.00000000000E+00  0.18361145330E+03  0.18361145330E+03  0.00000000000E+00 0. -1.
         -2   -1    0    0    0  501 -0.00000000000E+00 -0.00000000000E+00 -0.11429170552E+03  0.11429170552E+03  0.00000000000E+00 0.  1.
         25    2    1    2    0    0  0.85584177941E+02  0.16092455409E+02  0.78795866351E+02  0.17157995330E+03  0.12508906102E+03 0.  0.
          5    1    3    3  502    0  0.17003173104E+02  0.13836508125E+02  0.97753572254E+02  0.10026859000E+03  0.41800000000E+01 0.  1.
         -5    1    3    3    0  502  0.68581004836E+02  0.22559472845E+01 -0.18957705903E+02  0.71311363299E+02  0.41800000000E+01 0.  1.
        -11    1    1    2    0    0 -0.87592936979E+02 -0.42144132625E+02 -0.17963949239E+02  0.98850159310E+02  0.00000000000E+00 0. -1.
         11    1    1    2    0    0  0.20087590385E+01  0.26051677215E+02  0.84878306616E+01  0.27473046208E+02  0.00000000000E+00 0.  1.
</event>
<event>
 7    1  0.2564986E-009  0.9599422E+02  0.7561462E-02  0.1288952E+00
         -1   -1    0    0    0  501 -0.00000000000E+00  0.00000000000E+00  0.18710051524E+02  0.18710051524E+02  0.00000000000E+00 0.  1.
          1   -1    0    0  501    0  0.00000000000E+00 -0.00000000000E+00 -0.11352058842E+04  0.11352058842E+04  0.00000000000E+00 0. -1.
         25    2    1    2    0    0 -0.48019287572E+02 -0.53388578908E+02 -0.85961526528E+03  0.87163213838E+03  0.12509191823E+03 0.  0.
          5    1    3    3  502    0 -0.12079319823E+02 -0.33006937274E+02 -0.78839297830E+03  0.78918713149E+03  0.41800000000E+01 0.  1.
         -5    1    3    3    0  502 -0.35939967749E+02 -0.20381641634E+02 -0.71222286980E+02  0.82445006884E+02  0.41800000000E+01 0.  1.
        -11    1    1    2    0    0  0.57998093552E+02 -0.27337808265E+01 -0.10381633838E+03  0.11894992445E+03  0.00000000000E+00 0.  1.
         11    1    1    2    0    0 -0.99788059807E+01  0.56122359734E+02 -0.15306422904E+03  0.16333387292E+03  0.00000000000E+00 0. -1.
</event>
<event>
 7    1  0.2564986E-009  0.2707481E+03  0.7561462E-02  0.1100852E+00
          1   -1    0    0  501    0  0.00000000000E+00  0.00000000000E+00  0.69672469610E+03  0.69672469610E+03  0.00000000000E+00 0. -1.
         -1   -1    0    0    0  501 -0.00000000000E+00 -0.00000000000E+00 -0.11463600665E+03  0.11463600665E+03  0.00000000000E+00 0.  1.
         25    2    1    2    0    0 -0.10958059089E+03  0.23498189926E+03  0.30898143041E+03  0.42230512408E+03  0.12509074550E+03 0.  0.
          5    1    3    3  502    0 -0.72551687989E+02  0.20641123439E+03  0.17458103001E+03  0.27993812451E+03  0.41800000000E+01 0. -1.
         -5    1    3    3    0  502 -0.37028902900E+02  0.28570664869E+02  0.13440040040E+03  0.14236699958E+03  0.41800000000E+01 0. -1.
        -11    1    1    2    0    0  0.83733388370E+02 -0.71235075625E+02  0.90201510007E+02  0.14220417974E+03  0.00000000000E+00 0.  1.
         11    1    1    2    0    0  0.25847202519E+02 -0.16374682363E+03  0.18290574903E+03  0.24685139893E+03  0.00000000000E+00 0. -1.
</event>
<event>
 7    1  0.2564986E-009  0.1193389E+03  0.7561462E-02  0.1244192E+00
          2   -1    0    0  501    0  0.00000000000E+00  0.00000000000E+00  0.57076360424E+02  0.57076360424E+02  0.00000000000E+00 0. -1.
         -2   -1    0    0    0  501 -0.00000000000E+00 -0.00000000000E+00 -0.25892094472E+03  0.25892094472E+03  0.00000000000E+00 0.  1.
         25    2    1    2    0    0  0.16165361779E+02  0.46828178691E+02 -0.83638344626E+02  0.15842090740E+03  0.12509042317E+03 0.  0.
          5    1    3    3  502    0 -0.16144091285E+02  0.83661179600E+02 -0.50723523096E+02  0.99248037012E+02  0.41800000000E+01 0. -1.
         -5    1    3    3    0  502  0.32309453064E+02 -0.36833000909E+02 -0.32914821530E+02  0.59172870385E+02  0.41800000000E+01 0. -1.
        -11    1    1    2    0    0  0.35653547091E+02 -0.20516640521E+01 -0.41057694290E+02  0.54416164933E+02  0.00000000000E+00 0. -1.
         11    1    1    2    0    0 -0.51818908870E+02 -0.44776514639E+02 -0.77148545376E+02  0.10316023281E+03  0.00000000000E+00 0.  1.
</event>
<event>
 7    1  0.2564986E-009  0.9557935E+02  0.7561462E-02  0.1289877E+00
          1   -1    0    0  501    0  0.00000000000E+00  0.00000000000E+00  0.78450662240E+02  0.78450662240E+02  0.00000000000E+00 0. -1.
         -1   -1    0    0    0  501 -0.00000000000E+00 -0.00000000000E+00 -0.19767566304E+03  0.19767566304E+03  0.00000000000E+00 0.  1.
         25    2    1    2    0    0  0.15465978304E+01  0.37277787288E+02 -0.12302532627E+03  0.17937270066E+03  0.12508920596E+03 0.  0.
          5    1    3    3  502    0  0.33069172069E+02  0.56127549236E+02 -0.12639177406E+03  0.14225408561E+03  0.41800000000E+01 0.  1.
         -5    1    3    3    0  502 -0.31522574239E+02 -0.18849761948E+02  0.33664477894E+01  0.37118615045E+02  0.41800000000E+01 0.  1.
        -11    1    1    2    0    0  0.39512211659E+02 -0.21001881917E+02  0.20905926547E+02  0.49389793268E+02  0.00000000000E+00 0. -1.
         11    1    1    2    0    0 -0.41058809489E+02 -0.16275905371E+02 -0.17105601082E+02  0.47363831356E+02  0.00000000000E+00 0.  1.
</event>
<event>
 7    1  0.2564986E-009  0.1420704E+03  0.7561462E-02  0.1210570E+00
         -2   -1    0    0    0  501 -0.00000000000E+00  0.00000000000E+00  0.19395560115E+02  0.19395560115E+02  0.00000000000E+00 0.  1.
          2   -1    0    0  501    0  0.00000000000E+00 -0.00000000000E+00 -0.10749910441E+04  0.10749910441E+04  0.00000000000E+00 0. -1.
         25    2    1    2    0    0  0.56983383048E+02 -0.73803617880E+02 -0.56784836252E+03  0.58889157876E+03  0.12508976283E+03 0.  0.
          5    1    3    3  502    0  0.63437489698E+02  0.13509053609E+02 -0.30383154956E+03  0.31070547555E+03  0.41800000000E+01 0. -1.
         -5    1    3    3    0  502 -0.64541066492E+01 -0.87312671488E+02 -0.26401681296E+03  0.27818610321E+03  0.41800000000E+01 0. -1.
        -11    1    1    2    0    0 -0.70286625732E+01  0.80754375776E+02 -0.26558640532E+03  0.27768113006E+03  0.00000000000E+00 0. -1.
         11    1    1    2    0    0 -0.49954720475E+02 -0.69507578966E+01 -0.22216071618E+03  0.22781389543E+03  0.00000000000E+00 0.  1.
</event>
<event>
 7    1  0.2564986E-009  0.1970569E+03  0.7561462E-02  0.1152246E+00
         -2   -1    0    0    0  501 -0.00000000000E+00  0.00000000000E+00  0.81714936183E+03  0.81714936183E+03  0.00000000000E+00 0.  1.
          2   -1    0    0  501    0  0.00000000000E+00 -0.00000000000E+00 -0.51492313621E+02  0.51492313621E+02  0.00000000000E+00 0. -1.
         25    2    1    2    0    0  0.25139601882E+02 -0.17115613318E+03  0.35990541357E+03  0.41845661003E+03  0.12509039232E+03 0.  0.
          5    1    3    3  502    0  0.36864588114E+02  0.37098979108E+01  0.78620477350E+02  0.87013867045E+02  0.41800000000E+01 0.  1.
         -5    1    3    3    0  502 -0.11724986232E+02 -0.17486603110E+03  0.28128493622E+03  0.33144274298E+03  0.41800000000E+01 0.  1.
        -11    1    1    2    0    0  0.16854710505E+02  0.32033942209E+02  0.16541227571E+03  0.16932653565E+03  0.00000000000E+00 0.  1.
         11    1    1    2    0    0 -0.41994312387E+02  0.13912219097E+03  0.24033935893E+03  0.28085852977E+03  0.00000000000E+00 0. -1.
</event>
<event>
 7    1  0.2564986E-009  0.1250448E+03  0.7561462E-02  0.1234999E+00
         -1   -1    0    0    0  501 -0.00000000000E+00  0.00000000000E+00  0.93151304259E+02  0.93151304259E+02  0.00000000000E+00 0.  1.
          1   -1    0    0  501    0  0.00000000000E+00 -0.00000000000E+00 -0.22500784701E+03  0.22500784701E+03  0.00000000000E+00 0. -1.
         25    2    1    2    0    0 -0.61800505931E+02  0.49042590599E+02 -0.12966022784E+03  0.19668108299E+03  0.12508875047E+03 0.  0.
          5    1    3    3  502    0 -0.40837083527E+02 -0.31797291280E+02 -0.13673348909E+02  0.53695139390E+02  0.41800000000E+01 0.  1.
         -5    1    3    3    0  502 -0.20963422404E+02  0.80839881879E+02 -0.11598687894E+03  0.14298594360E+03  0.41800000000E+01 0.  1.
        -11    1    1    2    0    0  0.27373029389E+02  0.22315876171E+02 -0.19555256106E+02  0.40369408078E+02  0.00000000000E+00 0. -1.
         11    1    1    2    0    0  0.34427476542E+02 -0.71358466771E+02  0.17358941198E+02  0.81108660206E+02  0.00000000000E+00 0.  1.
</event>
<event>
 7    1  0.2564986E-009  0.4041703E+03  0.7561462E-02  0.1042345E+00
         -1   -1    0    0    0  501 -0.00000000000E+00  0.00000000000E+00  0.16626635703E+03  0.16626635703E+03  0.00000000000E+00 0.  1.
          1   -1    0    0  501    0  0.00000000000E+00 -0.00000000000E+00 -0.10719142319E+04  0.10719142319E+04  0.00000000000E+00 0. -1.
         25    2    1    2    0    0 -0.74608091343E+02  0.39290129952E+03 -0.34054030162E+03  0.53995560530E+03  0.12508621109E+03 0.  0.
          5    1    3    3  502    0 -0.42052747837E+02  0.88985196652E+02 -0.27178091961E+02  0.10219060576E+03  0.41800000000E+01 0.  1.
         -5    1    3    3    0  502 -0.32555343506E+02  0.30391610287E+03 -0.31336220966E+03  0.43776499953E+03  0.41800000000E+01 0.  1.
        -11    1    1    2    0    0  0.84224338820E+02 -0.33342447379E+03 -0.43239970114E+03  0.55248087797E+03  0.00000000000E+00 0.  1.
         11    1    1    2    0    0 -0.96162474762E+01 -0.59476825724E+02 -0.13270787210E+03  0.14574410564E+03  0.00000000000E+00 0. -1.
</event>
<event>
 7    1  0.2564986E-009  0.1049191E+03  0.7561462E-02  0.1270279E+00
         -2   -1    0    0    0  501 -0.00000000000E+00  0.00000000000E+00  0.23750455312E+02  0.23750455312E+02  0.00000000000E+00 0.  1.
          2   -1    0    0  501    0  0.00000000000E+00 -0.00000000000E+00 -0.68444874067E+03  0.68444874067E+03  0.00000000000E+00 0. -1.
         25    2    1    2    0    0 -0.40461394708E+02 -0.39394730138E+02 -0.45445571379E+03  0.47472742651E+03  0.12508822670E+03 0.  0.
          5    1    3    3  502    0  0.12871000569E+02  0.39073125645E+02 -0.16439342499E+03  0.16951413623E+03  0.41800000000E+01 0. -1.
         -5    1    3    3    0  502 -0.53332395277E+02 -0.78467855782E+02 -0.29006228880E+03  0.30521329028E+03  0.41800000000E+01 0. -1.
        -11    1    1    2    0    0 -0.87889059306E+01  0.17579186218E+02  0.66745749967E+00  0.19665150776E+02  0.00000000000E+00 0.  1.
         11    1    1    2    0    0  0.49250300639E+02  0.21815543920E+02 -0.20691002907E+03  0.21380661870E+03  0.00000000000E+00 0. -1.
</event>
<event>
 7    1  0.2564986E-009  0.8110065E+02  0.7561462E-02  0.1325957E+00
         -1   -1    0    0    0  501 -0.00000000000E+00  0.00000000000E+00  0.36010045007E+02  0.36010045007E+02  0.00000000000E+00 0.  1.
          1   -1    0    0  501    0  0.00000000000E+00 -0.00000000000E+00 -0.37254824403E+03  0.37254824403E+03  0.00000000000E+00 0. -1.
         25    2    1    2    0    0 -0.36405597946E+02  0.18703192502E+01 -0.16715020364E+03  0.21193189811E+03  0.12508826166E+03 0.  0.
          5    1    3    3  502    0  0.60073502687E+01 -0.33670741893E+02 -0.14991489419E+03  0.15382377910E+03  0.41800000000E+01 0. -1.
         -5    1    3    3    0  502 -0.42412948215E+02  0.35541061143E+02 -0.17235309455E+02  0.58108119015E+02  0.41800000000E+01 0. -1.
        -11    1    1    2    0    0 -0.11429736275E+02 -0.18382473218E+02 -0.19794277966E+01  0.21736428578E+02  0.00000000000E+00 0.  1.
         11    1    1    2    0    0  0.47835334221E+02  0.16512153968E+02 -0.16740856758E+03  0.17488996234E+03  0.00000000000E+00 0. -1.
</event>
<event>
 7    1  0.2564986E-009  0.1357323E+03  0.7561462E-02  0.1219190E+00
          2   -1    0    0  501    0  0.00000000000E+00  0.00000000000E+00  0.17807731445E+03  0.17807731445E+03  0.00000000000E+00 0.  1.
         -2   -1    0    0    0  501 -0.00000000000E+00 -0.00000000000E+00 -0.25421232742E+03  0.25421232742E+03  0.00000000000E+00 0. -1.
         25    2    1    2    0    0 -0.54801706092E+02 -0.96953601890E+02 -0.18787078585E+03  0.25168687174E+03  0.12509045255E+03 0.  0.
          5    1    3    3  502    0  0.22492521591E+02  0.29498240174E+01 -0.86938733375E+02  0.89946821789E+02  0.41800000000E+01 0.  1.
         -5    1    3    3    0  502 -0.77294227683E+02 -0.99903425907E+02 -0.10093205247E+03  0.16174004995E+03  0.41800000000E+01 0.  1.
        -11    1    1    2    0    0 -0.76157489643E+01  0.27952984172E+02 -0.69500133206E+01  0.29793818848E+02  0.00000000000E+00 0. -1.
         11    1    1    2    0    0  0.62417455056E+02  0.69000617718E+02  0.11868578620E+03  0.15080895128E+03  0.00000000000E+00 0.  1.
</event>
<event>
 7    1  0.2564986E-009  0.1036617E+03  0.7561462E-02  0.1272779E+00
          2   -1    0    0  501    0  0.00000000000E+00  0.00000000000E+00  0.45996123367E+03  0.45996123367E+03  0.00000000000E+00 0. -1.
         -2   -1    0    0    0  501 -0.00000000000E+00 -0.00000000000E+00 -0.32328731021E+02  0.32328731021E+02  0.00000000000E+00 0.  1.
         25    2    1    2    0    0  0.48935686179E+02  0.11249814146E+02  0.20253252350E+03  0.24328297336E+03  0.12508366141E+03 0.  0.
          5    1    3    3  502    0  0.53736349243E+02  0.45926170484E+02  0.19468685196E+03  0.20716479211E+03  0.41800000000E+01 0. -1.
         -5    1    3    3    0  502 -0.48006630637E+01 -0.34676356338E+02  0.78456715435E+01  0.36118181249E+02  0.41800000000E+01 0. -1.
        -11    1    1    2    0    0  0.18852967114E+02 -0.25769757131E+02  0.38938341777E+02  0.50355825998E+02  0.00000000000E+00 0.  1.
         11    1    1    2    0    0 -0.67788653293E+02  0.14519942986E+02  0.18616163737E+03  0.19865116533E+03  0.00000000000E+00 0. -1.
</event>
<event>
 7    1  0.2564986E-009  0.1544906E+03  0.7561462E-02  0.1195061E+00
         -4   -1    0    0    0  501 -0.00000000000E+00  0.00000000000E+00  0.49405685701E+03  0.49405685701E+03  0.00000000000E+00 0.  1.
          4   -1    0    0  501    0  0.00000000000E+00 -0.00000000000E+00 -0.62236210158E+02  0.62236210158E+02  0.00000000000E+00 0. -1.
         25    2    1    2    0    0  0.62729182357E+02  0.10098689723E+03  0.11590550591E+03  0.20788135943E+03  0.12508904654E+03 0.  0.
          5    1    3    3  502    0  0.71817028893E+02  0.89918026126E+01  0.81689632681E+02  0.10922090753E+03  0.41800000000E+01 0. -1.
         -5    1    3    3    0  502 -0.90878465364E+01  0.91995094617E+02  0.34215873229E+02  0.98660451900E+02  0.41800000000E+01 0. -1.
        -11    1    1    2    0    0  0.17624487655E+02 -0.37858367522E+02  0.62474674274E+02  0.75146280561E+02  0.00000000000E+00 0. -1.
         11    1    1    2    0    0 -0.80353670012E+02 -0.63128529708E+02  0.25344046666E+03  0.27326542718E+03  0.00000000000E+00 0.  1.
</event>
<event>
 7    1  0.2564986E-009  0.1199917E+03  0.7561462E-02  0.1243111E+00
          1   -1    0    0  501    0  0.00000000000E+00  0.00000000000E+00  0.38018473080E+02  0.38018473080E+02  0.00000000000E+00 0. -1.
         -1   -1    0    0    0  501 -0.00000000000E+00 -0.00000000000E+00 -0.45048206103E+03  0.45048206103E+03  0.00000000000E+00 0.  1.
         25    2    1    2    0    0 -0.40647648469E+02  0.53414906020E+02 -0.17708106591E+03  0.22695973934E+03  0.12509051070E+03 0.  0.
          5    1    3    3  502    0  0.25485969795E+01  0.84448361884E+02 -0.13362542904E+03  0.15814945101E+03  0.41800000000E+01 0.  1.
         -5    1    3    3    0  502 -0.43196245448E+02 -0.31033455864E+02 -0.43455636873E+02  0.68810288328E+02  0.41800000000E+01 0.  1.
        -11    1    1    2    0    0  0.60676928187E+02 -0.55072817814E+02 -0.22383278115E+03  0.23836069054E+03  0.00000000000E+00 0.  1.
         11    1    1    2    0    0 -0.20029279718E+02  0.16579117935E+01 -0.11549740893E+02  0.23180104233E+02  0.00000000000E+00 0. -1.
</event>
<event>
 7    1  0.2564986E-009  0.1409724E+03  0.7561462E-02  0.1212026E+00
          1   -1    0    0  501    0  0.00000000000E+00  0.00000000000E+00  0.99267412875E+02  0.99267412875E+02  0.00000000000E+00 0. -1.
         -1   -1    0    0    0  501 -0.00000000000E+00 -0.00000000000E+00 -0.20230937339E+03  0.20230937339E+03  0.00000000000E+00 0.  1.
         25    2    1    2    0    0 -0.36732480018E+02 -0.84939495900E+02 -0.61079767872E+02  0.16715714779E+03  0.12508709351E+03 0.  0.
          5    1    3    3  502    0 -0.44864602951E+02  0.20182022251E+02 -0.12145430112E+02  0.50844178553E+02  0.41800000000E+01 0.  1.
         -5    1    3    3    0  502  0.81321229332E+01 -0.10512151815E+03 -0.48934337759E+02  0.11631296924E+03  0.41800000000E+01 0.  1.
        -11    1    1    2    0    0  0.21267348701E+02 -0.14936207676E+02 -0.14177941308E+02  0.29604128770E+02  0.00000000000E+00 0.  1.
         11    1    1    2    0    0  0.15465131317E+02  0.99875703576E+02 -0.27784251335E+02  0.10481550970E+03  0.00000000000E+00 0. -1.
</event>
<event>
 7    1  0.2564986E-009  0.1347014E+03  0.7561462E-02  0.1220642E+00
         -3   -1    0    0    0  501 -0.00000000000E+00  0.00000000000E+00  0.15112886612E+03  0.15112886612E+03  0.00000000000E+00 0.  1.
          3   -1    0    0  501    0  0.00000000000E+00 -0.00000000000E+00 -0.15522272424E+03  0.15522272424E+03  0.00000000000E+00 0. -1.
         25    2    1    2    0    0  0.62486799525E+02  0.67443384197E+02 -0.59091937559E+02  0.16610886444E+03  0.12508831910E+03 0.  0.
          5    1    3    3  502    0  0.81929651582E+02  0.13800667655E+02  0.92328868131E+00  0.83194056867E+02  0.41800000000E+01 0. -1.
         -5    1    3    3    0  502 -0.19442852056E+02  0.53642716541E+02 -0.60015226240E+02  0.82914807572E+02  0.41800000000E+01 0. -1.
        -11    1    1    2    0    0 -0.56362107186E+02  0.47395628410E+01  0.23483057594E+02  0.61242179715E+02  0.00000000000E+00 0. -1.
         11    1    1    2    0    0 -0.61246923397E+01 -0.72182947038E+02  0.31515021839E+02  0.79000546206E+02  0.00000000000E+00 0.  1.
</event>
<event>
 7    1  0.2564986E-009  0.8455147E+02  0.7561462E-02  0.1316610E+00
         -2   -1    0    0    0  501 -0.00000000000E+00  0.00000000000E+00  0.70672872364E+02  0.70672872364E+02  0.00000000000E+00 0.  1.
          2   -1    0    0  501    0  0.00000000000E+00 -0.00000000000E+00 -0.18712889030E+03  0.18712889030E+03  0.00000000000E+00 0. -1.
         25    2    1    2    0    0 -0.42595173247E+02  0.57542681306E+00 -0.65564149664E+02  0.14751490863E+03  0.12508921076E+03 0.  0.
          5    1    3    3  502    0 -0.37296183427E+02  0.32473633203E+02 -0.92664885936E+02  0.10511800815E+03  0.41800000000E+01 0.  1.
         -5    1    3    3    0  502 -0.52989898197E+01 -0.31898206390E+02  0.27100736273E+02  0.42396900483E+02  0.41800000000E+01 0.  1.
        -11    1    1    2    0    0  0.63697991660E+02  0.77834117785E+01 -0.58003343661E+02  0.86500887373E+02  0.00000000000E+00 0. -1.
         11    1    1    2    0    0 -0.21102818413E+02 -0.83588385916E+01  0.71114753904E+01  0.23785966657E+02  0.00000000000E+00 0.  1.
</event>
<event>
 7    1  0.2564986E-009  0.8773336E+02  0.7561462E-02  0.1308435E+00
         -2   -1    0    0    0  501 -0.00000000000E+00  0.00000000000E+00  0.76828144597E+03  0.76828144597E+03  0.00000000000E+00 0.  1.
          2   -1    0    0  501    0  0.00000000000E+00 -0.00000000000E+00 -0.16517464776E+02  0.16517464776E+02  0.00000000000E+00 0. -1.
         25    2    1    2    0    0  0.14516464888E+02 -0.17395782817E+02  0.47937054573E+03  0.49594050385E+03  0.12509005646E+03 0.  0.
          5    1    3    3  502    0  0.55780961628E+02 -0.13397076786E+02  0.10911111276E+03  0.12334384733E+03  0.41800000000E+01 0.  1.
         -5    1    3    3    0  502 -0.41264496740E+02 -0.39987060311E+01  0.37025943297E+03  0.37259665652E+03  0.41800000000E+01 0.  1.
        -11    1    1    2    0    0 -0.44025462644E+02  0.15630014862E+02  0.24196775100E+03  0.24643646494E+03  0.00000000000E+00 0.  1.
         11    1    1    2    0    0  0.29508997756E+02  0.17657679549E+01  0.30425684455E+02  0.42421941959E+02  0.00000000000E+00 0. -1.
</event>
<event>
 7    1  0.2564986E-009  0.1536998E+03  0.7561462E-02  0.1195999E+00
         -2   -1    0    0    0  501 -0.00000000000E+00  0.00000000000E+00  0.41057267490E+03  0.41057267490E+03  0.00000000000E+00 0.  1.
          2   -1    0    0  501    0  0.00000000000E+00 -0.00000000000E+00 -0.65119747884E+02  0.65119747884E+02  0.00000000000E+00 0. -1.
         25    2    1    2    0    0  0.10594844999E+03 -0.52304254413E+02  0.21637785206E+03  0.27645799855E+03  0.12509532772E+03 0.  0.
          5    1    3    3  502    0  0.12482716255E+03 -0.29762093555E+02  0.20990898858E+03  0.24606271275E+03  0.41800000000E+01 0. -1.
         -5    1    3    3    0  502 -0.18878712560E+02 -0.22542160858E+02  0.64688634804E+01  0.30395285799E+02  0.41800000000E+01 0. -1.
        -11    1    1    2    0    0 -0.18170000264E+01 -0.21560875938E+02  0.73924784006E+01  0.22865292415E+02  0.00000000000E+00 0. -1.
         11    1    1    2    0    0 -0.10413144996E+03  0.73865130352E+02  0.12168259656E+03  0.17636913182E+03  0.00000000000E+00 0.  1.
</event>
<event>
 7    1  0.2564986E-009  0.1197226E+03  0.7561462E-02  0.1243555E+00
          2   -1    0    0  501    0  0.00000000000E+00  0.00000000000E+00  0.14610702901E+03  0.14610702901E+03  0.00000000000E+00 0. -1.
         -2   -1    0    0    0  501 -0.00000000000E+00 -0.00000000000E+00 -0.13992223648E+03  0.13992223648E+03  0.00000000000E+00 0.  1.
         25    2    1    2    0    0  0.36864935886E+02  0.78790350634E+02  0.33387789315E+02  0.15597851132E+03  0.12509040198E+03 0.  0.
          5    1    3    3  502    0 -0.41287966516E+02  0.57557330002E+02  0.20560408406E+02  0.73876553857E+02  0.41800000000E+01 0. -1.
         -5    1    3    3    0  502  0.78152902401E+02  0.21233020632E+02  0.12827380909E+02  0.82101957467E+02  0.41800000000E+01 0. -1.
        -11    1    1    2    0    0 -0.43194147883E+01 -0.17190517775E+02 -0.52902586710E+02  0.55792964844E+02  0.00000000000E+00 0.  1.
         11    1    1    2    0    0 -0.32545521098E+02 -0.61599832859E+02  0.25699589928E+02  0.74257789317E+02  0.00000000000E+00 0. -1.
</event>
<event>
 7    1  0.2564986E-009  0.1465141E+03  0.7561462E-02  0.1204823E+00
         -2   -1    0    0    0  501 -0.00000000000E+00  0.00000000000E+00  0.77973752367E+02  0.77973752367E+02  0.00000000000E+00 0.  1.
          2   -1    0    0  501    0  0.00000000000E+00 -0.00000000000E+00 -0.38106867728E+03  0.38106867728E+03  0.00000000000E+00 0. -1.
         25    2    1    2    0    0 -0.24191395089E+02 -0.12451742209E+03 -0.10353455630E+03  0.20605384150E+03  0.12509584024E+03 0.  0.
          5    1    3    3  502    0  0.42164524904E+02 -0.52582562937E+02 -0.59581609729E+01  0.67791925534E+02  0.41800000000E+01 0.  1.
         -5    1    3    3    0  502 -0.66355919993E+02 -0.71934859158E+02 -0.97576395332E+02  0.13826191596E+03  0.41800000000E+01 0.  1.
        -11    1    1    2    0    0  0.23754337727E+02  0.91813035065E+02 -0.19881189168E+03  0.22027271788E+03  0.00000000000E+00 0. -1.
         11    1    1    2    0    0  0.43705736199E+00  0.32704387029E+02 -0.74847693406E+00  0.32715870275E+02  0.00000000000E+00 0.  1.
</event>
<event>
 7    1  0.2564986E-009  0.1299923E+03  0.7561462E-02  0.1227467E+00
          2   -1    0    0  501    0  0.00000000000E+00  0.00000000000E+00  0.13520231169E+03  0.13520231169E+03  0.00000000000E+00 0. -1.
         -2   -1    0    0    0  501 -0.00000000000E+00 -0.00000000000E+00 -0.14399196735E+03  0.14399196735E+03  0.00000000000E+00 0.  1.
         25    2    1    2    0    0 -0.84302903782E+02  0.10377393164E+02 -0.27239195149E+02  0.15363633565E+03  0.12508988770E+03 0.  0.
          5    1    3    3  502    0 -0.79836628188E+01 -0.49337180951E+02  0.72870613833E+01  0.50680074584E+02  0.41800000000E+01 0.  1.
         -5    1    3    3    0  502 -0.76319240963E+02  0.59714574115E+02 -0.34526256533E+02  0.10295626107E+03  0.41800000000E+01 0.  1.
        -11    1    1    2    0    0  0.88853382143E+02 -0.29155902100E+02  0.35265474509E+02  0.99943203060E+02  0.00000000000E+00 0. -1.
         11    1    1    2    0    0 -0.45504783613E+01  0.18778508936E+02 -0.16815935028E+02  0.25614740327E+02  0.00000000000E+00 0.  1.
</event>
<event>
 7    1  0.2564986E-009  0.8852886E+02  0.7561462E-02  0.1306454E+00
         -1   -1    0    0    0  501 -0.00000000000E+00  0.00000000000E+00  0.59281858291E+02  0.59281858291E+02  0.00000000000E+00 0.  1.
          1   -1    0    0  501    0  0.00000000000E+00 -0.00000000000E+00 -0.29827041834E+03  0.29827041834E+03  0.00000000000E+00 0. -1.
         25    2    1    2    0    0 -0.23309334708E+02 -0.60609387978E+02 -0.18593421690E+03  0.23331428943E+03  0.12508877505E+03 0.  0.
          5    1    3    3  502    0 -0.11706784921E+02 -0.21309495011E+02 -0.19030150725E+03  0.19189392761E+03  0.41800000000E+01 0. -1.
         -5    1    3    3    0  502 -0.11602549787E+02 -0.39299892966E+02  0.43672903508E+01  0.41420361825E+02  0.41800000000E+01 0. -1.
        -11    1    1    2    0    0  0.57637505412E+02  0.28949063865E+02 -0.21964122018E+02  0.68136282441E+02  0.00000000000E+00 0.  1.
         11    1    1    2    0    0 -0.34328170704E+02  0.31660324112E+02 -0.31090221133E+02  0.56101704759E+02  0.00000000000E+00 0. -1.
</event>
<event>
 7    1  0.2564986E-009  0.2343012E+03  0.7561462E-02  0.1123649E+00
          1   -1    0    0  501    0  0.00000000000E+00  0.00000000000E+00  0.34489132181E+03  0.34489132181E+03  0.00000000000E+00 0. -1.
         -1   -1    0    0    0  501 -0.00000000000E+00 -0.00000000000E+00 -0.19607922679E+03  0.19607922679E+03  0.00000000000E+00 0.  1.
         25    2    1    2    0    0  0.10400862029E+03 -0.20222282374E+03  0.10127492612E+02  0.25973553082E+03  0.12509243112E+03 0.  0.
          5    1    3    3  502    0  0.19753474764E+02 -0.84429510500E+02  0.61087886877E+02  0.10614963180E+03  0.41800000000E+01 0. -1.
         -5    1    3    3    0  502  0.84255145528E+02 -0.11779331324E+03 -0.50960394265E+02  0.15358589901E+03  0.41800000000E+01 0. -1.
        -11    1    1    2    0    0 -0.11369167294E+03  0.18469809357E+03  0.10251312387E+03  0.23989189822E+03  0.00000000000E+00 0.  1.
         11    1    1    2    0    0  0.96830526496E+01  0.17524730171E+02  0.36171478537E+02  0.41343119569E+02  0.00000000000E+00 0. -1.
</event>
<event>
 7    1  0.2564986E-009  0.1479320E+03  0.7561462E-02  0.1203037E+00
          1   -1    0    0  501    0  0.00000000000E+00  0.00000000000E+00  0.13602904541E+03  0.13602904541E+03  0.00000000000E+00 0. -1.
         -1   -1    0    0    0  501 -0.00000000000E+00 -0.00000000000E+00 -0.23155650695E+03  0.23155650695E+03  0.00000000000E+00 0.  1.
         25    2    1    2    0    0  0.12181718417E+03 -0.28919806332E+02 -0.11555569421E+03  0.21136706866E+03  0.12508851943E+03 0.  0.
          5    1    3    3  502    0  0.66783672498E+02 -0.51916620542E+02 -0.12484196735E+03  0.15085882014E+03  0.41800000000E+01 0.  1.
         -5    1    3    3    0  502  0.55033511674E+02  0.22996814211E+02  0.92862731384E+01  0.60508248527E+02  0.41800000000E+01 0.  1.
        -11    1    1    2    0    0 -0.33959487009E+02  0.50550699613E+02  0.24463850545E+02  0.65628499699E+02  0.00000000000E+00 0. -1.
         11    1    1    2    0    0 -0.87857697163E+02 -0.21630893281E+02 -0.44356178704E+01  0.90589983998E+02  0.00000000000E+00 0.  1.
</event>
<event>
 7    1  0.2564986E-009  0.1068354E+03  0.7561462E-02  0.1266545E+00
         -3   -1    0    0    0  501 -0.00000000000E+00  0.00000000000E+00  0.35596214170E+02  0.35596214170E+02  0.00000000000E+00 0.  1.
          3   -1    0    0  501    0  0.00000000000E+00 -0.00000000000E+00 -0.49382740450E+03  0.49382740450E+03  0.00000000000E+00 0. -1.
         25    2    1    2    0    0  0.59987705373E+02 -0.35839877265E+02 -0.31716431103E+03  0.34802444257E+03  0.12507913831E+03 0.  0.
          5    1    3    3  502    0 -0.29340333972E+02 -0.37295377336E+02 -0.16275354866E+03  0.16958181026E+03  0.41800000000E+01 0.  1.
         -5    1    3    3    0  502  0.89328039345E+02  0.14555000712E+01 -0.15441076237E+03  0.17844263232E+03  0.41800000000E+01 0.  1.
        -11    1    1    2    0    0 -0.94140552738E+01  0.22354184528E+02  0.62604782216E+01  0.25050500797E+02  0.00000000000E+00 0.  1.
         11    1    1    2    0    0 -0.50573650099E+02  0.13485692737E+02 -0.14732735752E+03  0.15634867530E+03  0.00000000000E+00 0. -1.
</event>
<event>
 7    1  0.2564986E-009  0.1287005E+03  0.7561462E-02  0.1229397E+00
         -1   -1    0    0    0  501 -0.00000000000E+00  0.00000000000E+00  0.10136326282E+04  0.10136326282E+04  0.00000000000E+00 0. -1.
          1   -1    0    0  501    0  0.00000000000E+00 -0.00000000000E+00 -0.19345212980E+02  0.19345212980E+02  0.00000000000E+00 0.  1.
         25    2    1    2    0    0 -0.12516707396E+02  0.78526154948E+02  0.69168690467E+03  0.70739020140E+03  0.12508836062E+03 0.  0.
          5    1    3    3  502    0  0.33861686232E+02  0.83698709811E+02  0.56761987597E+03  0.57477115778E+03  0.41800000000E+01 0. -1.
         -5    1    3    3    0  502 -0.46378393628E+02 -0.51725548633E+01  0.12406702870E+03  0.13261904362E+03  0.41800000000E+01 0. -1.
        -11    1    1    2    0    0  0.30777855578E+02  0.79429216815E+01  0.81361482674E+02  0.87350198979E+02  0.00000000000E+00 0. -1.
         11    1    1    2    0    0 -0.18261148182E+02 -0.86469076629E+02  0.22123902788E+03  0.23823744080E+03  0.00000000000E+00 0.  1.
</event>
<event>
 7    1  0.2564986E-009  0.1091300E+03  0.7561462E-02  0.1262189E+00
          1   -1    0    0  501    0  0.00000000000E+00  0.00000000000E+00  0.31711786211E+03  0.31711786211E+03  0.00000000000E+00 0. -1.
         -1   -1    0    0    0  501 -0.00000000000E+00 -0.00000000000E+00 -0.44376005339E+02  0.44376005339E+02  0.00000000000E+00 0.  1.
         25    2    1    2    0    0 -0.13118468864E+02  0.42621109036E+02  0.12522996430E+03  0.18253211632E+03  0.12508707515E+03 0.  0.
          5    1    3    3  502    0 -0.67727024563E+02  0.16747693948E+02  0.49938088276E+02  0.85899477119E+02  0.41800000000E+01 0.  1.
         -5    1    3    3    0  502  0.54608555699E+02  0.25873415088E+02  0.75291876022E+02  0.96632639200E+02  0.41800000000E+01 0.  1.
        -11    1    1    2    0    0 -0.31811777704E+02 -0.16835427688E+02  0.10791231609E+03  0.11375626923E+03  0.00000000000E+00 0. -1.
         11    1    1    2    0    0  0.44930246568E+02 -0.25785681348E+02  0.39599576380E+02  0.65205481892E+02  0.00000000000E+00 0.  1.
</event>
<event>
 7    1  0.2564986E-009  0.2616296E+03  0.7561462E-02  0.1106168E+00
         -2   -1    0    0    0  501 -0.00000000000E+00  0.00000000000E+00  0.60300728956E+03  0.60300728956E+03  0.00000000000E+00 0.  1.
          2   -1    0    0  501    0  0.00000000000E+00 -0.00000000000E+00 -0.12171548580E+03  0.12171548580E+03  0.00000000000E+00 0. -1.
         25    2    1    2    0    0  0.14741784861E+03 -0.20018242845E+03  0.23184432023E+03  0.36222058768E+03  0.12508772347E+03 0.  0.
          5    1    3    3  502    0 -0.49605871169E+01 -0.79759856000E+02  0.41071356513E+02  0.89947600188E+02  0.41800000000E+01 0. -1.
         -5    1    3    3    0  502  0.15237843573E+03 -0.12042257245E+03  0.19077296372E+03  0.27227298749E+03  0.41800000000E+01 0. -1.
        -11    1    1    2    0    0 -0.10089447093E+03  0.12613933846E+03  0.21406515933E+03  0.26816919922E+03  0.00000000000E+00 0.  1.
         11    1    1    2    0    0 -0.46523377678E+02  0.74043089996E+02  0.35382324197E+02  0.94332988463E+02  0.00000000000E+00 0. -1.
</event>
<event>
 7    1  0.2564986E-009  0.1160970E+03  0.7561462E-02  0.1249678E+00
         -2   -1    0    0    0  501 -0.00000000000E+00  0.00000000000E+00  0.16805761896E+03  0.16805761896E+03  0.00000000000E+00 0.  1.
          2   -1    0    0  501    0  0.00000000000E+00 -0.00000000000E+00 -0.88358818739E+02  0.88358818739E+02  0.00000000000E+00 0. -1.
         25    2    1    2    0    0 -0.49765970853E+02 -0.91204454744E+01  0.41015377495E+02  0.14103327493E+03  0.12509312158E+03 0.  0.
          5    1    3    3  502    0  0.30099816557E+02  0.32574623792E+02  0.99925062435E+01  0.45655532557E+02  0.41800000000E+01 0. -1.
         -5    1    3    3    0  502 -0.79865787410E+02 -0.41695069267E+02  0.31022871251E+02  0.95377742375E+02  0.41800000000E+01 0. -1.
        -11    1    1    2    0    0  0.68514145337E+02  0.24951260095E+02  0.49948167593E+02  0.88383103235E+02  0.00000000000E+00 0. -1.
         11    1    1    2    0    0 -0.18748174484E+02 -0.15830814620E+02 -0.11264744864E+02  0.27000059535E+02  0.00000000000E+00 0.  1.
</event>
<event>
 7    1  0.2564986E-009  0.1563266E+03  0.7561462E-02  0.1192908E+00
          1   -1    0    0  501    0  0.00000000000E+00  0.00000000000E+00  0.86914637102E+03  0.86914637102E+03  0.00000000000E+00 0. -1.
         -1   -1    0    0    0  501 -0.00000000000E+00 -0.00000000000E+00 -0.48307407492E+02  0.48307407492E+02  0.00000000000E+00 0.  1.
         25    2    1    2    0    0  0.12688794859E+03 -0.44671037208E+02  0.66755882825E+03  0.69237082567E+03  0.12508604239E+03 0.  0.
          5    1    3    3  502    0  0.81090349646E+01 -0.57561914487E+02  0.30778941945E+03  0.31325856664E+03  0.41800000000E+01 0.  1.
         -5    1    3    3    0  502  0.11877891362E+03  0.12890877279E+02  0.35976940880E+03  0.37911225903E+03  0.41800000000E+01 0.  1.
        -11    1    1    2    0    0 -0.41189718803E+02  0.10064572909E+02  0.11930217743E+03  0.12661318297E+03  0.00000000000E+00 0. -1.
         11    1    1    2    0    0 -0.85698229785E+02  0.34606464299E+02  0.33977957856E+02  0.98469769877E+02  0.00000000000E+00 0.  1.
</event>
<event>
 7    1  0.2564986E-009  0.1126967E+03  0.7561462E-02  0.1255656E+00
         -1   -1    0    0    0  501 -0.00000000000E+00  0.00000000000E+00  0.22432962134E+03  0.22432962134E+03  0.00000000000E+00 0.  1.
          1   -1    0    0  501    0  0.00000000000E+00 -0.00000000000E+00 -0.77063962572E+02  0.77063962572E+02  0.00000000000E+00 0. -1.
         25    2    1    2    0    0 -0.65435227304E+02  0.26935530801E+02  0.62627147545E+02  0.15675745103E+03  0.12507376645E+03 0.  0.
          5    1    3    3  502    0  0.80464518110E+01  0.40927277776E+02 -0.18944932843E+02  0.46001851412E+02  0.41800000000E+01 0.  1.
         -5    1    3    3    0  502 -0.73481679115E+02 -0.13991746975E+02  0.81572080387E+02  0.11075559962E+03  0.41800000000E+01 0.  1.
        -11    1    1    2    0    0  0.73624010841E+02 -0.46683142182E+02  0.86958592320E+02  0.12313247953E+03  0.00000000000E+00 0. -1.
         11    1    1    2    0    0 -0.81887835369E+01  0.19747611381E+02 -0.23200810968E+01  0.21503653349E+02  0.00000000000E+00 0.  1.
</event>
<event>
 7    1  0.2564986E-009  0.1173658E+03  0.7561462E-02  0.1247507E+00
          1   -1    0    0  501    0  0.00000000000E+00  0.00000000000E+00  0.38437623367E+02  0.38437623367E+02  0.00000000000E+00 0. -1.
         -1   -1    0    0    0  501 -0.00000000000E+00 -0.00000000000E+00 -0.41388330778E+03  0.41388330778E+03  0.00000000000E+00 0.  1.
         25    2    1    2    0    0  0.31196173971E+02 -0.35648412108E+02 -0.13592721259E+03  0.19069939647E+03  0.12508414022E+03 0.  0.
          5    1    3    3  502    0 -0.45651620210E+02 -0.32023395454E+02 -0.67490612467E+02  0.87647153150E+02  0.41800000000E+01 0.  1.
         -5    1    3    3    0  502  0.76847794181E+02 -0.36250166543E+01 -0.68436600123E+02  0.10305224332E+03  0.41800000000E+01 0.  1.
        -11    1    1    2    0    0  0.31773350989E+02  0.17293820722E+02 -0.55359301538E+02  0.66130736689E+02  0.00000000000E+00 0.  1.
         11    1    1    2    0    0 -0.62969524960E+02  0.18354591386E+02 -0.18415917028E+03  0.19549079799E+03  0.00000000000E+00 0. -1.
</event>
<event>
 7    1  0.2564986E-009  0.9046308E+02  0.7561462E-02  0.1301734E+00
          1   -1    0    0  501    0  0.00000000000E+00  0.00000000000E+00  0.10545555681E+03  0.10545555681E+03  0.00000000000E+00 0. -1.
         -1   -1    0    0    0  501 -0.00000000000E+00 -0.00000000000E+00 -0.10936022940E+03  0.10936022940E+03  0.00000000000E+00 0.  1.
         25    2    1    2    0    0  0.58956120371E+00  0.87271303765E+01  0.17997957296E+02  0.12667714879E+03  0.12508662267E+03 0.  0.
          5    1    3    3  502    0 -0.32728168211E+02 -0.33472309869E+02 -0.28928995390E+02  0.55189561483E+02  0.41800000000E+01 0. -1.
         -5    1    3    3    0  502  0.33317729414E+02  0.42199440245E+02  0.46926952687E+02  0.71487587306E+02  0.41800000000E+01 0. -1.
        -11    1    1    2    0    0 -0.36119215992E+02  0.12957270548E+02 -0.25941495122E+02  0.46319000347E+02  0.00000000000E+00 0.  1.
         11    1    1    2    0    0  0.35529654789E+02 -0.21684400924E+02  0.40388652343E+01  0.41819637077E+02  0.00000000000E+00 0. -1.
</event>
<event>
 7    1  0.2564986E-009  0.8005085E+02  0.7561462E-02  0.1328907E+00
          3   -1    0    0  501    0  0.00000000000E+00  0.00000000000E+00  0.50807617207E+02  0.50807617207E+02  0.00000000000E+00 0. -1.
         -3   -1    0    0    0  501 -0.00000000000E+00 -0.00000000000E+00 -0.28659315258E+03  0.28659315258E+03  0.00000000000E+00 0.  1.
         25    2    1    2    0    0  0.45676321677E+02 -0.12854864844E+02 -0.13607511907E+03  0.19082924630E+03  0.12509112400E+03 0.  0.
          5    1    3    3  502    0  0.22670357222E+02  0.66327188252E+01 -0.15376411176E+03  0.15562394585E+03  0.41800000000E+01 0. -1.
         -5    1    3    3    0  502  0.23005964456E+02 -0.19487583669E+02  0.17688992694E+02  0.35205300458E+02  0.41800000000E+01 0. -1.
        -11    1    1    2    0    0 -0.74647636046E+02  0.16576295497E+02 -0.83271897247E+02  0.11305419944E+03  0.00000000000E+00 0.  1.
         11    1    1    2    0    0  0.28971314368E+02 -0.37214306525E+01 -0.16438519066E+02  0.33517324049E+02  0.00000000000E+00 0. -1.
</event>
<event>
 7    1  0.2564986E-009  0.1477836E+03  0.7561462E-02  0.1203223E+00
         -2   -1    0    0    0  501 -0.00000000000E+00  0.00000000000E+00  0.59465411927E+02  0.59465411927E+02  0.00000000000E+00 0.  1.
          2   -1    0    0  501    0  0.00000000000E+00 -0.00000000000E+00 -0.62437413064E+03  0.62437413064E+03  0.00000000000E+00 0. -1.
         25    2    1    2    0    0 -0.96576536131E+02 -0.58353329807E+02 -0.99120025253E+02  0.19545943569E+03  0.12508986035E+03 0.  0.
          5    1    3    3  502    0  0.29515838192E-01 -0.60532573537E+02 -0.73680482949E+02  0.95448830783E+02  0.41800000000E+01 0. -1.
         -5    1    3    3    0  502 -0.96606051970E+02  0.21792437300E+01 -0.25439542304E+02  0.10001060490E+03  0.41800000000E+01 0. -1.
        -11    1    1    2    0    0  0.86789823924E+02  0.77699395515E+02 -0.43747781274E+03  0.45272122354E+03  0.00000000000E+00 0. -1.
         11    1    1    2    0    0  0.97867122073E+01 -0.19346065708E+02 -0.28310880718E+02  0.35658883342E+02  0.00000000000E+00 0.  1.
</event>
<event>
 7    1  0.2564986E-009  0.1080575E+03  0.7561462E-02  0.1264210E+00
          1   -1    0    0  501    0  0.00000000000E+00  0.00000000000E+00  0.14644804072E+03  0.14644804072E+03  0.00000000000E+00 0. -1.
         -1   -1    0    0    0  501 -0.00000000000E+00 -0.00000000000E+00 -0.92875401192E+02  0.92875401192E+02  0.00000000000E+00 0.  1.
         25    2    1    2    0    0 -0.25132875268E+02 -0.99574559669E+01 -0.65360491920E+01  0.12814488972E+03  0.12509028928E+03 0.  0.
          5    1    3    3  502    0 -0.34698627822E+02 -0.63772940641E+02  0.15189157618E+01  0.72737625998E+02  0.41800000000E+01 0. -1.
         -5    1    3    3    0  502  0.95657525534E+01  0.53815484674E+02 -0.80549649539E+01  0.55407263720E+02  0.41800000000E+01 0. -1.
        -11    1    1    2    0    0  0.45013873118E+02 -0.22644779499E+02  0.16068686667E+02  0.52888916635E+02  0.00000000000E+00 0. -1.
         11    1    1    2    0    0 -0.19880997850E+02  0.32602235465E+02  0.44040002056E+02  0.58289635562E+02  0.00000000000E+00 0.  1.
</event>
<event>
 7    1  0.2564986E-009  0.1071120E+03  0.7561462E-02  0.1266013E+00
         -4   -1    0    0    0  501 -0.00000000000E+00  0.00000000000E+00  0.45090409109E+03  0.45090409109E+03  0.00000000000E+00 0.  1.
          4   -1    0    0  501    0  0.00000000000E+00 -0.00000000000E+00 -0.41563895219E+02  0.41563895219E+02  0.00000000000E+00 0. -1.
         25    2    1    2    0    0 -0.56613488982E+02  0.18823462844E+02  0.33099262901E+03  0.35883544021E+03  0.12508933929E+03 0.  0.
          5    1    3    3  502    0  0.32726894498E+02 -0.13232609495E+02  0.44235104423E+02  0.56748290202E+02  0.41800000000E+01 0. -1.
         -5    1    3    3    0  502 -0.89340383480E+02  0.32056072340E+02  0.28675752459E+03  0.30208715001E+03  0.41800000000E+01 0. -1.
        -11    1    1    2    0    0  0.42480841944E+02  0.16537821840E+02 -0.10246028284E+01  0.45597930813E+02  0.00000000000E+00 0.  1.
         11    1    1    2    0    0  0.14132647038E+02 -0.35361284684E+02  0.79372169689E+02  0.88034615283E+02  0.00000000000E+00 0. -1.
</event>
<event>
 7    1  0.2564986E-009  0.1513178E+03  0.7561462E-02  0.1198863E+00
         -1   -1    0    0    0  501 -0.00000000000E+00  0.00000000000E+00  0.14153886932E+03  0.14153886932E+03  0.00000000000E+00 0.  1.
          1   -1    0    0  501    0  0.00000000000E+00 -0.00000000000E+00 -0.26116831973E+03  0.26116831973E+03  0.00000000000E+00 0. -1.
         25    2    1    2    0    0  0.72371644673E+02  0.84489046312E+02  0.54825240711E+02  0.17615262506E+03  0.12509151208E+03 0.  0.
          5    1    3    3  502    0  0.91615281540E+02  0.12895267052E+02  0.23395692340E+02  0.95522136409E+02  0.41800000000E+01 0. -1.
         -5    1    3    3    0  502 -0.19243636867E+02  0.71593779260E+02  0.31429548371E+02  0.80630488646E+02  0.41800000000E+01 0. -1.
        -11    1    1    2    0    0  0.69301271763E+01 -0.47962419910E+02 -0.27773633490E+02  0.55855126028E+02  0.00000000000E+00 0.  1.
         11    1    1    2    0    0 -0.79301771850E+02 -0.36526626402E+02 -0.14668105763E+03  0.17069943797E+03  0.00000000000E+00 0. -1.
</event>
<event>
 7    1  0.2564986E-009  0.1150394E+03  0.7561462E-02  0.1251512E+00
         -2   -1    0    0    0  501 -0.00000000000E+00  0.00000000000E+00  0.49489300494E+02  0.49489300494E+02  0.00000000000E+00 0.  1.
          2   -1    0    0  501    0  0.00000000000E+00 -0.00000000000E+00 -0.42162679037E+03  0.42162679037E+03  0.00000000000E+00 0. -1.
         25    2    1    2    0    0 -0.11194675893E+02  0.93173570709E+02 -0.18061233334E+03  0.23890416186E+03  0.12509096113E+03 0.  0.
          5    1    3    3  502    0 -0.27520759580E+02  0.32931911145E+02  0.46456855477E+01  0.43370010073E+02  0.41800000000E+01 0.  1.
         -5    1    3    3    0  502  0.16326083686E+02  0.60241659565E+02 -0.18525801888E+03  0.19553415179E+03  0.41800000000E+01 0.  1.
        -11    1    1    2    0    0  0.44326683211E+02 -0.31450900392E+02 -0.12178669953E+03  0.13336421620E+03  0.00000000000E+00 0.  1.
         11    1    1    2    0    0 -0.33132007317E+02 -0.61722670317E+02 -0.69738457007E+02  0.98847712800E+02  0.00000000000E+00 0. -1.
</event>
<event>
 7    1  0.2942490E-009  0.1036252E+03  0.7561462E-02  0.1272852E+00
         -2   -1    0    0    0  501 -0.00000000000E+00  0.00000000000E+00  0.16679898410E+02  0.16679898410E+02  0.00000000000E+00 0.  1.
          2   -1    0    0  501    0  0.00000000000E+00 -0.00000000000E+00 -0.87410276035E+03  0.87410276035E+03  0.00000000000E+00 0. -1.
         25    2    1    2    0    0  0.10471655960E+02  0.14488930481E+02 -0.66744719520E+03  0.67930485026E+03  0.12509890696E+03 0.  0.
          5    1    3    3  502    0 -0.38247298976E+02  0.46774811426E+02 -0.45169541158E+03  0.45573781509E+03  0.41800000000E+01 0. -1.
         -5    1    3    3    0  502  0.48718954937E+02 -0.32285880945E+02 -0.21575178362E+03  0.22356703516E+03  0.41800000000E+01 0. -1.
        -11    1    1    2    0    0  0.18418310757E+02  0.29905655806E+02 -0.44701887881E+02  0.56849284960E+02  0.00000000000E+00 0.  1.
         11    1    1    2    0    0 -0.28889966718E+02 -0.44394586286E+02 -0.14527377886E+03  0.15462852354E+03  0.00000000000E+00 0. -1.
</event>
<event>
 7    1  0.2564986E-009  0.1265903E+03  0.7561462E-02  0.1232605E+00
         -3   -1    0    0    0  501 -0.00000000000E+00  0.00000000000E+00  0.30165137193E+03  0.30165137193E+03  0.00000000000E+00 0.  1.
          3   -1    0    0  501    0  0.00000000000E+00 -0.00000000000E+00 -0.55133632271E+02  0.55133632271E+02  0.00000000000E+00 0. -1.
         25    2    1    2    0    0  0.14717590824E+02  0.69869147484E+02  0.13085228379E+03  0.19460174692E+03  0.12509682043E+03 0.  0.
          5    1    3    3  502    0 -0.51361183313E+01 -0.33949807161E+02  0.52877690461E+02  0.63186166732E+02  0.41800000000E+01 0. -1.
         -5    1    3    3    0  502  0.19853709156E+02  0.10381895464E+03  0.77974593325E+02  0.13141558018E+03  0.41800000000E+01 0. -1.
        -11    1    1    2    0    0 -0.46663479825E+02 -0.14465599162E+02  0.40231644723E+02  0.63287590771E+02  0.00000000000E+00 0.  1.
         11    1    1    2    0    0  0.31945889001E+02 -0.55403548322E+02  0.75433811148E+02  0.98895666512E+02  0.00000000000E+00 0. -1.
</event>
<event>
 7    1  0.2564986E-009  0.3346955E+03  0.7561462E-02  0.1069078E+00
         -1   -1    0    0    0  501 -0.00000000000E+00  0.00000000000E+00  0.82764207544E+03  0.82764207544E+03  0.00000000000E+00 0.  1.
          1   -1    0    0  501    0  0.00000000000E+00 -0.00000000000E+00 -0.20720106111E+03  0.20720106111E+03  0.00000000000E+00 0. -1.
         25    2    1    2    0    0  0.18550189169E+03  0.26725224911E+03  0.60346017631E+03  0.69688322250E+03  0.12508926785E+03 0.  0.
          5    1    3    3  502    0 -0.62738128480E+01  0.36830403459E+02  0.24425733485E+02  0.44832222819E+02  0.41800000000E+01 0.  1.
         -5    1    3    3    0  502  0.19177570454E+03  0.23042184566E+03  0.57903444283E+03  0.65205099968E+03  0.41800000000E+01 0.  1.
        -11    1    1    2    0    0 -0.13176302019E+03 -0.13229336292E+03  0.39808016297E+02  0.19091282179E+03  0.00000000000E+00 0.  1.
         11    1    1    2    0    0 -0.53738871499E+02 -0.13495888620E+03 -0.22827178274E+02  0.14704709226E+03  0.00000000000E+00 0. -1.
</event>
<event>
 7    1  0.2564986E-009  0.8904056E+02  0.7561462E-02  0.1305192E+00
          3   -1    0    0  501    0  0.00000000000E+00  0.00000000000E+00  0.47434425535E+02  0.47434425535E+02  0.00000000000E+00 0. -1.
         -3   -1    0    0    0  501 -0.00000000000E+00 -0.00000000000E+00 -0.33665403019E+03  0.33665403019E+03  0.00000000000E+00 0.  1.
         25    2    1    2    0    0  0.19608074590E+02  0.92680328972E+01 -0.23955843488E+03  0.27111908727E+03  0.12508774016E+03 0.  0.
          5    1    3    3  502    0  0.17325926119E+02 -0.36539364229E+02 -0.17373203485E+02  0.44211010545E+02  0.41800000000E+01 0. -1.
         -5    1    3    3    0  502  0.22821484710E+01  0.45807397126E+02 -0.22218523139E+03  0.22690807672E+03  0.41800000000E+01 0. -1.
        -11    1    1    2    0    0 -0.54189183097E+02 -0.15212628318E+02 -0.54805345182E+01  0.56550224435E+02  0.00000000000E+00 0. -1.
         11    1    1    2    0    0  0.34581108507E+02  0.59445954203E+01 -0.44180635257E+02  0.56419144020E+02  0.00000000000E+00 0.  1.
</event>
<event>
 7    1  0.2564986E-009  0.1875150E+03  0.7561462E-02  0.1160722E+00
          2   -1    0    0  501    0  0.00000000000E+00  0.00000000000E+00  0.23041326130E+03  0.23041326130E+03  0.00000000000E+00 0. -1.
         -2   -1    0    0    0  501 -0.00000000000E+00 -0.00000000000E+00 -0.23241595040E+03  0.23241595040E+03  0.00000000000E+00 0.  1.
         25    2    1    2    0    0  0.13550899973E+03  0.12517265477E+03 -0.88356919538E+02  0.23975906344E+03  0.12508629326E+03 0.  0.
          5    1    3    3  502    0  0.69686599479E+02  0.41771996232E+02  0.24242824291E+02  0.84889980243E+02  0.41800000000E+01 0. -1.
         -5    1    3    3    0  502  0.65822400256E+02  0.83400658537E+02 -0.11259974383E+03  0.15486908320E+03  0.41800000000E+01 0. -1.
        -11    1    1    2    0    0 -0.67147572654E+02 -0.40096588898E+02 -0.82420288883E+01  0.78641363129E+02  0.00000000000E+00 0.  1.
         11    1    1    2    0    0 -0.68361427080E+02 -0.85076065871E+02  0.94596259323E+02  0.14442878513E+03  0.00000000000E+00 0. -1.
</event>
<event>
 7    1  0.2564986E-009  0.1336731E+03  0.7561462E-02  0.1222105E+00
         -4   -1    0    0    0  501 -0.00000000000E+00  0.00000000000E+00  0.88176051961E+02  0.88176051961E+02  0.00000000000E+00 0. -1.
          4   -1    0    0  501    0  0.00000000000E+00 -0.00000000000E+00 -0.22643513435E+03  0.22643513435E+03  0.00000000000E+00 0.  1.
         25    2    1    2    0    0 -0.81670205705E+02  0.38695015302E+02 -0.57731219908E+02  0.16476244514E+03  0.12508574206E+03 0.  0.
          5    1    3    3  502    0 -0.10307349069E+03  0.54774112916E+02 -0.20292236806E+02  0.11854786039E+03  0.41800000000E+01 0.  1.
         -5    1    3    3    0  502  0.21403284981E+02 -0.16079097614E+02 -0.37438983101E+02  0.46214584751E+02  0.41800000000E+01 0.  1.
        -11    1    1    2    0    0  0.33759102220E+02 -0.61679928979E+02 -0.29748721767E+02  0.76348392703E+02  0.00000000000E+00 0. -1.
         11    1    1    2    0    0  0.47911103485E+02  0.22984913677E+02 -0.50779140718E+02  0.73500348475E+02  0.00000000000E+00 0.  1.
</event>
<event>
 7    1  0.2564986E-009  0.7880682E+02  0.7561462E-02  0.1332472E+00
          1   -1    0    0  501    0  0.00000000000E+00  0.00000000000E+00  0.10974637171E+04  0.10974637171E+04  0.00000000000E+00 0. -1.
         -1   -1    0    0    0  501 -0.00000000000E+00 -0.00000000000E+00 -0.12130302248E+02  0.12130302248E+02  0.00000000000E+00 0.  1.
         25    2    1    2    0    0 -0.27154718487E+02 -0.30780201418E+02  0.61612489820E+03  0.63003319056E+03  0.12508849466E+03 0.  0.
          5    1    3    3  502    0 -0.35178159157E+02 -0.35370300877E+02  0.83816037518E+02  0.97627668266E+02  0.41800000000E+01 0. -1.
         -5    1    3    3    0  502  0.80234406704E+01  0.45900994590E+01  0.53230886068E+03  0.53240552230E+03  0.41800000000E+01 0. -1.
        -11    1    1    2    0    0  0.24709137291E+02 -0.28703892473E+02  0.14109057158E+03  0.14608560606E+03  0.00000000000E+00 0.  1.
         11    1    1    2    0    0  0.24455811957E+01  0.59484093891E+02  0.32811794510E+03  0.33347522275E+03  0.00000000000E+00 0. -1.
</event>
<event>
 7    1  0.2564986E-009  0.1422417E+03  0.7561462E-02  0.1210344E+00
          1   -1    0    0  501    0  0.00000000000E+00  0.00000000000E+00  0.13053178106E+04  0.13053178106E+04  0.00000000000E+00 0. -1.
         -1   -1    0    0    0  501 -0.00000000000E+00 -0.00000000000E+00 -0.42576009179E+02  0.42576009179E+02  0.00000000000E+00 0.  1.
         25    2    1    2    0    0  0.63538155044E+02 -0.11046988305E+03  0.11317907986E+04  0.11457915599E+04  0.12508874771E+03 0.  0.
          5    1    3    3  502    0  0.47917005458E+02 -0.51834462717E+01  0.13654862073E+03  0.14486512952E+03  0.41800000000E+01 0. -1.
         -5    1    3    3    0  502  0.15621149587E+02 -0.10528643678E+03  0.99524217783E+03  0.10009264304E+04  0.41800000000E+01 0. -1.
        -11    1    1    2    0    0 -0.58550667791E+02  0.82450156360E+02  0.43404955238E+02  0.11004634988E+03  0.00000000000E+00 0.  1.
         11    1    1    2    0    0 -0.49874872536E+01  0.28019726689E+02  0.87546047601E+02  0.92055909987E+02  0.00000000000E+00 0. -1.
</event>
<event>
 7    1  0.2564986E-009  0.9394554E+02  0.7561462E-02  0.1293569E+00
          2   -1    0    0  501    0  0.00000000000E+00  0.00000000000E+00  0.30542857758E+03  0.30542857758E+03  0.00000000000E+00 0. -1.
         -2   -1    0    0    0  501 -0.00000000000E+00 -0.00000000000E+00 -0.41557647631E+02  0.41557647631E+02  0.00000000000E+00 0.  1.
         25    2    1    2    0    0  0.29520799019E+02  0.10604143837E+02  0.14642161279E+03  0.19511672648E+03  0.12508925940E+03 0.  0.
          5    1    3    3  502    0 -0.25500526634E+02  0.46291266084E+02  0.28674432988E+02  0.60273158880E+02  0.41800000000E+01 0. -1.
         -5    1    3    3    0  502  0.55021325654E+02 -0.35687122247E+02  0.11774717980E+03  0.13484356760E+03  0.41800000000E+01 0. -1.
        -11    1    1    2    0    0  0.14902674701E+02 -0.18797777668E+02 -0.20903734171E+01  0.24079365015E+02  0.00000000000E+00 0.  1.
         11    1    1    2    0    0 -0.44423473720E+02  0.81936338308E+01  0.11953969058E+03  0.12779013372E+03  0.00000000000E+00 0. -1.
</event>
<event>
 7    1  0.2564986E-009  0.1057503E+03  0.7561462E-02  0.1268648E+00
          1   -1    0    0  501    0  0.00000000000E+00  0.00000000000E+00  0.84730107133E+02  0.84730107133E+02  0.00000000000E+00 0. -1.
         -1   -1    0    0    0  501 -0.00000000000E+00 -0.00000000000E+00 -0.14811275338E+03  0.14811275338E+03  0.00000000000E+00 0.  1.
         25    2    1    2    0    0  0.22845225138E+02 -0.13565468545E+02 -0.14506395713E+02  0.12869270776E+03  0.12508177831E+03 0.  0.
          5    1    3    3  502    0  0.13836781715E+02 -0.68236773618E+02 -0.20763033145E+02  0.72775612312E+02  0.41800000000E+01 0. -1.
         -5    1    3    3    0  502  0.90084434223E+01  0.54671305072E+02  0.62566374316E+01  0.55917095446E+02  0.41800000000E+01 0. -1.
        -11    1    1    2    0    0  0.15626426974E+02  0.37671391631E+02 -0.51331981039E+01  0.41105579793E+02  0.00000000000E+00 0.  1.
         11    1    1    2    0    0 -0.38471652112E+02 -0.24105923085E+02 -0.43743052428E+02  0.63044572960E+02  0.00000000000E+00 0. -1.
</event>
<event>
 7    1  0.2564986E-009  0.8833823E+02  0.7561462E-02  0.1306927E+00
         -2   -1    0    0    0  501 -0.00000000000E+00  0.00000000000E+00  0.19772832226E+03  0.19772832226E+03  0.00000000000E+00 0.  1.
          2   -1    0    0  501    0  0.00000000000E+00 -0.00000000000E+00 -0.92070468163E+02  0.92070468163E+02  0.00000000000E+00 0. -1.
         25    2    1    2    0    0  0.22253995335E+02 -0.48915996314E+02 -0.38994469925E+01  0.13620506750E+03  0.12509436327E+03 0.  0.
          5    1    3    3  502    0  0.26487045592E+01  0.77932998979E+01 -0.55923099313E+02  0.56679948800E+02  0.41800000000E+01 0.  1.
         -5    1    3    3    0  502  0.19605290776E+02 -0.56709296212E+02  0.52023652321E+02  0.79525118699E+02  0.41800000000E+01 0.  1.
        -11    1    1    2    0    0 -0.49521348279E+02 -0.19754724838E+01  0.44445811746E+02  0.66570989242E+02  0.00000000000E+00 0.  1.
         11    1    1    2    0    0  0.27267352944E+02  0.50891468798E+02  0.65111489342E+02  0.87022733681E+02  0.00000000000E+00 0. -1.
</event>
<event>
 7    1  0.2564986E-009  0.9571007E+02  0.7561462E-02  0.1289585E+00
         -2   -1    0    0    0  501 -0.00000000000E+00  0.00000000000E+00  0.45418483797E+02  0.45418483797E+02  0.00000000000E+00 0.  1.
          2   -1    0    0  501    0  0.00000000000E+00 -0.00000000000E+00 -0.29598842987E+03  0.29598842987E+03  0.00000000000E+00 0. -1.
         25    2    1    2    0    0 -0.26338723343E+02 -0.90156704396E+01 -0.98740779039E+02  0.16177418111E+03  0.12508450571E+03 0.  0.
          5    1    3    3  502    0 -0.44537066905E+02  0.36217100764E+02 -0.97021208257E+02  0.11280875838E+03  0.41800000000E+01 0.  1.
         -5    1    3    3    0  502  0.18198343562E+02 -0.45232771204E+02 -0.17195707823E+01  0.48965422727E+02  0.41800000000E+01 0.  1.
        -11    1    1    2    0    0  0.24876916657E+02  0.43662013570E+02 -0.12812729502E+03  0.13762934332E+03  0.00000000000E+00 0. -1.
         11    1    1    2    0    0  0.14618066863E+01 -0.34646343131E+02 -0.23701872016E+02  0.42003389246E+02  0.00000000000E+00 0.  1.
</event>
<event>
 7    1  0.2564986E-009  0.1181876E+03  0.7561462E-02  0.1246117E+00
         -1   -1    0    0    0  501 -0.00000000000E+00  0.00000000000E+00  0.14772845999E+03  0.14772845999E+03  0.00000000000E+00 0.  1.
          1   -1    0    0  501    0  0.00000000000E+00 -0.00000000000E+00 -0.13203879598E+03  0.13203879598E+03  0.00000000000E+00 0. -1.
         25    2    1    2    0    0 -0.30725899510E+02 -0.83007951594E+02  0.20584780436E+02  0.15460059160E+03  0.12507281403E+03 0.  0.
          5    1    3    3  502    0 -0.52518477791E+02 -0.53519615281E+02 -0.38916096411E+02  0.84584127880E+02  0.41800000000E+01 0. -1.
         -5    1    3    3    0  502  0.21792578281E+02 -0.29488336313E+02  0.59500876848E+02  0.70016463723E+02  0.41800000000E+01 0. -1.
        -11    1    1    2    0    0  0.35445595860E+02 -0.53845231940E+01 -0.74211106984E+01  0.36612241667E+02  0.00000000000E+00 0. -1.
         11    1    1    2    0    0 -0.47196963498E+01  0.88392474789E+02  0.25259942717E+01  0.88554422701E+02  0.00000000000E+00 0.  1.
</event>
<event>
 7    1  0.2564986E-009  0.1436293E+03  0.7561462E-02  0.1208527E+00
          1   -1    0    0  501    0  0.00000000000E+00  0.00000000000E+00  0.74729045383E+03  0.74729045383E+03  0.00000000000E+00 0. -1.
         -1   -1    0    0    0  501 -0.00000000000E+00 -0.00000000000E+00 -0.33530687225E+02  0.33530687225E+02  0.00000000000E+00 0.  1.
         25    2    1    2    0    0 -0.89029273314E+02  0.66060003931E+02  0.48408871762E+03  0.51213296678E+03  0.12509257975E+03 0.  0.
          5    1    3    3  502    0 -0.11277558191E+03  0.80878637711E+02  0.40074969140E+03  0.42411964523E+03  0.41800000000E+01 0. -1.
         -5    1    3    3    0  502  0.23746308594E+02 -0.14818633780E+02  0.83339026228E+02  0.88013321557E+02  0.41800000000E+01 0. -1.
        -11    1    1    2    0    0  0.89903532661E+01 -0.31810092551E+02  0.13612647138E+02  0.35749302120E+02  0.00000000000E+00 0.  1.
         11    1    1    2    0    0  0.80038920048E+02 -0.34249911380E+02  0.21605840185E+03  0.23293887215E+03  0.00000000000E+00 0. -1.
</event>
<event>
 7    1  0.2564986E-009  0.8156466E+02  0.7561462E-02  0.1324669E+00
          2   -1    0    0  501    0  0.00000000000E+00  0.00000000000E+00  0.16656635441E+03  0.16656635441E+03  0.00000000000E+00 0.  1.
         -2   -1    0    0    0  501 -0.00000000000E+00 -0.00000000000E+00 -0.11046346546E+03  0.11046346546E+03  0.00000000000E+00 0. -1.
         25    2    1    2    0    0  0.53064566605E+01 -0.49358994272E+02  0.95528285260E+02  0.16503541031E+03  0.12508622856E+03 0.  0.
          5    1    3    3  502    0  0.37277019645E+02  0.28980412722E+00 -0.14399567160E+02  0.40180593754E+02  0.41800000000E+01 0. -1.
         -5    1    3    3    0  502 -0.31970562985E+02 -0.49648798399E+02  0.10992785242E+03  0.12485481656E+03  0.41800000000E+01 0. -1.
        -11    1    1    2    0    0 -0.21034324992E+02  0.85905796188E+01 -0.59659772263E+02  0.63839872435E+02  0.00000000000E+00 0. -1.
         11    1    1    2    0    0  0.15727868331E+02  0.40768414653E+02  0.20234375956E+02  0.48154537127E+02  0.00000000000E+00 0.  1.
</event>
<event>
 7    1  0.2564986E-009  0.1277765E+03  0.7561462E-02  0.1230793E+00
         -2   -1    0    0    0  501 -0.00000000000E+00  0.00000000000E+00  0.82136742784E+02  0.82136742784E+02  0.00000000000E+00 0.  1.
          2   -1    0    0  501    0  0.00000000000E+00 -0.00000000000E+00 -0.21293484710E+03  0.21293484710E+03  0.00000000000E+00 0. -1.
         25    2    1    2    0    0  0.10240063999E+02 -0.70098752823E+02 -0.96850118340E+02  0.17334332890E+03  0.12509704311E+03 0.  0.
          5    1    3    3  502    0 -0.55283903354E+02 -0.13474638597E+02 -0.39239544688E+02  0.69246589249E+02  0.41800000000E+01 0.  1.
         -5    1    3    3    0  502  0.65523967353E+02 -0.56624114226E+02 -0.57610573652E+02  0.10409673965E+03  0.41800000000E+01 0.  1.
        -11    1    1    2    0    0 -0.48394798640E+02  0.32976363773E+02 -0.35481623940E+02  0.68472204145E+02  0.00000000000E+00 0. -1.
         11    1    1    2    0    0  0.38154734642E+02  0.37122389050E+02  0.15336379662E+01  0.53256056836E+02  0.00000000000E+00 0.  1.
</event>
<event>
 7    1  0.2564986E-009  0.1072411E+03  0.7561462E-02  0.1265766E+00
         -2   -1    0    0    0  501 -0.00000000000E+00  0.00000000000E+00  0.30444330616E+02  0.30444330616E+02  0.00000000000E+00 0.  1.
          2   -1    0    0  501    0  0.00000000000E+00 -0.00000000000E+00 -0.48555357520E+03  0.48555357520E+03  0.00000000000E+00 0. -1.
         25    2    1    2    0    0  0.21459409731E+02  0.35213467296E+02 -0.33572895673E+03  0.36064100836E+03  0.12509000750E+03 0.  0.
          5    1    3    3  502    0 -0.66955513271E+01 -0.40246006015E+02 -0.55320785336E+02  0.68865325803E+02  0.41800000000E+01 0. -1.
         -5    1    3    3    0  502  0.28154961058E+02  0.75459473311E+02 -0.28040817139E+03  0.29177568255E+03  0.41800000000E+01 0. -1.
        -11    1    1    2    0    0  0.13491086448E+02  0.21981755855E+02 -0.11253873349E+02  0.28139947928E+02  0.00000000000E+00 0. -1.
         11    1    1    2    0    0 -0.34950496179E+02 -0.57195223152E+02 -0.10812641450E+03  0.12721694953E+03  0.00000000000E+00 0.  1.
</event>
<event>
 7    1  0.2564986E-009  0.7646578E+02  0.7561462E-02  0.1339391E+00
         -2   -1    0    0    0  501 -0.00000000000E+00  0.00000000000E+00  0.31704817388E+02  0.31704817388E+02  0.00000000000E+00 0. -1.
          2   -1    0    0  501    0  0.00000000000E+00 -0.00000000000E+00 -0.40744807560E+03  0.40744807560E+03  0.00000000000E+00 0.  1.
         25    2    1    2    0    0  0.38728720089E+00  0.98948387077E+01 -0.14787880414E+03  0.19394452713E+03  0.12509308961E+03 0.  0.
          5    1    3    3  502    0  0.23030663122E+02 -0.21454354349E+02 -0.15158196664E+03  0.15487177204E+03  0.41800000000E+01 0.  1.
         -5    1    3    3    0  502 -0.22643375922E+02  0.31349193056E+02  0.37031624981E+01  0.39072755097E+02  0.41800000000E+01 0.  1.
        -11    1    1    2    0    0  0.40539127363E+02 -0.19045947118E+01 -0.16391783420E+03  0.16886712142E+03  0.00000000000E+00 0.  1.
         11    1    1    2    0    0 -0.40926414564E+02 -0.79902439959E+01 -0.63946619874E+02  0.76341244432E+02  0.00000000000E+00 0. -1.
</event>
<event>
 7    1  0.2564986E-009  0.1004973E+03  0.7561462E-02  0.1279254E+00
          1   -1    0    0  501    0  0.00000000000E+00  0.00000000000E+00  0.68179613516E+02  0.68179613516E+02  0.00000000000E+00 0. -1.
         -1   -1    0    0    0  501 -0.00000000000E+00 -0.00000000000E+00 -0.23210628677E+03  0.23210628677E+03  0.00000000000E+00 0.  1.
         25    2    1    2    0    0 -0.38095558875E+02 -0.33101426488E+02 -0.97143744013E+02  0.16622402841E+03  0.12508614863E+03 0.  0.
          5    1    3    3  502    0 -0.35416889706E+02  0.16618573527E+02  0.16049858515E+02  0.42492392505E+02  0.41800000000E+01 0. -1.
         -5    1    3    3    0  502 -0.26786691691E+01 -0.49720000015E+02 -0.11319360253E+03  0.12373163590E+03  0.41800000000E+01 0. -1.
        -11    1    1    2    0    0  0.12961525681E+02 -0.35941430916E+02 -0.41374442652E+02  0.56317245219E+02  0.00000000000E+00 0.  1.
         11    1    1    2    0    0  0.25134033193E+02  0.69042857405E+02 -0.25408486585E+02  0.77744626655E+02  0.00000000000E+00 0. -1.
</event>
<event>
 7    1  0.2564986E-009  0.1643510E+03  0.7561462E-02  0.1183870E+00
         -1   -1    0    0    0  501 -0.00000000000E+00  0.00000000000E+00  0.28648921084E+02  0.28648921084E+02  0.00000000000E+00 0.  1.
          1   -1    0    0  501    0  0.00000000000E+00 -0.00000000000E+00 -0.10881760879E+04  0.10881760879E+04  0.00000000000E+00 0. -1.
         25    2    1    2    0    0 -0.33817115433E+02 -0.12512599264E+03 -0.40147952354E+03  0.44003440605E+03  0.12507741346E+03 0.  0.
          5    1    3    3  502    0 -0.75664174427E+02 -0.80547942459E+02 -0.31647176782E+03  0.33523855768E+03  0.41800000000E+01 0.  1.
         -5    1    3    3    0  502  0.41847058994E+02 -0.44578050181E+02 -0.85007755718E+02  0.10479584837E+03  0.41800000000E+01 0.  1.
        -11    1    1    2    0    0 -0.22445734092E+02  0.84494098760E+02 -0.32239799502E+03  0.33404121138E+03  0.00000000000E+00 0. -1.
         11    1    1    2    0    0  0.56262849525E+02  0.40631893879E+02 -0.33564964829E+03  0.34274939159E+03  0.00000000000E+00 0.  1.
</event>
<event>
 7    1  0.2564986E-009  0.1893584E+03  0.7561462E-02  0.1159041E+00
          2   -1    0    0  501    0  0.00000000000E+00  0.00000000000E+00  0.45788227071E+02  0.45788227071E+02  0.00000000000E+00 0. -1.
         -2   -1    0    0    0  501 -0.00000000000E+00 -0.00000000000E+00 -0.89121527306E+03  0.89121527306E+03  0.00000000000E+00 0.  1.
         25    2    1    2    0    0 -0.13768653357E+03  0.75677321194E+02 -0.29030724814E+03  0.35300479162E+03  0.12509774622E+03 0.  0.
          5    1    3    3  502    0 -0.15473180012E+03  0.43624723503E+02 -0.20775032339E+03  0.26272174584E+03  0.41800000000E+01 0. -1.
         -5    1    3    3    0  502  0.17045266542E+02  0.32052597691E+02 -0.82556924749E+02  0.90283045775E+02  0.41800000000E+01 0. -1.
        -11    1    1    2    0    0  0.35551039656E+02 -0.70657124077E+02 -0.23800219850E+03  0.25080141964E+03  0.00000000000E+00 0.  1.
         11    1    1    2    0    0  0.10213549392E+03 -0.50201971176E+01 -0.31711759935E+03  0.33319728888E+03  0.00000000000E+00 0. -1.
</event>
<event>
 7    1  0.3595477E-009  0.1121118E+03  0.7561462E-02  0.1256708E+00
          1   -1    0    0  501    0  0.00000000000E+00  0.00000000000E+00  0.14643857021E+04  0.14643857021E+04  0.00000000000E+00 0. -1.
         -1   -1    0    0    0  501 -0.00000000000E+00 -0.00000000000E+00 -0.12599156863E+02  0.12599156863E+02  0.00000000000E+00 0.  1.
         25    2    1    2    0    0  0.35907505585E+02  0.46345570117E+02  0.11106044585E+04  0.11191634306E+04  0.12508900949E+03 0.  0.
          5    1    3    3  502    0 -0.28643306037E+02 -0.10585097673E+02  0.94228487885E+02  0.99141129722E+02  0.41800000000E+01 0. -1.
         -5    1    3    3    0  502  0.64550811622E+02  0.56930667790E+02  0.10163759706E+04  0.10200223008E+04  0.41800000000E+01 0. -1.
        -11    1    1    2    0    0  0.28135052194E+02 -0.30014856866E+02  0.11278037462E+03  0.12004951351E+03  0.00000000000E+00 0.  1.
         11    1    1    2    0    0 -0.64042557779E+02 -0.16330713251E+02  0.22840171216E+03  0.23777191491E+03  0.00000000000E+00 0. -1.
</event>
<event>
 7    1  0.2564986E-009  0.1338535E+03  0.7561462E-02  0.1221847E+00
          2   -1    0    0  501    0  0.00000000000E+00  0.00000000000E+00  0.13078669101E+04  0.13078669101E+04  0.00000000000E+00 0. -1.
         -2   -1    0    0    0  501 -0.00000000000E+00 -0.00000000000E+00 -0.23448865055E+02  0.23448865055E+02  0.00000000000E+00 0.  1.
         25    2    1    2    0    0  0.75910571774E+02 -0.50831028099E+02  0.10636115793E+04  0.10748325661E+04  0.12509694380E+03 0.  0.
          5    1    3    3  502    0  0.10254381601E+03 -0.15309835916E+02  0.58349918292E+03  0.59265368821E+03  0.41800000000E+01 0. -1.
         -5    1    3    3    0  502 -0.26633244238E+02 -0.35521192183E+02  0.48011239634E+03  0.48217887792E+03  0.41800000000E+01 0. -1.
        -11    1    1    2    0    0  0.27787520314E+01  0.39792448905E+02  0.12919469251E+03  0.13521253280E+03  0.00000000000E+00 0.  1.
         11    1    1    2    0    0 -0.78689323805E+02  0.11038579194E+02  0.91611773287E+02  0.12127067624E+03  0.00000000000E+00 0. -1.
</event>
<event>
 7    1  0.2564986E-009  0.7688497E+02  0.7561462E-02  0.1338131E+00
          1   -1    0    0  501    0  0.00000000000E+00  0.00000000000E+00  0.75548370820E+02  0.75548370820E+02  0.00000000000E+00 0. -1.
         -1   -1    0    0    0  501 -0.00000000000E+00 -0.00000000000E+00 -0.22742689853E+03  0.22742689853E+03  0.00000000000E+00 0.  1.
         25    2    1    2    0    0  0.20359221723E+02  0.15955642237E+02 -0.16391526221E+03  0.20781047925E+03  0.12509157314E+03 0.  0.
          5    1    3    3  502    0  0.39472031833E+02 -0.29848309039E+02 -0.16696932810E+02  0.52394873936E+02  0.41800000000E+01 0. -1.
         -5    1    3    3    0  502 -0.19112810110E+02  0.45803951276E+02 -0.14721832940E+03  0.15541560531E+03  0.41800000000E+01 0. -1.
        -11    1    1    2    0    0 -0.24229898547E+02 -0.30668938844E+02  0.44551669109E+02  0.59266542112E+02  0.00000000000E+00 0. -1.
         11    1    1    2    0    0  0.38706768241E+01  0.14713296607E+02 -0.32514934607E+02  0.35898247988E+02  0.00000000000E+00 0.  1.
</event>
<event>
 7    1  0.2564986E-009  0.1387100E+03  0.7561462E-02  0.1215075E+00
          1   -1    0    0  501    0  0.00000000000E+00  0.00000000000E+00  0.12812313306E+03  0.12812313306E+03  0.00000000000E+00 0. -1.
         -1   -1    0    0    0  501 -0.00000000000E+00 -0.00000000000E+00 -0.18343573068E+03  0.18343573068E+03  0.00000000000E+00 0.  1.
         25    2    1    2    0    0  0.10474315272E+03  0.24850234077E+02 -0.36178087122E+02  0.16895327346E+03  0.12509073687E+03 0.  0.
          5    1    3    3  502    0  0.11424344446E+03 -0.22478167797E+02 -0.23264942212E+02  0.11880893302E+03  0.41800000000E+01 0.  1.
         -5    1    3    3    0  502 -0.95002917347E+01  0.47328401874E+02 -0.12913144910E+02  0.50144340443E+02  0.41800000000E+01 0.  1.
        -11    1    1    2    0    0 -0.70622442364E+02 -0.64785597099E+00  0.31154630872E+02  0.77191710096E+02  0.00000000000E+00 0. -1.
         11    1    1    2    0    0 -0.34120710359E+02 -0.24202378106E+02 -0.50289141365E+02  0.65413880183E+02  0.00000000000E+00 0.  1.
</event>
<event>
 7    1  0.2564986E-009  0.1213775E+03  0.7561462E-02  0.1240842E+00
          3   -1    0    0  501    0  0.00000000000E+00  0.00000000000E+00  0.56361006184E+02  0.56361006184E+02  0.00000000000E+00 0. -1.
         -3   -1    0    0    0  501 -0.00000000000E+00 -0.00000000000E+00 -0.36910158755E+03  0.36910158755E+03  0.00000000000E+00 0.  1.
         25    2    1    2    0    0  0.33571493726E+02  0.50928127748E+02 -0.63325219221E+02  0.15289802562E+03  0.12508798289E+03 0.  0.
          5    1    3    3  502    0  0.74130753300E+02  0.90153957822E+01 -0.57090278757E+02  0.94092604781E+02  0.41800000000E+01 0.  1.
         -5    1    3    3    0  502 -0.40559259574E+02  0.41912731966E+02 -0.62349404642E+01  0.58805420844E+02  0.41800000000E+01 0.  1.
        -11    1    1    2    0    0  0.57643614443E+01  0.24096233356E+02 -0.67164681977E+02  0.71588761896E+02  0.00000000000E+00 0.  1.
         11    1    1    2    0    0 -0.39335855170E+02 -0.75024361104E+02 -0.18225068017E+03  0.20097580621E+03  0.00000000000E+00 0. -1.
</event>
<event>
 7    1  0.2564986E-009  0.1009834E+03  0.7561462E-02  0.1278242E+00
          1   -1    0    0  501    0  0.00000000000E+00  0.00000000000E+00  0.16064726429E+03  0.16064726429E+03  0.00000000000E+00 0. -1.
         -1   -1    0    0    0  501 -0.00000000000E+00 -0.00000000000E+00 -0.82620324321E+02  0.82620324321E+02  0.00000000000E+00 0.  1.
         25    2    1    2    0    0 -0.64808236285E+01 -0.16350782847E+02  0.16434836123E+02  0.12738459002E+03  0.12508949101E+03 0.  0.
          5    1    3    3  502    0 -0.87810250812E+01 -0.60099174191E+02  0.44303591113E+02  0.75294739029E+02  0.41800000000E+01 0. -1.
         -5    1    3    3    0  502  0.23002014526E+01  0.43748391343E+02 -0.27868754990E+02  0.52089850994E+02  0.41800000000E+01 0. -1.
        -11    1    1    2    0    0  0.50778798280E+02  0.32466674442E+01  0.23682980173E+02  0.56124065730E+02  0.00000000000E+00 0.  1.
         11    1    1    2    0    0 -0.44297974651E+02  0.13104115403E+02  0.37909123674E+02  0.59758932859E+02  0.00000000000E+00 0. -1.
</event>
<event>
 7    1  0.2564986E-009  0.1417995E+03  0.7561462E-02  0.1210928E+00
          2   -1    0    0  501    0  0.00000000000E+00  0.00000000000E+00  0.37466986404E+03  0.37466986404E+03  0.00000000000E+00 0. -1.
         -2   -1    0    0    0  501 -0.00000000000E+00 -0.00000000000E+00 -0.99379856935E+02  0.99379856935E+02  0.00000000000E+00 0.  1.
         25    2    1    2    0    0  0.12457937132E+03  0.66025645297E+02  0.23430686913E+03  0.30071040883E+03  0.12509050907E+03 0.  0.
          5    1    3    3  502    0  0.47121639344E+02  0.16414996791E+02  0.12124151292E+01  0.50088355579E+02  0.41800000000E+01 0. -1.
         -5    1    3    3    0  502  0.77457731978E+02  0.49610648506E+02  0.23309445400E+03  0.25062205325E+03  0.41800000000E+01 0. -1.
        -11    1    1    2    0    0 -0.48858417092E+02 -0.19708471949E+02  0.62762236757E+02  0.81943072618E+02  0.00000000000E+00 0. -1.
         11    1    1    2    0    0 -0.75720954230E+02 -0.46317173348E+02 -0.21779098783E+02  0.91396239530E+02  0.00000000000E+00 0.  1.
</event>
<event>
 7    1  0.2564986E-009  0.1208540E+03  0.7561462E-02  0.1241695E+00
          1   -1    0    0  501    0  0.00000000000E+00  0.00000000000E+00  0.56054704099E+03  0.56054704099E+03  0.00000000000E+00 0. -1.
         -1   -1    0    0    0  501 -0.00000000000E+00 -0.00000000000E+00 -0.27816236444E+02  0.27816236444E+02  0.00000000000E+00 0.  1.
         25    2    1    2    0    0  0.56019402051E+02  0.16916772015E+02  0.34912691043E+03  0.37544688489E+03  0.12508562348E+03 0.  0.
          5    1    3    3  502    0  0.93551259412E+02  0.22238921010E+02  0.20683505524E+03  0.22813290035E+03  0.41800000000E+01 0. -1.
         -5    1    3    3    0  502 -0.37531857361E+02 -0.53221489950E+01  0.14229185519E+03  0.14731398454E+03  0.41800000000E+01 0. -1.
        -11    1    1    2    0    0 -0.80394689101E+02 -0.60141095713E+01  0.14626852919E+03  0.16701484420E+03  0.00000000000E+00 0.  1.
         11    1    1    2    0    0  0.24375287049E+02 -0.10902662444E+02  0.37335364922E+02  0.45901548350E+02  0.00000000000E+00 0. -1.
</event>
<event>
 7    1  0.2564986E-009  0.1254068E+03  0.7561462E-02  0.1234435E+00
          3   -1    0    0  501    0  0.00000000000E+00  0.00000000000E+00  0.94726371991E+02  0.94726371991E+02  0.00000000000E+00 0. -1.
         -3   -1    0    0    0  501 -0.00000000000E+00 -0.00000000000E+00 -0.18801965789E+03  0.18801965789E+03  0.00000000000E+00 0.  1.
         25    2    1    2    0    0 -0.46507675521E+02 -0.63230441446E+02 -0.53486915051E+02  0.15706242940E+03  0.12508678603E+03 0.  0.
          5    1    3    3  502    0 -0.36514623888E+02 -0.10138976809E+03 -0.35815582410E+02  0.11363727899E+03  0.41800000000E+01 0.  1.
         -5    1    3    3    0  502 -0.99930516336E+01  0.38159326648E+02 -0.17671332640E+02  0.43425150414E+02  0.41800000000E+01 0.  1.
        -11    1    1    2    0    0 -0.72687970857E+01  0.46380354687E+02  0.12726787242E+02  0.48640968591E+02  0.00000000000E+00 0. -1.
         11    1    1    2    0    0  0.53776472607E+02  0.16850086760E+02 -0.52533158095E+02  0.77042631895E+02  0.00000000000E+00 0.  1.
</event>
<event>
 7    1  0.2564986E-009  0.1206811E+03  0.7561462E-02  0.1241978E+00
          1   -1    0    0  501    0  0.00000000000E+00  0.00000000000E+00  0.90891671250E+03  0.90891671250E+03  0.00000000000E+00 0. -1.
         -1   -1    0    0    0  501 -0.00000000000E+00 -0.00000000000E+00 -0.19771922363E+02  0.19771922363E+02  0.00000000000E+00 0.  1.
         25    2    1    2    0    0  0.34043413768E+02 -0.61269242849E+02  0.55522844882E+03  0.57344468120E+03  0.12508915972E+03 0.  0.
          5    1    3    3  502    0  0.33808247587E+02  0.26071171153E+02  0.31282267869E+03  0.31575022450E+03  0.41800000000E+01 0. -1.
         -5    1    3    3    0  502  0.23516618130E+00 -0.87340414002E+02  0.24240577012E+03  0.25769445669E+03  0.41800000000E+01 0. -1.
        -11    1    1    2    0    0 -0.30186128224E+02 -0.15654424021E+02  0.17941740338E+03  0.18261124818E+03  0.00000000000E+00 0. -1.
         11    1    1    2    0    0 -0.38572855443E+01  0.76923666870E+02  0.15449893795E+03  0.17263270549E+03  0.00000000000E+00 0.  1.
</event>
<event>
 7    1  0.2564986E-009  0.1082710E+03  0.7561462E-02  0.1263806E+00
         -2   -1    0    0    0  501 -0.00000000000E+00  0.00000000000E+00  0.47023914878E+02  0.47023914878E+02  0.00000000000E+00 0. -1.
          2   -1    0    0  501    0  0.00000000000E+00 -0.00000000000E+00 -0.33953354152E+03  0.33953354152E+03  0.00000000000E+00 0.  1.
         25    2    1    2    0    0  0.62616781678E+02 -0.13244029515E+02 -0.15845620113E+03  0.21178621574E+03  0.12509503522E+03 0.  0.
          5    1    3    3  502    0  0.89983235452E+02 -0.25416092360E+01 -0.15824434063E+03  0.18210487688E+03  0.41800000000E+01 0.  1.
         -5    1    3    3    0  502 -0.27366453774E+02 -0.10702420279E+02 -0.21186049392E+00  0.29681338866E+02  0.41800000000E+01 0.  1.
        -11    1    1    2    0    0 -0.23755698579E+02 -0.30221564686E+02 -0.10027019928E+03  0.10738616788E+03  0.00000000000E+00 0.  1.
         11    1    1    2    0    0 -0.38861083100E+02  0.43465594200E+02 -0.33783226236E+02  0.67385072782E+02  0.00000000000E+00 0. -1.
</event>
<event>
 7    1  0.2564986E-009  0.2060393E+03  0.7561462E-02  0.1144741E+00
         -1   -1    0    0    0  501 -0.00000000000E+00  0.00000000000E+00  0.12787683542E+03  0.12787683542E+03  0.00000000000E+00 0.  1.
          1   -1    0    0  501    0  0.00000000000E+00 -0.00000000000E+00 -0.38754892843E+03  0.38754892843E+03  0.00000000000E+00 0. -1.
         25    2    1    2    0    0  0.19042729569E+03  0.20193717766E+02 -0.98368134730E+02  0.24898558479E+03  0.12508872980E+03 0.  0.
          5    1    3    3  502    0  0.13459444221E+03  0.61596122887E+02 -0.10109645928E+03  0.17929783241E+03  0.41800000000E+01 0.  1.
         -5    1    3    3    0  502  0.55832853476E+02 -0.41402405120E+02  0.27283245476E+01  0.69687752380E+02  0.41800000000E+01 0.  1.
        -11    1    1    2    0    0 -0.16007402351E+03 -0.43656575613E+01 -0.16741244130E+03  0.23166716960E+03  0.00000000000E+00 0. -1.
         11    1    1    2    0    0 -0.30353272183E+02 -0.15828060205E+02  0.61084830170E+01  0.34773009459E+02  0.00000000000E+00 0.  1.
</event>
<event>
 7    1  0.2564986E-009  0.1588762E+03  0.7561462E-02  0.1189971E+00
          2   -1    0    0  501    0  0.00000000000E+00  0.00000000000E+00  0.34022815316E+03  0.34022815316E+03  0.00000000000E+00 0. -1.
         -2   -1    0    0    0  501 -0.00000000000E+00 -0.00000000000E+00 -0.99646714212E+02  0.99646714212E+02  0.00000000000E+00 0.  1.
         25    2    1    2    0    0 -0.11197136082E+03  0.85992796552E+02  0.18127559935E+03  0.26161429269E+03  0.12509535769E+03 0.  0.
          5    1    3    3  502    0 -0.98023247175E+02  0.24464999385E+02  0.43603341823E+02  0.11011728747E+03  0.41800000000E+01 0.  1.
         -5    1    3    3    0  502 -0.13948113650E+02  0.61527797168E+02  0.13767225752E+03  0.15149700522E+03  0.41800000000E+01 0.  1.
        -11    1    1    2    0    0  0.10432453219E+03 -0.48327147230E+02  0.95235431426E+01  0.11536818907E+03  0.00000000000E+00 0.  1.
         11    1    1    2    0    0  0.76468286353E+01 -0.37665649322E+02  0.49782296457E+02  0.62892385609E+02  0.00000000000E+00 0. -1.
</event>
<event>
 7    1  0.2564986E-009  0.9998997E+02  0.7561462E-02  0.1280317E+00
          1   -1    0    0  501    0  0.00000000000E+00  0.00000000000E+00  0.80653485994E+02  0.80653485994E+02  0.00000000000E+00 0. -1.
         -1   -1    0    0    0  501 -0.00000000000E+00 -0.00000000000E+00 -0.21464398169E+03  0.21464398169E+03  0.00000000000E+00 0.  1.
         25    2    1    2    0    0  0.55554768734E+01 -0.41313418692E+02 -0.14155034555E+03  0.19344482943E+03  0.12508692904E+03 0.  0.
          5    1    3    3  502    0  0.32666219467E+02  0.15627722513E+02 -0.12193462128E+03  0.12726677442E+03  0.41800000000E+01 0. -1.
         -5    1    3    3    0  502 -0.27110742594E+02 -0.56941141205E+02 -0.19615724279E+02  0.66178055008E+02  0.41800000000E+01 0. -1.
        -11    1    1    2    0    0 -0.76643498061E+01  0.70572986017E+02 -0.19485538101E+01  0.71014684927E+02  0.00000000000E+00 0. -1.
         11    1    1    2    0    0  0.21088729326E+01 -0.29259567325E+02  0.95084036714E+01  0.30837953328E+02  0.00000000000E+00 0.  1.
</event>
<event>
 7    1  0.2564986E-009  0.1122727E+03  0.7561462E-02  0.1256418E+00
         -2   -1    0    0    0  501 -0.00000000000E+00  0.00000000000E+00  0.40453082145E+02  0.40453082145E+02  0.00000000000E+00 0. -1.
          2   -1    0    0  501    0  0.00000000000E+00 -0.00000000000E+00 -0.46766751402E+03  0.46766751402E+03  0.00000000000E+00 0.  1.
         25    2    1    2    0    0 -0.42149982412E+01 -0.61168210252E+02 -0.33503268909E+03  0.36284119393E+03  0.12509001997E+03 0.  0.
          5    1    3    3  502    0  0.32732115272E+02 -0.85194230343E+02 -0.26161912913E+03  0.27711277376E+03  0.41800000000E+01 0.  1.
         -5    1    3    3    0  502 -0.36947113513E+02  0.24026020091E+02 -0.73413559958E+02  0.85728420165E+02  0.41800000000E+01 0.  1.
        -11    1    1    2    0    0 -0.14215433285E+02 -0.86930511492E+01  0.10522379923E+02  0.19707058660E+02  0.00000000000E+00 0. -1.
         11    1    1    2    0    0  0.18430431527E+02  0.69861261401E+02 -0.10270412271E+03  0.12557234358E+03  0.00000000000E+00 0.  1.
</event>
<event>
 7    1  0.2564986E-009  0.1012859E+03  0.7561462E-02  0.1277615E+00
         -2   -1    0    0    0  501 -0.00000000000E+00  0.00000000000E+00  0.33944835539E+02  0.33944835539E+02  0.00000000000E+00 0.  1.
          2   -1    0    0  501    0  0.00000000000E+00 -0.00000000000E+00 -0.84386109397E+03  0.84386109397E+03  0.00000000000E+00 0. -1.
         25    2    1    2    0    0  0.26931794222E+02 -0.87817599549E+02 -0.66273613988E+03  0.68066702799E+03  0.12510459448E+03 0.  0.
          5    1    3    3  502    0  0.52086845270E+01 -0.58188329741E+02 -0.94161265496E+02  0.11089106561E+03  0.41800000000E+01 0. -1.
         -5    1    3    3    0  502  0.21723109695E+02 -0.29629269808E+02 -0.56857487439E+03  0.56977596238E+03  0.41800000000E+01 0. -1.
        -11    1    1    2    0    0 -0.26302785564E+02  0.84096479495E+01  0.24699741862E+01  0.27724708827E+02  0.00000000000E+00 0.  1.
         11    1    1    2    0    0 -0.62900865744E+00  0.79407951599E+02 -0.14965009273E+03  0.16941419269E+03  0.00000000000E+00 0. -1.
</event>
<event>
 7    1  0.2564986E-009  0.1733057E+03  0.7561462E-02  0.1174444E+00
         -1   -1    0    0    0  501 -0.00000000000E+00  0.00000000000E+00  0.61865694522E+02  0.61865694522E+02  0.00000000000E+00 0.  1.
          1   -1    0    0  501    0  0.00000000000E+00 -0.00000000000E+00 -0.59523510957E+03  0.59523510957E+03  0.00000000000E+00 0. -1.
         25    2    1    2    0    0  0.15263766880E+03  0.34720178734E+02 -0.24566241589E+03  0.31701656360E+03  0.12508289359E+03 0.  0.
          5    1    3    3  502    0  0.11230669025E+02  0.44910695180E+02 -0.20267886028E+02  0.50708560149E+02  0.41800000000E+01 0. -1.
         -5    1    3    3    0  502  0.14140699977E+03 -0.10190516446E+02 -0.22539452986E+03  0.26630800345E+03  0.41800000000E+01 0. -1.
        -11    1    1    2    0    0 -0.89084949516E+02 -0.32085152301E+02 -0.83653449865E+02  0.12634668537E+03  0.00000000000E+00 0.  1.
         11    1    1    2    0    0 -0.63552719283E+02 -0.26350264327E+01 -0.20405354930E+03  0.21373755513E+03  0.00000000000E+00 0. -1.
</event>
<event>
 7    1  0.2564986E-009  0.6720586E+02  0.7561462E-02  0.1369861E+00
          1   -1    0    0  501    0  0.00000000000E+00  0.00000000000E+00  0.11493120043E+03  0.11493120043E+03  0.00000000000E+00 0. -1.
         -1   -1    0    0    0  501 -0.00000000000E+00 -0.00000000000E+00 -0.20613808618E+03  0.20613808618E+03  0.00000000000E+00 0.  1.
         25    2    1    2    0    0 -0.59041792689E+01  0.10936209873E+01 -0.16270628934E+03  0.20531996579E+03  0.12508755503E+03 0.  0.
          5    1    3    3  502    0 -0.44009336128E+02  0.17050380244E+01 -0.16097361134E+03  0.16694221986E+03  0.41800000000E+01 0.  1.
         -5    1    3    3    0  502  0.38105156859E+02 -0.61141703713E+00 -0.17326779920E+01  0.38377745935E+02  0.41800000000E+01 0.  1.
        -11    1    1    2    0    0  0.18020253945E+02  0.20363078612E+02  0.83876724844E+02  0.88174199704E+02  0.00000000000E+00 0. -1.
         11    1    1    2    0    0 -0.12116074676E+02 -0.21456699599E+02 -0.12377321253E+02  0.27575121118E+02  0.00000000000E+00 0.  1.
</event>
<event>
 7    1  0.2564986E-009  0.2405444E+03  0.7561462E-02  0.1119431E+00
         -2   -1    0    0    0  501 -0.00000000000E+00  0.00000000000E+00  0.62530022848E+02  0.62530022848E+02  0.00000000000E+00 0.  1.
          2   -1    0    0  501    0  0.00000000000E+00 -0.00000000000E+00 -0.10169381909E+04  0.10169381909E+04  0.00000000000E+00 0. -1.
         25    2    1    2    0    0 -0.21554623695E+03 -0.25076901861E+02 -0.63562698739E+03  0.68319630262E+03  0.12508592862E+03 0.  0.
          5    1    3    3  502    0 -0.20504549164E+03 -0.56160960164E+02 -0.58752224484E+03  0.62481802765E+03  0.41800000000E+01 0.  1.
         -5    1    3    3    0  502 -0.10500745306E+02  0.31084058304E+02 -0.48104742553E+02  0.58378274972E+02  0.41800000000E+01 0.  1.
        -11    1    1    2    0    0  0.20123784115E+03  0.49348234949E+02 -0.28220003941E+03  0.35009824227E+03  0.00000000000E+00 0. -1.
         11    1    1    2    0    0  0.14308395801E+02 -0.24271333088E+02 -0.36581141257E+02  0.46173668860E+02  0.00000000000E+00 0.  1.
</event>
<event>
 7    1  0.2564986E-009  0.2212061E+03  0.7561462E-02  0.1132987E+00
          2   -1    0    0  501    0  0.00000000000E+00  0.00000000000E+00  0.22790153882E+04  0.22790153882E+04  0.00000000000E+00 0. -1.
         -2   -1    0    0    0  501 -0.00000000000E+00 -0.00000000000E+00 -0.23272332278E+02  0.23272332278E+02  0.00000000000E+00 0.  1.
         25    2    1    2    0    0 -0.57343706043E+02 -0.18647363130E+03  0.14663536180E+04  0.14845549521E+04  0.12509898884E+03 0.  0.
          5    1    3    3  502    0  0.32069971096E+02 -0.10517117666E+03  0.63725827556E+03  0.64668774661E+03  0.41800000000E+01 0. -1.
         -5    1    3    3    0  502 -0.89413677138E+02 -0.81302454637E+02  0.82909534244E+03  0.83786720549E+03  0.41800000000E+01 0. -1.
        -11    1    1    2    0    0  0.65603888973E+02  0.74858113265E+02  0.31667996026E+03  0.33195452189E+03  0.00000000000E+00 0. -1.
         11    1    1    2    0    0 -0.82601829302E+01  0.11161551803E+03  0.47270947765E+03  0.48577824647E+03  0.00000000000E+00 0.  1.
</event>
<event>
 7    1  0.2564986E-009  0.2043746E+03  0.7561462E-02  0.1146100E+00
         -2   -1    0    0    0  501 -0.00000000000E+00  0.00000000000E+00  0.50047348154E+02  0.50047348154E+02  0.00000000000E+00 0.  1.
          2   -1    0    0  501    0  0.00000000000E+00 -0.00000000000E+00 -0.95544692215E+03  0.95544692215E+03  0.00000000000E+00 0. -1.
         25    2    1    2    0    0  0.19166452429E+02  0.18704602878E+03 -0.40602413024E+03  0.46460333247E+03  0.12508833847E+03 0.  0.
          5    1    3    3  502    0 -0.41691708661E+02  0.96841793298E+02 -0.27306191549E+03  0.29274018103E+03  0.41800000000E+01 0.  1.
         -5    1    3    3    0  502  0.60858161090E+02  0.90204235477E+02 -0.13296221476E+03  0.17186315144E+03  0.41800000000E+01 0.  1.
        -11    1    1    2    0    0 -0.35793747927E+02 -0.11750256375E+03 -0.40020230495E+03  0.41862862990E+03  0.00000000000E+00 0. -1.
         11    1    1    2    0    0  0.16627295498E+02 -0.69543465023E+02 -0.99173138799E+02  0.12226230794E+03  0.00000000000E+00 0.  1.
</event>
<event>
 7    1  0.2564986E-009  0.1638638E+03  0.7561462E-02  0.1184402E+00
          1   -1    0    0  501    0  0.00000000000E+00  0.00000000000E+00  0.27926164570E+04  0.27926164570E+04  0.00000000000E+00 0. -1.
         -1   -1    0    0    0  501 -0.00000000000E+00 -0.00000000000E+00 -0.13167784362E+02  0.13167784362E+02  0.00000000000E+00 0.  1.
         25    2    1    2    0    0  0.90908248112E+02  0.11940822986E+02  0.19826977220E+04  0.19887546413E+04  0.12509146159E+03 0.  0.
          5    1    3    3  502    0  0.18338685639E+02 -0.50634152072E+02  0.97753731046E+03  0.97902849319E+03  0.41800000000E+01 0.  1.
         -5    1    3    3    0  502  0.72569562473E+02  0.62574975058E+02  0.10051604115E+04  0.10097261481E+04  0.41800000000E+01 0.  1.
        -11    1    1    2    0    0  0.43176386997E+02  0.81946339627E-01  0.13545168057E+03  0.14216667992E+03  0.00000000000E+00 0.  1.
         11    1    1    2    0    0 -0.13408463511E+03 -0.12022769326E+02  0.66129927010E+03  0.67486292015E+03  0.00000000000E+00 0. -1.
</event>
<event>
 7    1  0.2564986E-009  0.1862075E+03  0.7561462E-02  0.1161927E+00
         -1   -1    0    0    0  501 -0.00000000000E+00  0.00000000000E+00  0.41009170517E+03  0.41009170517E+03  0.00000000000E+00 0.  1.
          1   -1    0    0  501    0  0.00000000000E+00 -0.00000000000E+00 -0.14043874548E+03  0.14043874548E+03  0.00000000000E+00 0. -1.
         25    2    1    2    0    0  0.55948670586E+02  0.17430008137E+03  0.12528412032E+02  0.22207499670E+03  0.12509824518E+03 0.  0.
          5    1    3    3  502    0  0.29084597177E+02  0.46840751369E+02  0.61635773806E+02  0.82803446754E+02  0.41800000000E+01 0.  1.
         -5    1    3    3    0  502  0.26864073409E+02  0.12745933000E+03 -0.49107361773E+02  0.13927154995E+03  0.41800000000E+01 0.  1.
        -11    1    1    2    0    0 -0.11357210404E+02 -0.63220393688E+01 -0.50186617226E+01  0.13933462435E+02  0.00000000000E+00 0. -1.
         11    1    1    2    0    0 -0.44591460182E+02 -0.16797804200E+03  0.26214320939E+03  0.31452199151E+03  0.00000000000E+00 0.  1.
</event>
<event>
 7    1  0.2564986E-009  0.1335126E+03  0.7561462E-02  0.1222335E+00
          2   -1    0    0  501    0  0.00000000000E+00  0.00000000000E+00  0.26362504202E+03  0.26362504202E+03  0.00000000000E+00 0.  1.
         -2   -1    0    0    0  501 -0.00000000000E+00 -0.00000000000E+00 -0.90902001003E+02  0.90902001003E+02  0.00000000000E+00 0. -1.
         25    2    1    2    0    0 -0.88637038213E+02  0.10557791241E+02  0.19476848781E+02  0.15490287966E+03  0.12509021940E+03 0.  0.
          5    1    3    3  502    0 -0.11647629719E+03  0.18338433554E+01  0.34847933969E+02  0.12166323064E+03  0.41800000000E+01 0.  1.
         -5    1    3    3    0  502  0.27839258975E+02  0.87239478861E+01 -0.15371085188E+02  0.33239649019E+02  0.41800000000E+01 0.  1.
        -11    1    1    2    0    0  0.26347843474E+02  0.35005018809E+02  0.26418594581E+02  0.51161531810E+02  0.00000000000E+00 0.  1.
         11    1    1    2    0    0  0.62289194739E+02 -0.45562810050E+02  0.12682759766E+03  0.14846263156E+03  0.00000000000E+00 0. -1.
</event>
<event>
 7    1  0.2564986E-009  0.1522175E+03  0.7561462E-02  0.1197774E+00
          2   -1    0    0  501    0  0.00000000000E+00  0.00000000000E+00  0.90753885043E+02  0.90753885043E+02  0.00000000000E+00 0. -1.
         -2   -1    0    0    0  501 -0.00000000000E+00 -0.00000000000E+00 -0.27150755862E+03  0.27150755862E+03  0.00000000000E+00 0.  1.
         25    2    1    2    0    0 -0.10783636799E+03  0.42617305229E+02 -0.93599378014E+02  0.19455080168E+03  0.12507699190E+03 0.  0.
          5    1    3    3  502    0 -0.74544700576E+02  0.87030770285E+02 -0.67651235252E+02  0.13313688216E+03  0.41800000000E+01 0.  1.
         -5    1    3    3    0  502 -0.33291667414E+02 -0.44413465056E+02 -0.25948142761E+02  0.61413919515E+02  0.41800000000E+01 0.  1.
        -11    1    1    2    0    0  0.15562446523E+02 -0.38739823042E+02 -0.15405534703E+01  0.41777229876E+02  0.00000000000E+00 0. -1.
         11    1    1    2    0    0  0.92273921468E+02 -0.38774821864E+01 -0.85613742097E+02  0.12593341212E+03  0.00000000000E+00 0.  1.
</event>
<event>
 7    1  0.2564986E-009  0.1624643E+03  0.7561462E-02  0.1185942E+00
          2   -1    0    0  501    0  0.00000000000E+00  0.00000000000E+00  0.10627684641E+04  0.10627684641E+04  0.00000000000E+00 0. -1.
         -2   -1    0    0    0  501 -0.00000000000E+00 -0.00000000000E+00 -0.31196195552E+02  0.31196195552E+02  0.00000000000E+00 0.  1.
         25    2    1    2    0    0 -0.28834671083E+02  0.14292154992E+03  0.48294926264E+03  0.51975470665E+03  0.12508779761E+03 0.  0.
          5    1    3    3  502    0 -0.47329073863E+02  0.94460963754E+02  0.43926379744E+03  0.45181087973E+03  0.41800000000E+01 0.  1.
         -5    1    3    3    0  502  0.18494402781E+02  0.48460586165E+02  0.43685465197E+02  0.67943826910E+02  0.41800000000E+01 0.  1.
        -11    1    1    2    0    0 -0.27783732933E+02 -0.66269888966E+02  0.18976712746E+03  0.20291672347E+03  0.00000000000E+00 0.  1.
         11    1    1    2    0    0  0.56618404015E+02 -0.76651660953E+02  0.35885587845E+03  0.37129322953E+03  0.00000000000E+00 0. -1.
</event>
<event>
 7    1  0.2564986E-009  0.8686156E+02  0.7561462E-02  0.1310635E+00
          2   -1    0    0  501    0  0.00000000000E+00  0.00000000000E+00  0.41902244883E+03  0.41902244883E+03  0.00000000000E+00 0.  1.
         -2   -1    0    0    0  501 -0.00000000000E+00 -0.00000000000E+00 -0.31672017535E+02  0.31672017535E+02  0.00000000000E+00 0. -1.
         25    2    1    2    0    0 -0.16190561726E+02 -0.28476600094E+02  0.24695149579E+03  0.27875602864E+03  0.12508729427E+03 0.  0.
          5    1    3    3  502    0  0.32076559417E+02 -0.45565746327E+02  0.49241224408E+02  0.74480289229E+02  0.41800000000E+01 0. -1.
         -5    1    3    3    0  502 -0.48267121143E+02  0.17089146233E+02  0.19771027138E+03  0.20427573941E+03  0.41800000000E+01 0. -1.
        -11    1    1    2    0    0 -0.11215001533E+02 -0.12740085098E+02 -0.55241356316E+01  0.17849428623E+02  0.00000000000E+00 0. -1.
         11    1    1    2    0    0  0.27405563259E+02  0.41216685192E+02  0.14592307114E+03  0.15408900910E+03  0.00000000000E+00 0.  1.
</event>
<event>
 7    1  0.2564986E-009  0.8859082E+02  0.7561462E-02  0.1306301E+00
          2   -1    0    0  501    0  0.00000000000E+00  0.00000000000E+00  0.27673076147E+03  0.27673076147E+03  0.00000000000E+00 0. -1.
         -2   -1    0    0    0  501 -0.00000000000E+00 -0.00000000000E+00 -0.60819258883E+02  0.60819258883E+02  0.00000000000E+00 0.  1.
         25    2    1    2    0    0 -0.16747502006E+01  0.39941639691E+02  0.19673678291E+03  0.23653983584E+03  0.12509033865E+03 0.  0.
          5    1    3    3  502    0 -0.31238003846E+02 -0.30562355505E+01  0.17822416247E+03  0.18101513182E+03  0.41800000000E+01 0.  1.
         -5    1    3    3    0  502  0.29563253646E+02  0.42997875241E+02  0.18512620437E+02  0.55524704023E+02  0.41800000000E+01 0.  1.
        -11    1    1    2    0    0  0.16841472731E+02  0.22954906166E+02 -0.98126603075E+01  0.30113970565E+02  0.00000000000E+00 0.  1.
         11    1    1    2    0    0 -0.15166722530E+02 -0.62896545857E+02  0.28987379986E+02  0.70896213943E+02  0.00000000000E+00 0. -1.
</event>
<event>
 7    1  0.2564986E-009  0.8388311E+02  0.7561462E-02  0.1318379E+00
         -1   -1    0    0    0  501 -0.00000000000E+00  0.00000000000E+00  0.36512190661E+02  0.36512190661E+02  0.00000000000E+00 0.  1.
          1   -1    0    0  501    0  0.00000000000E+00 -0.00000000000E+00 -0.34792131692E+03  0.34792131692E+03  0.00000000000E+00 0. -1.
         25    2    1    2    0    0 -0.11625240493E+02  0.18591861720E+02 -0.14010481932E+03  0.18909667562E+03  0.12508952312E+03 0.  0.
          5    1    3    3  502    0 -0.65642180865E+02  0.56878816107E+01 -0.48616296997E+02  0.81989417852E+02  0.41800000000E+01 0.  1.
         -5    1    3    3    0  502  0.54016940373E+02  0.12903980109E+02 -0.91488522326E+02  0.10710725777E+03  0.41800000000E+01 0.  1.
        -11    1    1    2    0    0  0.24311760840E+02 -0.22135859008E+02 -0.17768435465E+03  0.18070082417E+03  0.00000000000E+00 0. -1.
         11    1    1    2    0    0 -0.12686520347E+02  0.35439972880E+01  0.63800477083E+01  0.14636007791E+02  0.00000000000E+00 0.  1.
</event>
<event>
 7    1  0.2564986E-009  0.1171225E+03  0.7561462E-02  0.1247921E+00
         -1   -1    0    0    0  501 -0.00000000000E+00  0.00000000000E+00  0.44219420694E+03  0.44219420694E+03  0.00000000000E+00 0.  1.
          1   -1    0    0  501    0  0.00000000000E+00 -0.00000000000E+00 -0.36088391682E+02  0.36088391682E+02  0.00000000000E+00 0. -1.
         25    2    1    2    0    0  0.11011664005E+02 -0.55866621715E+02  0.29462436416E+03  0.32510565699E+03  0.12509131099E+03 0.  0.
          5    1    3    3  502    0  0.20477294291E+02  0.35942931303E+02  0.60486216198E+02  0.73398015246E+02  0.41800000000E+01 0. -1.
         -5    1    3    3    0  502 -0.94656302863E+01 -0.91809553018E+02  0.23413814796E+03  0.25170764174E+03  0.41800000000E+01 0. -1.
        -11    1    1    2    0    0 -0.23323630757E+02 -0.15403413041E+02  0.53947889131E+02  0.60758798759E+02  0.00000000000E+00 0.  1.
         11    1    1    2    0    0  0.12311966752E+02  0.71270034756E+02  0.57533561975E+02  0.92418142878E+02  0.00000000000E+00 0. -1.
</event>
<event>
 7    1  0.2564986E-009  0.1235564E+03  0.7561462E-02  0.1237343E+00
          2   -1    0    0  501    0  0.00000000000E+00  0.00000000000E+00  0.27607326327E+02  0.27607326327E+02  0.00000000000E+00 0. -1.
         -2   -1    0    0    0  501 -0.00000000000E+00 -0.00000000000E+00 -0.64629969573E+03  0.64629969573E+03  0.00000000000E+00 0.  1.
         25    2    1    2    0    0 -0.11015657369E+02 -0.76072917566E+02 -0.36983946379E+03  0.39791504847E+03  0.12508686312E+03 0.  0.
          5    1    3    3  502    0 -0.67308498258E+02 -0.50246853168E+02 -0.23091889437E+03  0.24575635977E+03  0.41800000000E+01 0. -1.
         -5    1    3    3    0  502  0.56292840889E+02 -0.25826064398E+02 -0.13892056943E+03  0.15215868870E+03  0.41800000000E+01 0. -1.
        -11    1    1    2    0    0 -0.26599421452E+02  0.19416407223E+02 -0.16387968203E+03  0.16715584427E+03  0.00000000000E+00 0.  1.
         11    1    1    2    0    0  0.37615078821E+02  0.56656510343E+02 -0.84973223573E+02  0.10883612931E+03  0.00000000000E+00 0. -1.
</event>
<event>
 7    1  0.2564986E-009  0.8892578E+02  0.7561462E-02  0.1305474E+00
         -1   -1    0    0    0  501 -0.00000000000E+00  0.00000000000E+00  0.56102770248E+02  0.56102770248E+02  0.00000000000E+00 0.  1.
          1   -1    0    0  501    0  0.00000000000E+00 -0.00000000000E+00 -0.28521464366E+03  0.28521464366E+03  0.00000000000E+00 0. -1.
         25    2    1    2    0    0 -0.22680935935E+02 -0.59413103590E+02 -0.13812019091E+03  0.19689605499E+03  0.12508608076E+03 0.  0.
          5    1    3    3  502    0 -0.48498471880E+02 -0.39273329499E+02 -0.14943893965E+03  0.16199989280E+03  0.41800000000E+01 0.  1.
         -5    1    3    3    0  502  0.25817535945E+02 -0.20139774091E+02  0.11318748734E+02  0.34896162191E+02  0.41800000000E+01 0.  1.
        -11    1    1    2    0    0  0.35678751655E+02  0.59407986146E+02 -0.10468354261E+03  0.12554252758E+03  0.00000000000E+00 0. -1.
         11    1    1    2    0    0 -0.12997815720E+02  0.51174441114E-02  0.13691860106E+02  0.18878831342E+02  0.00000000000E+00 0.  1.
</event>
<event>
 7    1  0.2564986E-009  0.1230399E+03  0.7561462E-02  0.1238165E+00
         -3   -1    0    0    0  501 -0.00000000000E+00  0.00000000000E+00  0.38178667927E+02  0.38178667927E+02  0.00000000000E+00 0.  1.
          3   -1    0    0  501    0  0.00000000000E+00 -0.00000000000E+00 -0.54234982936E+03  0.54234982936E+03  0.00000000000E+00 0. -1.
         25    2    1    2    0    0 -0.28629578692E+02  0.60883376612E+02 -0.13795687020E+03  0.19800741396E+03  0.12509356347E+03 0.  0.
          5    1    3    3  502    0 -0.74858878990E+02  0.23030735245E+02 -0.10003317424E+03  0.12711559652E+03  0.41800000000E+01 0. -1.
         -5    1    3    3    0  502  0.46229300299E+02  0.37852641366E+02 -0.37923695962E+02  0.70891817440E+02  0.41800000000E+01 0. -1.
        -11    1    1    2    0    0  0.45748413838E+02 -0.13099038842E+01 -0.19880877341E+03  0.20400872923E+03  0.00000000000E+00 0.  1.
         11    1    1    2    0    0 -0.17118835147E+02 -0.59573472727E+02 -0.16740551782E+03  0.17851235410E+03  0.00000000000E+00 0. -1.
</event>
<event>
 7    1  0.2564986E-009  0.9778539E+02  0.7561462E-02  0.1285023E+00
          1   -1    0    0  501    0  0.00000000000E+00  0.00000000000E+00  0.44962082599E+02  0.44962082599E+02  0.00000000000E+00 0. -1.
         -1   -1    0    0    0  501 -0.00000000000E+00 -0.00000000000E+00 -0.27845340637E+03  0.27845340637E+03  0.00000000000E+00 0.  1.
         25    2    1    2    0    0  0.48438540933E+01  0.19592963859E+02 -0.10081181871E+03  0.16191917199E+03  0.12508976102E+03 0.  0.
          5    1    3    3  502    0 -0.52589247403E+02 -0.12453086801E+02 -0.71675926742E+02  0.89864448964E+02  0.41800000000E+01 0.  1.
         -5    1    3    3    0  502  0.57433101496E+02  0.32046050660E+02 -0.29135891966E+02  0.72054723030E+02  0.41800000000E+01 0.  1.
        -11    1    1    2    0    0  0.33469338208E+02 -0.15654376068E+02 -0.11166886008E+03  0.11762308617E+03  0.00000000000E+00 0.  1.
         11    1    1    2    0    0 -0.38313192301E+02 -0.39385877911E+01 -0.21010644986E+02  0.43873230800E+02  0.00000000000E+00 0. -1.
</event>
<event>
 7    1  0.2820608E-009  0.1360695E+03  0.7561462E-02  0.1218718E+00
          2   -1    0    0  501    0  0.00000000000E+00  0.00000000000E+00  0.16697669323E+04  0.16697669323E+04  0.00000000000E+00 0. -1.
         -2   -1    0    0    0  501 -0.00000000000E+00 -0.00000000000E+00 -0.20617101990E+02  0.20617101990E+02  0.00000000000E+00 0.  1.
         25    2    1    2    0    0 -0.37003575222E+02  0.99154019417E+02  0.13539844511E+04  0.13638633844E+04  0.12509457808E+03 0.  0.
          5    1    3    3  502    0  0.71974072128E+01  0.92892753870E+02  0.11962445886E+04  0.11998747662E+04  0.41800000000E+01 0.  1.
         -5    1    3    3    0  502 -0.44200982435E+02  0.62612655464E+01  0.15773986246E+03  0.16398861821E+03  0.41800000000E+01 0.  1.
        -11    1    1    2    0    0 -0.21803243165E+02 -0.58809002489E+02  0.93248028214E+02  0.11237915711E+03  0.00000000000E+00 0.  1.
         11    1    1    2    0    0  0.58806818387E+02 -0.40345016927E+02  0.20191735103E+03  0.21414149277E+03  0.00000000000E+00 0. -1.
</event>
<event>
 7    1  0.2564986E-009  0.1387039E+03  0.7561462E-02  0.1215084E+00
         -2   -1    0    0    0  501 -0.00000000000E+00  0.00000000000E+00  0.39931117634E+02  0.39931117634E+02  0.00000000000E+00 0.  1.
          2   -1    0    0  501    0  0.00000000000E+00 -0.00000000000E+00 -0.62795037515E+03  0.62795037515E+03  0.00000000000E+00 0. -1.
         25    2    1    2    0    0  0.15731488880E+02 -0.10994188419E+03 -0.41970366667E+03  0.45181162795E+03  0.12509149330E+03 0.  0.
          5    1    3    3  502    0 -0.63665429869E+01  0.16355317743E+02 -0.17121487468E+03  0.17216281538E+03  0.41800000000E+01 0. -1.
         -5    1    3    3    0  502  0.22098031867E+02 -0.12629720194E+03 -0.24848879199E+03  0.27964881257E+03  0.41800000000E+01 0. -1.
        -11    1    1    2    0    0 -0.35212978757E+02  0.23174548434E+02 -0.81685125168E+02  0.91921016323E+02  0.00000000000E+00 0. -1.
         11    1    1    2    0    0  0.19481489877E+02  0.86767335758E+02 -0.86630465683E+02  0.12414884851E+03  0.00000000000E+00 0.  1.
</event>
<event>
 7    1  0.2564986E-009  0.1931298E+03  0.7561462E-02  0.1155668E+00
          2   -1    0    0  501    0  0.00000000000E+00  0.00000000000E+00  0.97554397922E+03  0.97554397922E+03  0.00000000000E+00 0. -1.
         -2   -1    0    0    0  501 -0.00000000000E+00 -0.00000000000E+00 -0.50154753277E+02  0.50154753277E+02  0.00000000000E+00 0.  1.
         25    2    1    2    0    0 -0.28964260086E+02  0.18866681324E+03  0.53225080942E+03  0.57911391651E+03  0.12509160396E+03 0.  0.
          5    1    3    3  502    0 -0.15281499350E+02  0.15104917217E+03  0.51201659931E+03  0.53406726824E+03  0.41800000000E+01 0.  1.
         -5    1    3    3    0  502 -0.13682760736E+02  0.37617641077E+02  0.20234210112E+02  0.45046648270E+02  0.41800000000E+01 0.  1.
        -11    1    1    2    0    0 -0.40376716469E+01 -0.90101763518E+02  0.27407241821E+03  0.28853131720E+03  0.00000000000E+00 0. -1.
         11    1    1    2    0    0  0.33001931733E+02 -0.98565049727E+02  0.11906599831E+03  0.15805349879E+03  0.00000000000E+00 0.  1.
</event>
<event>
 7    1  0.2564986E-009  0.1106468E+03  0.7561462E-02  0.1259377E+00
         -2   -1    0    0    0  501 -0.00000000000E+00  0.00000000000E+00  0.15767757615E+02  0.15767757615E+02  0.00000000000E+00 0.  1.
          2   -1    0    0  501    0  0.00000000000E+00 -0.00000000000E+00 -0.84630440253E+03  0.84630440253E+03  0.00000000000E+00 0. -1.
         25    2    1    2    0    0  0.30223038283E+02  0.17828222695E+02 -0.54925513445E+03  0.56441149092E+03  0.12509136978E+03 0.  0.
          5    1    3    3  502    0 -0.34992761802E+02  0.43519608960E+02 -0.31191334062E+03  0.31690038530E+03  0.41800000000E+01 0.  1.
         -5    1    3    3    0  502  0.65215800086E+02 -0.25691386265E+02 -0.23734179382E+03  0.24751110562E+03  0.41800000000E+01 0.  1.
        -11    1    1    2    0    0 -0.38007067887E+02 -0.49530217407E+02 -0.15201384499E+03  0.16433498932E+03  0.00000000000E+00 0.  1.
         11    1    1    2    0    0  0.77840296032E+01  0.31701994713E+02 -0.12926766547E+03  0.13332567991E+03  0.00000000000E+00 0. -1.
</event>
<event>
 7    1  0.2564986E-009  0.1938415E+03  0.7561462E-02  0.1155041E+00
         -2   -1    0    0    0  501 -0.00000000000E+00  0.00000000000E+00  0.13092325847E+03  0.13092325847E+03  0.00000000000E+00 0.  1.
          2   -1    0    0  501    0  0.00000000000E+00 -0.00000000000E+00 -0.29085891326E+03  0.29085891326E+03  0.00000000000E+00 0. -1.
         25    2    1    2    0    0  0.11732676477E+03 -0.10940862973E+03 -0.65206291230E+02  0.21362363858E+03  0.12508949019E+03 0.  0.
          5    1    3    3  502    0 -0.15735962750E+02  0.14302725021E+02 -0.79180192027E+01  0.23072838897E+02  0.41800000000E+01 0.  1.
         -5    1    3    3    0  502  0.13306272752E+03 -0.12371135475E+03 -0.57288272027E+02  0.19055079969E+03  0.41800000000E+01 0.  1.
        -11    1    1    2    0    0 -0.10744016369E+03  0.40748478637E+02 -0.69800981525E+02  0.13444703160E+03  0.00000000000E+00 0.  1.
         11    1    1    2    0    0 -0.98866010865E+01  0.68660151089E+02 -0.24928382037E+02  0.73711501543E+02  0.00000000000E+00 0. -1.
</event>
<event>
 7    1  0.2564986E-009  0.1069207E+03  0.7561462E-02  0.1266381E+00
         -2   -1    0    0    0  501 -0.00000000000E+00  0.00000000000E+00  0.42679675242E+02  0.42679675242E+02  0.00000000000E+00 0.  1.
          2   -1    0    0  501    0  0.00000000000E+00 -0.00000000000E+00 -0.50011766463E+03  0.50011766463E+03  0.00000000000E+00 0. -1.
         25    2    1    2    0    0  0.35076483788E+01  0.41145961032E+02 -0.40851653142E+03  0.42923046381E+03  0.12509093056E+03 0.  0.
          5    1    3    3  502    0  0.46297064175E+02 -0.67896992026E+01 -0.29504762042E+03  0.29876426976E+03  0.41800000000E+01 0. -1.
         -5    1    3    3    0  502 -0.42789415796E+02  0.47935660235E+02 -0.11346891100E+03  0.13046619405E+03  0.41800000000E+01 0. -1.
        -11    1    1    2    0    0 -0.48319275890E+02 -0.15019672490E+02 -0.25226903534E+02  0.56539717422E+02  0.00000000000E+00 0. -1.
         11    1    1    2    0    0  0.44811627511E+02 -0.26126288542E+02 -0.23694554431E+02  0.57027158643E+02  0.00000000000E+00 0.  1.
</event>
<event>
 7    1  0.2564986E-009  0.1361690E+03  0.7561462E-02  0.1218579E+00
         -2   -1    0    0    0  501 -0.00000000000E+00  0.00000000000E+00  0.12300889161E+03  0.12300889161E+03  0.00000000000E+00 0.  1.
          2   -1    0    0  501    0  0.00000000000E+00 -0.00000000000E+00 -0.19146511672E+03  0.19146511672E+03  0.00000000000E+00 0. -1.
         25    2    1    2    0    0  0.96135042765E+02  0.31126439359E+02  0.31440276003E+01  0.16084177348E+03  0.12509752001E+03 0.  0.
          5    1    3    3  502    0  0.95600170827E+02 -0.16395454561E+02 -0.31291297890E+02  0.10200402598E+03  0.41800000000E+01 0. -1.
         -5    1    3    3    0  502  0.53487193814E+00  0.47521893920E+02  0.34435325490E+02  0.58837747504E+02  0.41800000000E+01 0. -1.
        -11    1    1    2    0    0 -0.33766593539E+02 -0.51803669569E+02 -0.82942589091E+01  0.62390686411E+02  0.00000000000E+00 0. -1.
         11    1    1    2    0    0 -0.62368449226E+02  0.20677230210E+02 -0.63305993802E+02  0.91241548427E+02  0.00000000000E+00 0.  1.
</event>
<event>
 7    1  0.2564986E-009  0.1029743E+03  0.7561462E-02  0.1274163E+00
          2   -1    0    0  501    0  0.00000000000E+00  0.00000000000E+00  0.27853075394E+03  0.27853075394E+03  0.00000000000E+00 0. -1.
         -2   -1    0    0    0  501 -0.00000000000E+00 -0.00000000000E+00 -0.60943921070E+02  0.60943921070E+02  0.00000000000E+00 0.  1.
         25    2    1    2    0    0 -0.39724879462E+02 -0.12562789844E+02  0.18997811397E+03  0.23124767827E+03  0.12509162714E+03 0.  0.
          5    1    3    3  502    0 -0.49349205827E+02  0.33668263631E+02  0.35407409345E+02  0.69570490355E+02  0.41800000000E+01 0.  1.
         -5    1    3    3    0  502  0.96243263650E+01 -0.46231053475E+02  0.15457070462E+03  0.16167718791E+03  0.41800000000E+01 0.  1.
        -11    1    1    2    0    0 -0.27281966735E+02 -0.82304844476E+01 -0.79316890422E+01  0.29579693613E+02  0.00000000000E+00 0.  1.
         11    1    1    2    0    0  0.67006846197E+02  0.20793274291E+02  0.35540407944E+02  0.78647303131E+02  0.00000000000E+00 0. -1.
</event>
<event>
 7    1  0.2564986E-009  0.6129418E+02  0.7561462E-02  0.1392480E+00
          2   -1    0    0  501    0  0.00000000000E+00  0.00000000000E+00  0.52680821696E+02  0.52680821696E+02  0.00000000000E+00 0. -1.
         -2   -1    0    0    0  501 -0.00000000000E+00 -0.00000000000E+00 -0.25480935943E+03  0.25480935943E+03  0.00000000000E+00 0.  1.
         25    2    1    2    0    0 -0.29877042795E+02  0.12241834209E+02 -0.79023195169E+02  0.15144050771E+03  0.12508821611E+03 0.  0.
          5    1    3    3  502    0 -0.29800854300E+02  0.25631689446E+02  0.24806156914E+02  0.46667893050E+02  0.41800000000E+01 0. -1.
         -5    1    3    3    0  502 -0.76188495064E-01 -0.13389855237E+02 -0.10382935208E+03  0.10477261466E+03  0.41800000000E+01 0. -1.
        -11    1    1    2    0    0  0.48809796048E+02 -0.11153659110E+02 -0.12715577984E+03  0.13665794031E+03  0.00000000000E+00 0.  1.
         11    1    1    2    0    0 -0.18932753252E+02 -0.10881750990E+01  0.40504372820E+01  0.19391733108E+02  0.00000000000E+00 0. -1.
</event>
<event>
 7    1  0.2564986E-009  0.1280001E+03  0.7561462E-02  0.1230454E+00
         -2   -1    0    0    0  501 -0.00000000000E+00  0.00000000000E+00  0.33738542847E+02  0.33738542847E+02  0.00000000000E+00 0.  1.
          2   -1    0    0  501    0  0.00000000000E+00 -0.00000000000E+00 -0.69041965326E+03  0.69041965326E+03  0.00000000000E+00 0. -1.
         25    2    1    2    0    0 -0.59624259659E+02  0.86458538271E+02 -0.40447007133E+03  0.43620637894E+03  0.12509930156E+03 0.  0.
          5    1    3    3  502    0  0.42193739182E+01  0.36305450790E+02 -0.30738977066E+03  0.30958332058E+03  0.41800000000E+01 0.  1.
         -5    1    3    3    0  502 -0.63843633577E+02  0.50153087481E+02 -0.97080300670E+02  0.12662305837E+03  0.41800000000E+01 0.  1.
        -11    1    1    2    0    0 -0.12708291887E+02 -0.59312882249E+02 -0.12850641161E+03  0.14210354150E+03  0.00000000000E+00 0. -1.
         11    1    1    2    0    0  0.72332551545E+02 -0.27145656022E+02 -0.12370462747E+03  0.14584827566E+03  0.00000000000E+00 0.  1.
</event>
<event>
 7    1  0.2564986E-009  0.1589814E+03  0.7561462E-02  0.1189852E+00
          1   -1    0    0  501    0  0.00000000000E+00  0.00000000000E+00  0.67208584957E+02  0.67208584957E+02  0.00000000000E+00 0. -1.
         -1   -1    0    0    0  501 -0.00000000000E+00 -0.00000000000E+00 -0.42606899047E+03  0.42606899047E+03  0.00000000000E+00 0.  1.
         25    2    1    2    0    0 -0.83014089862E+02 -0.95637836977E+02 -0.14515213863E+03  0.22968538997E+03  0.12509316544E+03 0.  0.
          5    1    3    3  502    0 -0.67468221203E+02 -0.14026457885E+00 -0.10493237273E+03  0.12482089486E+03  0.41800000000E+01 0.  1.
         -5    1    3    3    0  502 -0.15545868659E+02 -0.95497572398E+02 -0.40219765898E+02  0.10486449511E+03  0.41800000000E+01 0.  1.
        -11    1    1    2    0    0  0.15795623806E+02  0.83789560736E+02 -0.13175821297E+03  0.15694081338E+03  0.00000000000E+00 0.  1.
         11    1    1    2    0    0  0.67218466056E+02  0.11848276241E+02 -0.81950053912E+02  0.10665137207E+03  0.00000000000E+00 0. -1.
</event>
<event>
 7    1  0.2564986E-009  0.1247893E+03  0.7561462E-02  0.1235399E+00
          1   -1    0    0  501    0  0.00000000000E+00  0.00000000000E+00  0.48840903505E+03  0.48840903505E+03  0.00000000000E+00 0. -1.
         -1   -1    0    0    0  501 -0.00000000000E+00 -0.00000000000E+00 -0.39453961519E+02  0.39453961519E+02  0.00000000000E+00 0.  1.
         25    2    1    2    0    0  0.44632488172E+02 -0.36160078933E+02  0.35485832077E+03  0.38061971175E+03  0.12508927549E+03 0.  0.
          5    1    3    3  502    0  0.62785210766E+02 -0.72993084388E+02  0.24911751301E+03  0.26710855612E+03  0.41800000000E+01 0. -1.
         -5    1    3    3    0  502 -0.18152722594E+02  0.36833005455E+02  0.10574080775E+03  0.11351115563E+03  0.41800000000E+01 0. -1.
        -11    1    1    2    0    0 -0.67837657527E+02 -0.13190464521E+01  0.67772879187E+02  0.95900212803E+02  0.00000000000E+00 0.  1.
         11    1    1    2    0    0  0.23205169355E+02  0.37479125385E+02  0.26323873578E+02  0.51343072021E+02  0.00000000000E+00 0. -1.
</event>
<event>
 7    1  0.2564986E-009  0.9493357E+02  0.7561462E-02  0.1291326E+00
          2   -1    0    0  501    0  0.00000000000E+00  0.00000000000E+00  0.13613270338E+03  0.13613270338E+03  0.00000000000E+00 0. -1.
         -2   -1    0    0    0  501 -0.00000000000E+00 -0.00000000000E+00 -0.11023147327E+03  0.11023147327E+03  0.00000000000E+00 0.  1.
         25    2    1    2    0    0 -0.46422394337E+02 -0.64447259765E+01 -0.23134683555E+02  0.13557226521E+03  0.12509217530E+03 0.  0.
          5    1    3    3  502    0  0.39522964179E+01  0.46066468869E+02  0.20361665345E+02  0.50693293607E+02  0.41800000000E+01 0.  1.
         -5    1    3    3    0  502 -0.50374690755E+02 -0.52511194846E+02 -0.43496348900E+02  0.84878971603E+02  0.41800000000E+01 0.  1.
        -11    1    1    2    0    0  0.25311197844E+01  0.23375677950E+02 -0.17496376242E+02  0.29307884069E+02  0.00000000000E+00 0.  1.
         11    1    1    2    0    0  0.43891274552E+02 -0.16930951973E+02  0.66532289902E+02  0.81484027369E+02  0.00000000000E+00 0. -1.
</event>
<event>
 7    1  0.2564986E-009  0.8273833E+02  0.7561462E-02  0.1321455E+00
         -2   -1    0    0    0  501 -0.00000000000E+00  0.00000000000E+00  0.14506050576E+02  0.14506050576E+02  0.00000000000E+00 0.  1.
          2   -1    0    0  501    0  0.00000000000E+00 -0.00000000000E+00 -0.77203953638E+03  0.77203953638E+03  0.00000000000E+00 0. -1.
         25    2    1    2    0    0  0.40294764404E+02 -0.28742585861E+02 -0.45335892632E+03  0.47289844314E+03  0.12509523242E+03 0.  0.
          5    1    3    3  502    0  0.44463602125E+02 -0.50783468934E+02 -0.11239558774E+03  0.13117245585E+03  0.41800000000E+01 0. -1.
         -5    1    3    3    0  502 -0.41688377213E+01  0.22040883073E+02 -0.34096333858E+03  0.34172598729E+03  0.41800000000E+01 0. -1.
        -11    1    1    2    0    0  0.11682472014E+02 -0.53725798135E+01 -0.32547280047E+02  0.34995288321E+02  0.00000000000E+00 0.  1.
         11    1    1    2    0    0 -0.51977236417E+02  0.34115165674E+02 -0.27162727944E+03  0.27865185550E+03  0.00000000000E+00 0. -1.
</event>
<event>
 7    1  0.2564986E-009  0.1266350E+03  0.7561462E-02  0.1232536E+00
         -2   -1    0    0    0  501 -0.00000000000E+00  0.00000000000E+00  0.19501952307E+03  0.19501952307E+03  0.00000000000E+00 0. -1.
          2   -1    0    0  501    0  0.00000000000E+00 -0.00000000000E+00 -0.10013506244E+03  0.10013506244E+03  0.00000000000E+00 0.  1.
         25    2    1    2    0    0 -0.59470587703E+02 -0.45274228086E+02  0.98135000051E+02  0.17568115237E+03  0.12508749950E+03 0.  0.
          5    1    3    3  502    0  0.32976814351E+02 -0.15068373061E+02  0.61804371733E+02  0.71775893702E+02  0.41800000000E+01 0. -1.
         -5    1    3    3    0  502 -0.92447402054E+02 -0.30205855025E+02  0.36330628318E+02  0.10390525867E+03  0.41800000000E+01 0. -1.
        -11    1    1    2    0    0  0.44560245188E+02  0.74390071158E+02 -0.20128360811E+01  0.86738397767E+02  0.00000000000E+00 0. -1.
         11    1    1    2    0    0  0.14910342515E+02 -0.29115843072E+02 -0.12377033439E+01  0.32735035379E+02  0.00000000000E+00 0.  1.
</event>
<event>
 7    1  0.2564986E-009  0.1221083E+03  0.7561462E-02  0.1239659E+00
         -4   -1    0    0    0  501 -0.00000000000E+00  0.00000000000E+00  0.21163269755E+02  0.21163269755E+02  0.00000000000E+00 0.  1.
          4   -1    0    0  501    0  0.00000000000E+00 -0.00000000000E+00 -0.80964781305E+03  0.80964781305E+03  0.00000000000E+00 0. -1.
         25    2    1    2    0    0 -0.66947665548E+02  0.19731022820E+02 -0.50685934362E+03  0.52671095518E+03  0.12508690144E+03 0.  0.
          5    1    3    3  502    0 -0.49123409993E+02 -0.45227828959E+02 -0.34357994400E+03  0.35003330733E+03  0.41800000000E+01 0. -1.
         -5    1    3    3    0  502 -0.17824255555E+02  0.64958851779E+02 -0.16327939962E+03  0.17667764785E+03  0.41800000000E+01 0. -1.
        -11    1    1    2    0    0  0.41020893984E+02 -0.53394581628E+02 -0.21296503226E+03  0.22335577014E+03  0.00000000000E+00 0. -1.
         11    1    1    2    0    0  0.25926771563E+02  0.33663558808E+02 -0.68660167419E+02  0.80744357483E+02  0.00000000000E+00 0.  1.
</event>
<event>
 7    1  0.2564986E-009  0.9929943E+02  0.7561462E-02  0.1281776E+00
         -2   -1    0    0    0  501 -0.00000000000E+00  0.00000000000E+00  0.34550937307E+02  0.34550937307E+02  0.00000000000E+00 0.  1.
          2   -1    0    0  501    0  0.00000000000E+00 -0.00000000000E+00 -0.63269350318E+03  0.63269350318E+03  0.00000000000E+00 0. -1.
         25    2    1    2    0    0 -0.39405125228E+02  0.33029129126E+02 -0.51835341320E+03  0.53570611241E+03  0.12508833128E+03 0.  0.
          5    1    3    3  502    0  0.45303552568E+02  0.14284039802E+02 -0.21053060887E+03  0.21586351090E+03  0.41800000000E+01 0. -1.
         -5    1    3    3    0  502 -0.84708677796E+02  0.18745089324E+02 -0.30782280434E+03  0.31984260150E+03  0.41800000000E+01 0. -1.
        -11    1    1    2    0    0  0.44171141062E+02 -0.16995965615E+02 -0.96757130443E+02  0.10771209236E+03  0.00000000000E+00 0. -1.
         11    1    1    2    0    0 -0.47660158340E+01 -0.16033163511E+02  0.16967977769E+02  0.23826235722E+02  0.00000000000E+00 0.  1.
</event>
<event>
 7    1  0.2564986E-009  0.7928230E+02  0.7561462E-02  0.1331101E+00
          2   -1    0    0  501    0  0.00000000000E+00  0.00000000000E+00  0.15006893869E+03  0.15006893869E+03  0.00000000000E+00 0. -1.
         -2   -1    0    0    0  501 -0.00000000000E+00 -0.00000000000E+00 -0.13374697686E+03  0.13374697686E+03  0.00000000000E+00 0.  1.
         25    2    1    2    0    0 -0.12335779886E+01 -0.34055853208E+02  0.93422028818E+02  0.15980270921E+03  0.12509159664E+03 0.  0.
          5    1    3    3  502    0 -0.45015215350E+02 -0.54187394209E+02  0.22717397156E+02  0.74136332778E+02  0.41800000000E+01 0.  1.
         -5    1    3    3    0  502  0.43781637361E+02  0.20131541001E+02  0.70704631662E+02  0.85666376436E+02  0.41800000000E+01 0.  1.
        -11    1    1    2    0    0  0.10548675537E+02  0.21925633887E+02 -0.96379936970E+02  0.99403723408E+02  0.00000000000E+00 0.  1.
         11    1    1    2    0    0 -0.93150975484E+01  0.12130219321E+02  0.19279869990E+02  0.24609482928E+02  0.00000000000E+00 0. -1.
</event>
<event>
 7    1  0.2564986E-009  0.1179145E+03  0.7561462E-02  0.1246578E+00
          2   -1    0    0  501    0  0.00000000000E+00  0.00000000000E+00  0.48424350177E+02  0.48424350177E+02  0.00000000000E+00 0. -1.
         -2   -1    0    0    0  501 -0.00000000000E+00 -0.00000000000E+00 -0.33951700910E+03  0.33951700910E+03  0.00000000000E+00 0.  1.
         25    2    1    2    0    0 -0.67046603861E+02 -0.53032673009E+00 -0.17897727754E+03  0.22842126387E+03  0.12509148483E+03 0.  0.
          5    1    3    3  502    0 -0.97131796106E+02  0.95487187022E+01 -0.86212480733E+02  0.13029132004E+03  0.41800000000E+01 0.  1.
         -5    1    3    3    0  502  0.30085192245E+02 -0.10079045432E+02 -0.92764796812E+02  0.98129943834E+02  0.41800000000E+01 0.  1.
        -11    1    1    2    0    0  0.71574526362E+02  0.29060804442E+02 -0.52875853539E+02  0.93612494178E+02  0.00000000000E+00 0.  1.
         11    1    1    2    0    0 -0.45279225014E+01 -0.28530477712E+02 -0.59239527843E+02  0.65907601229E+02  0.00000000000E+00 0. -1.
</event>
<event>
 7    1  0.2564986E-009  0.1088948E+03  0.7561462E-02  0.1262630E+00
          1   -1    0    0  501    0  0.00000000000E+00  0.00000000000E+00  0.62126945066E+03  0.62126945066E+03  0.00000000000E+00 0. -1.
         -1   -1    0    0    0  501 -0.00000000000E+00 -0.00000000000E+00 -0.20706408303E+02  0.20706408303E+02  0.00000000000E+00 0.  1.
         25    2    1    2    0    0  0.27449607398E+02 -0.68470427684E+01  0.29359901886E+03  0.32038679552E+03  0.12508777688E+03 0.  0.
          5    1    3    3  502    0  0.58405793411E+02  0.40467734701E+02  0.15120222993E+03  0.16711810492E+03  0.41800000000E+01 0. -1.
         -5    1    3    3    0  502 -0.30956186014E+02 -0.47314777470E+02  0.14239678893E+03  0.15326869059E+03  0.41800000000E+01 0. -1.
        -11    1    1    2    0    0  0.72242000988E+01  0.40771220468E+02  0.19848613653E+03  0.20275903896E+03  0.00000000000E+00 0. -1.
         11    1    1    2    0    0 -0.34673807496E+02 -0.33924177700E+02  0.10847788697E+03  0.11883002449E+03  0.00000000000E+00 0.  1.
</event>
<event>
 7    1  0.2564986E-009  0.1775183E+03  0.7561462E-02  0.1170227E+00
          2   -1    0    0  501    0  0.00000000000E+00  0.00000000000E+00  0.37040450341E+03  0.37040450341E+03  0.00000000000E+00 0. -1.
         -2   -1    0    0    0  501 -0.00000000000E+00 -0.00000000000E+00 -0.10448195086E+03  0.10448195086E+03  0.00000000000E+00 0.  1.
         25    2    1    2    0    0  0.26158749846E+02  0.14721333040E+03  0.58262007382E+02  0.20346325342E+03  0.12508712623E+03 0.  0.
          5    1    3    3  502    0  0.58916566985E+02  0.13335610051E+03  0.74917407847E+02  0.16396677044E+03  0.41800000000E+01 0. -1.
         -5    1    3    3    0  502 -0.32757817138E+02  0.13857229885E+02 -0.16655400464E+02  0.39496482987E+02  0.41800000000E+01 0. -1.
        -11    1    1    2    0    0 -0.56865641786E+02 -0.11800977808E+03  0.14124432008E+03  0.19263947387E+03  0.00000000000E+00 0.  1.
         11    1    1    2    0    0  0.30706891939E+02 -0.29203552314E+02  0.66416225089E+02  0.78783726970E+02  0.00000000000E+00 0. -1.
</event>
<event>
 7    1  0.2564986E-009  0.2058823E+03  0.7561462E-02  0.1144869E+00
          2   -1    0    0  501    0  0.00000000000E+00  0.00000000000E+00  0.30179722597E+04  0.30179722597E+04  0.00000000000E+00 0.  1.
         -2   -1    0    0    0  501 -0.00000000000E+00 -0.00000000000E+00 -0.19182887492E+02  0.19182887492E+02  0.00000000000E+00 0. -1.
         25    2    1    2    0    0 -0.16642530898E+03  0.66765702077E+02  0.22863747875E+04  0.22968048762E+04  0.12509167813E+03 0.  0.
          5    1    3    3  502    0 -0.14954731427E+03  0.53219361379E+01  0.13552081294E+04  0.13634512344E+04  0.41800000000E+01 0.  1.
         -5    1    3    3    0  502 -0.16877994711E+02  0.61443765939E+02  0.93116665808E+03  0.93335364176E+03  0.41800000000E+01 0.  1.
        -11    1    1    2    0    0  0.13797504740E+03 -0.14544792740E+02  0.55496909366E+03  0.57204838923E+03  0.00000000000E+00 0.  1.
         11    1    1    2    0    0  0.28450261577E+02 -0.52220909337E+02  0.15744549102E+03  0.16830188175E+03  0.00000000000E+00 0. -1.
</event>
<event>
 7    1  0.3259272E-009  0.1678118E+03  0.7561462E-02  0.1180149E+00
          4   -1    0    0  501    0  0.00000000000E+00  0.00000000000E+00  0.20167502413E+03  0.20167502413E+03  0.00000000000E+00 0. -1.
         -4   -1    0    0    0  501 -0.00000000000E+00 -0.00000000000E+00 -0.14154427976E+03  0.14154427976E+03  0.00000000000E+00 0.  1.
         25    2    1    2    0    0 -0.90103889900E+02 -0.92324011358E+02  0.37202637506E+02  0.18350421647E+03  0.12508927683E+03 0.  0.
          5    1    3    3  502    0  0.18760179512E+02  0.15279505486E+02 -0.41300088954E+01  0.24898534027E+02  0.41800000000E+01 0.  1.
         -5    1    3    3    0  502 -0.10886406941E+03 -0.10760351684E+03  0.41332646401E+02  0.15860568245E+03  0.41800000000E+01 0.  1.
        -11    1    1    2    0    0  0.59509672901E+02 -0.12226068318E+01  0.56783977843E+01  0.59792475594E+02  0.00000000000E+00 0. -1.
         11    1    1    2    0    0  0.30594216999E+02  0.93546618190E+02  0.17249709082E+02  0.99922611815E+02  0.00000000000E+00 0.  1.
</event>
<event>
 7    1  0.2564986E-009  0.9318283E+02  0.7561462E-02  0.1295322E+00
          1   -1    0    0  501    0  0.00000000000E+00  0.00000000000E+00  0.53002171960E+02  0.53002171960E+02  0.00000000000E+00 0. -1.
         -1   -1    0    0    0  501 -0.00000000000E+00 -0.00000000000E+00 -0.34406406088E+03  0.34406406088E+03  0.00000000000E+00 0.  1.
         25    2    1    2    0    0 -0.22554083200E+02  0.65237146365E+02 -0.97970513924E+02  0.17322873066E+03  0.12508157175E+03 0.  0.
          5    1    3    3  502    0 -0.22407318060E+01  0.83454734788E+02 -0.13893448874E+02  0.84736143169E+02  0.41800000000E+01 0.  1.
         -5    1    3    3    0  502 -0.20313351394E+02 -0.18217588423E+02 -0.84077065050E+02  0.88492587488E+02  0.41800000000E+01 0.  1.
        -11    1    1    2    0    0 -0.59049105469E+01 -0.26232553849E+02 -0.22499194813E+01  0.26982901765E+02  0.00000000000E+00 0. -1.
         11    1    1    2    0    0  0.28458993747E+02 -0.39004592516E+02 -0.19084145551E+03  0.19685460041E+03  0.00000000000E+00 0.  1.
</event>
<event>
 7    1  0.2964793E-009  0.1163846E+03  0.7561462E-02  0.1249183E+00
          2   -1    0    0  501    0  0.00000000000E+00  0.00000000000E+00  0.22927078844E+04  0.22927078844E+04  0.00000000000E+00 0. -1.
         -2   -1    0    0    0  501 -0.00000000000E+00 -0.00000000000E+00 -0.99007470327E+01  0.99007470327E+01  0.00000000000E+00 0.  1.
         25    2    1    2    0    0 -0.42562580301E+02 -0.49629053413E+02  0.18502990506E+04  0.18556749612E+04  0.12509343996E+03 0.  0.
          5    1    3    3  502    0 -0.65060094691E+02 -0.65428090630E+02  0.17182089506E+04  0.17206897226E+04  0.41800000000E+01 0.  1.
         -5    1    3    3    0  502  0.22497514390E+02  0.15799037217E+02  0.13209010001E+03  0.13498523864E+03  0.41800000000E+01 0.  1.
        -11    1    1    2    0    0  0.70167623666E+02  0.21984994689E+02  0.27702613579E+03  0.28661876302E+03  0.00000000000E+00 0.  1.
         11    1    1    2    0    0 -0.27605043365E+02  0.27644058724E+02  0.15548195098E+03  0.16031490724E+03  0.00000000000E+00 0. -1.
</event>
<event>
 7    1  0.2564986E-009  0.1187697E+03  0.7561462E-02  0.1245141E+00
          4   -1    0    0  501    0  0.00000000000E+00  0.00000000000E+00  0.10600001077E+03  0.10600001077E+03  0.00000000000E+00 0. -1.
         -4   -1    0    0    0  501 -0.00000000000E+00 -0.00000000000E+00 -0.22999594405E+03  0.22999594405E+03  0.00000000000E+00 0.  1.
         25    2    1    2    0    0  0.80107861102E+02  0.53423121296E+02 -0.39031792660E+01  0.15790444050E+03  0.12508908115E+03 0.  0.
          5    1    3    3  502    0  0.83931036150E+02  0.35592000990E+02  0.47727592655E+02  0.10298837247E+03  0.41800000000E+01 0.  1.
         -5    1    3    3    0  502 -0.38231750484E+01  0.17831120306E+02 -0.51630771921E+02  0.54916068031E+02  0.41800000000E+01 0.  1.
        -11    1    1    2    0    0 -0.70994550681E+02  0.23718874103E+01 -0.87968252065E+02  0.11306752605E+03  0.00000000000E+00 0.  1.
         11    1    1    2    0    0 -0.91133104213E+01 -0.55795008706E+02 -0.32124501949E+02  0.65023988257E+02  0.00000000000E+00 0. -1.
</event>
<event>
 7    1  0.2564986E-009  0.1060600E+03  0.7561462E-02  0.1268045E+00
          1   -1    0    0  501    0  0.00000000000E+00  0.00000000000E+00  0.14238597490E+03  0.14238597490E+03  0.00000000000E+00 0. -1.
         -1   -1    0    0    0  501 -0.00000000000E+00 -0.00000000000E+00 -0.20816984743E+03  0.20816984743E+03  0.00000000000E+00 0.  1.
         25    2    1    2    0    0  0.11980151116E+02  0.44576182827E+02 -0.16192123323E+03  0.20975186671E+03  0.12508716849E+03 0.  0.
          5    1    3    3  502    0  0.22523209775E+02  0.74131245571E+02 -0.47370659276E+02  0.90907581140E+02  0.41800000000E+01 0.  1.
         -5    1    3    3    0  502 -0.10543058659E+02 -0.29555062745E+02 -0.11455057395E+03  0.11884428557E+03  0.41800000000E+01 0.  1.
        -11    1    1    2    0    0 -0.15059577371E+02  0.27168315638E+02  0.28632754753E+02  0.42246217463E+02  0.00000000000E+00 0. -1.
         11    1    1    2    0    0  0.30794262546E+01 -0.71744498464E+02  0.67504605946E+02  0.98557738154E+02  0.00000000000E+00 0.  1.
</event>
<event>
 7    1  0.2564986E-009  0.1039715E+03  0.7561462E-02  0.1272159E+00
         -2   -1    0    0    0  501 -0.00000000000E+00  0.00000000000E+00  0.95604709829E+01  0.95604709829E+01  0.00000000000E+00 0.  1.
          2   -1    0    0  501    0  0.00000000000E+00 -0.00000000000E+00 -0.15168462948E+04  0.15168462948E+04  0.00000000000E+00 0. -1.
         25    2    1    2    0    0  0.38887081007E+02 -0.16003706271E+02 -0.10620993226E+04  0.10702666100E+04  0.12508925501E+03 0.  0.
          5    1    3    3  502    0  0.18800625801E+02 -0.58425499545E+02 -0.88072194693E+03  0.88286783991E+03  0.41800000000E+01 0.  1.
         -5    1    3    3    0  502  0.20086455206E+02  0.42421793274E+02 -0.18137737566E+03  0.18739877008E+03  0.41800000000E+01 0.  1.
        -11    1    1    2    0    0  0.68896861249E+01 -0.32139502806E+02 -0.13999961606E+03  0.14380649468E+03  0.00000000000E+00 0. -1.
         11    1    1    2    0    0 -0.45776767132E+02  0.48143209077E+02 -0.30518688518E+03  0.31233366113E+03  0.00000000000E+00 0.  1.
</event>
<event>
 7    1  0.2564986E-009  0.1947995E+03  0.7561462E-02  0.1154202E+00
         -4   -1    0    0    0  501 -0.00000000000E+00  0.00000000000E+00  0.10577718683E+04  0.10577718683E+04  0.00000000000E+00 0.  1.
          4   -1    0    0  501    0  0.00000000000E+00 -0.00000000000E+00 -0.40074257619E+02  0.40074257619E+02  0.00000000000E+00 0. -1.
         25    2    1    2    0    0  0.10353495212E+03 -0.14067359038E+03  0.54850725907E+03  0.58908197536E+03  0.12509522416E+03 0.  0.
          5    1    3    3  502    0 -0.14123298534E+01  0.20026686969E+02  0.31553209915E+02  0.37631639913E+02  0.41800000000E+01 0.  1.
         -5    1    3    3    0  502  0.10494728197E+03 -0.16070027735E+03  0.51695404915E+03  0.55145033545E+03  0.41800000000E+01 0.  1.
        -11    1    1    2    0    0 -0.72244502949E+02  0.73769209378E+02  0.37563395238E+03  0.38956646498E+03  0.00000000000E+00 0.  1.
         11    1    1    2    0    0 -0.31290449170E+02  0.66904381005E+02  0.93556399205E+02  0.11919768554E+03  0.00000000000E+00 0. -1.
</event>
<event>
 7    1  0.3168391E-009  0.2038180E+03  0.7561462E-02  0.1146557E+00
         -2   -1    0    0    0  501 -0.00000000000E+00  0.00000000000E+00  0.56654481839E+02  0.56654481839E+02  0.00000000000E+00 0.  1.
          2   -1    0    0  501    0  0.00000000000E+00 -0.00000000000E+00 -0.75865010517E+03  0.75865010517E+03  0.00000000000E+00 0. -1.
         25    2    1    2    0    0 -0.16376657966E+03 -0.63762097522E+02 -0.34011899221E+03  0.40275586642E+03  0.12508501659E+03 0.  0.
          5    1    3    3  502    0  0.17016818141E+01 -0.49345229790E+02 -0.79959512627E+02  0.94068291595E+02  0.41800000000E+01 0.  1.
         -5    1    3    3    0  502 -0.16546826148E+03 -0.14416867731E+02 -0.26015947958E+03  0.30868757482E+03  0.41800000000E+01 0.  1.
        -11    1    1    2    0    0  0.12332933674E+03  0.87192402537E+01 -0.18091058266E+03  0.21912277237E+03  0.00000000000E+00 0.  1.
         11    1    1    2    0    0  0.40437242926E+02  0.55042857268E+02 -0.18096604846E+03  0.19342594822E+03  0.00000000000E+00 0. -1.
</event>
<event>
 7    1  0.2564986E-009  0.1127840E+03  0.7561462E-02  0.1255499E+00
         -1   -1    0    0    0  501 -0.00000000000E+00  0.00000000000E+00  0.14586237068E+03  0.14586237068E+03  0.00000000000E+00 0.  1.
          1   -1    0    0  501    0  0.00000000000E+00 -0.00000000000E+00 -0.10484694886E+03  0.10484694886E+03  0.00000000000E+00 0. -1.
         25    2    1    2    0    0 -0.26315371216E+02  0.38773629383E+02  0.58832903063E+02  0.14596107952E+03  0.12508970044E+03 0.  0.
          5    1    3    3  502    0  0.46765315860E+02 -0.53122752110E+01  0.29059304148E+02  0.55471890116E+02  0.41800000000E+01 0. -1.
         -5    1    3    3    0  502 -0.73080687076E+02  0.44085904594E+02  0.29773598915E+02  0.90489189408E+02  0.41800000000E+01 0. -1.
        -11    1    1    2    0    0  0.54133587349E+02 -0.35774610306E+02  0.95785009396E+01  0.65589753026E+02  0.00000000000E+00 0.  1.
         11    1    1    2    0    0 -0.27818216133E+02 -0.29990190768E+01 -0.27395982175E+02  0.39158486993E+02  0.00000000000E+00 0. -1.
</event>
<event>
 7    1  0.2564986E-009  0.1288609E+03  0.7561462E-02  0.1229156E+00
         -3   -1    0    0    0  501 -0.00000000000E+00  0.00000000000E+00  0.52020351731E+03  0.52020351731E+03  0.00000000000E+00 0.  1.
          3   -1    0    0  501    0  0.00000000000E+00 -0.00000000000E+00 -0.35864986429E+02  0.35864986429E+02  0.00000000000E+00 0. -1.
         25    2    1    2    0    0  0.28424029115E+02  0.78985361651E+02  0.28271642474E+03  0.32034430397E+03  0.12508110760E+03 0.  0.
          5    1    3    3  502    0  0.66086323794E+02  0.71337889937E+02  0.12761438026E+03  0.16049734946E+03  0.41800000000E+01 0. -1.
         -5    1    3    3    0  502 -0.37662294679E+02  0.76474717137E+01  0.15510204448E+03  0.15984695451E+03  0.41800000000E+01 0. -1.
        -11    1    1    2    0    0  0.19829519208E+02 -0.69861742843E+02  0.12944864904E+03  0.14842784672E+03  0.00000000000E+00 0.  1.
         11    1    1    2    0    0 -0.48253548323E+02 -0.91236188081E+01  0.72173457100E+02  0.87296353050E+02  0.00000000000E+00 0. -1.
</event>
<event>
 7    1  0.2564986E-009  0.1137852E+03  0.7561462E-02  0.1253717E+00
         -3   -1    0    0    0  501 -0.00000000000E+00  0.00000000000E+00  0.15297202290E+03  0.15297202290E+03  0.00000000000E+00 0.  1.
          3   -1    0    0  501    0  0.00000000000E+00 -0.00000000000E+00 -0.13300983851E+03  0.13300983851E+03  0.00000000000E+00 0. -1.
         25    2    1    2    0    0  0.35571971680E+02 -0.29937984883E+02 -0.69279848716E+02  0.15035943362E+03  0.12508642505E+03 0.  0.
          5    1    3    3  502    0 -0.18635715307E+02 -0.64318649644E+02 -0.22299193950E+02  0.70702935073E+02  0.41800000000E+01 0.  1.
         -5    1    3    3    0  502  0.54207686988E+02  0.34380664761E+02 -0.46980654767E+02  0.79656498544E+02  0.41800000000E+01 0.  1.
        -11    1    1    2    0    0 -0.37455695197E+02  0.57445107979E+02  0.82420705028E+02  0.10721959779E+03  0.00000000000E+00 0.  1.
         11    1    1    2    0    0  0.18837235164E+01 -0.27507123095E+02  0.68213280751E+01  0.28402829999E+02  0.00000000000E+00 0. -1.
</event>
<event>
 7    1  0.4387969E-009  0.1512604E+03  0.7561462E-02  0.1198933E+00
         -1   -1    0    0    0  501 -0.00000000000E+00  0.00000000000E+00  0.27590754993E+03  0.27590754993E+03  0.00000000000E+00 0.  1.
          1   -1    0    0  501    0  0.00000000000E+00 -0.00000000000E+00 -0.11900672978E+03  0.11900672978E+03  0.00000000000E+00 0. -1.
         25    2    1    2    0    0  0.66384345774E+02 -0.12333527715E+03  0.12326696982E+03  0.22463041426E+03  0.12508239368E+03 0.  0.
          5    1    3    3  502    0  0.37439703902E+02 -0.61442292696E+02 -0.11966259495E+02  0.73058541776E+02  0.41800000000E+01 0. -1.
         -5    1    3    3    0  502  0.28944641872E+02 -0.61892984458E+02  0.13523322931E+03  0.15157187248E+03  0.41800000000E+01 0. -1.
        -11    1    1    2    0    0  0.55323182608E+01  0.75318064341E+02  0.36250951577E+02  0.83770811454E+02  0.00000000000E+00 0. -1.
         11    1    1    2    0    0 -0.71916664035E+02  0.48017212813E+02 -0.26171012426E+01  0.86513053993E+02  0.00000000000E+00 0.  1.
</event>
<event>
 7    1  0.2564986E-009  0.1037612E+03  0.7561462E-02  0.1272580E+00
         -1   -1    0    0    0  501 -0.00000000000E+00  0.00000000000E+00  0.18072884852E+03  0.18072884852E+03  0.00000000000E+00 0.  1.
          1   -1    0    0  501    0  0.00000000000E+00 -0.00000000000E+00 -0.10003150113E+03  0.10003150113E+03  0.00000000000E+00 0. -1.
         25    2    1    2    0    0  0.22136034588E+02 -0.59148055343E+00 -0.36955265248E+02  0.13229715548E+03  0.12508593782E+03 0.  0.
          5    1    3    3  502    0  0.60506444541E+02 -0.30742446407E+02 -0.46528499232E+02  0.82392363013E+02  0.41800000000E+01 0.  1.
         -5    1    3    3    0  502 -0.38370409953E+02  0.30150965853E+02  0.95732339839E+01  0.49904792463E+02  0.41800000000E+01 0.  1.
        -11    1    1    2    0    0  0.33728228539E+02  0.65763303302E+01  0.45133225808E+02  0.56726092698E+02  0.00000000000E+00 0.  1.
         11    1    1    2    0    0 -0.55864263127E+02 -0.59848497768E+01  0.72519386826E+02  0.91737101475E+02  0.00000000000E+00 0. -1.
</event>
<event>
 7    1  0.2564986E-009  0.5005292E+02  0.7561462E-02  0.1445056E+00
         -2   -1    0    0    0  501 -0.00000000000E+00  0.00000000000E+00  0.65060288451E+02  0.65060288451E+02  0.00000000000E+00 0.  1.
          2   -1    0    0  501    0  0.00000000000E+00 -0.00000000000E+00 -0.20606223441E+03  0.20606223441E+03  0.00000000000E+00 0. -1.
         25    2    1    2    0    0 -0.24499552270E+02 -0.30216827065E+02 -0.98102827812E+02  0.16366134384E+03  0.12509031114E+03 0.  0.
          5    1    3    3  502    0 -0.27568929602E+02 -0.35966916068E+02  0.16789797202E+02  0.48508088201E+02  0.41800000000E+01 0.  1.
         -5    1    3    3    0  502  0.30693773311E+01  0.57500890028E+01 -0.11489262501E+03  0.11515325564E+03  0.41800000000E+01 0.  1.
        -11    1    1    2    0    0  0.12161791694E+02 -0.20267001943E+01 -0.65203824004E+02  0.66359289897E+02  0.00000000000E+00 0. -1.
         11    1    1    2    0    0  0.12337760576E+02  0.32243527259E+02  0.22304705861E+02  0.41101889125E+02  0.00000000000E+00 0.  1.
</event>
<event>
 7    1  0.2564986E-009  0.1580828E+03  0.7561462E-02  0.1190878E+00
          3   -1    0    0  501    0  0.00000000000E+00  0.00000000000E+00  0.25883474181E+03  0.25883474181E+03  0.00000000000E+00 0. -1.
         -3   -1    0    0    0  501 -0.00000000000E+00 -0.00000000000E+00 -0.11509827450E+03  0.11509827450E+03  0.00000000000E+00 0.  1.
         25    2    1    2    0    0 -0.13106452090E+03  0.26399231252E+02  0.80429349833E+02  0.19997476751E+03  0.12508476836E+03 0.  0.
          5    1    3    3  502    0 -0.31230610308E+02 -0.40926423534E+02  0.57560642622E+02  0.77337074826E+02  0.41800000000E+01 0. -1.
         -5    1    3    3    0  502 -0.99833910597E+02  0.67325654786E+02  0.22868707211E+02  0.12263769268E+03  0.41800000000E+01 0. -1.
        -11    1    1    2    0    0  0.34864006189E+02  0.16648973957E+02 -0.16245287163E+02  0.41911771811E+02  0.00000000000E+00 0.  1.
         11    1    1    2    0    0  0.96200514716E+02 -0.43048205209E+02  0.79552404640E+02  0.13204647700E+03  0.00000000000E+00 0. -1.
</event>
<event>
 7    1  0.2564986E-009  0.1090298E+03  0.7561462E-02  0.1262377E+00
          2   -1    0    0  501    0  0.00000000000E+00  0.00000000000E+00  0.50333398816E+02  0.50333398816E+02  0.00000000000E+00 0. -1.
         -2   -1    0    0    0  501 -0.00000000000E+00 -0.00000000000E+00 -0.34242570470E+03  0.34242570470E+03  0.00000000000E+00 0.  1.
         25    2    1    2    0    0 -0.48414436716E+02 -0.39160433545E+02 -0.22150059778E+03  0.26189169212E+03  0.12508895375E+03 0.  0.
          5    1    3    3  502    0 -0.73338616165E+02 -0.19902237595E+02 -0.58954387806E+02  0.96269122380E+02  0.41800000000E+01 0. -1.
         -5    1    3    3    0  502  0.24924179449E+02 -0.19258195950E+02 -0.16254620997E+03  0.16562256974E+03  0.41800000000E+01 0. -1.
        -11    1    1    2    0    0  0.75380167240E+02  0.34139842661E+02 -0.53969472622E+02  0.98794749076E+02  0.00000000000E+00 0.  1.
         11    1    1    2    0    0 -0.26965730524E+02  0.50205908843E+01 -0.16622235485E+02  0.32072662316E+02  0.00000000000E+00 0. -1.
</event>
<event>
 7    1  0.2564986E-009  0.2030621E+03  0.7561462E-02  0.1147181E+00
         -2   -1    0    0    0  501 -0.00000000000E+00  0.00000000000E+00  0.34267381062E+02  0.34267381062E+02  0.00000000000E+00 0. -1.
          2   -1    0    0  501    0  0.00000000000E+00 -0.00000000000E+00 -0.14345503874E+04  0.14345503874E+04  0.00000000000E+00 0.  1.
         25    2    1    2    0    0 -0.28052011371E+02  0.17847328412E+03 -0.56250709446E+03  0.60390494018E+03  0.12508923601E+03 0.  0.
          5    1    3    3  502    0 -0.48659081829E+02  0.15878739037E+03 -0.54598320151E+03  0.57069805529E+03  0.41800000000E+01 0.  1.
         -5    1    3    3    0  502  0.20607070458E+02  0.19685893751E+02 -0.16523892955E+02  0.33206884889E+02  0.41800000000E+01 0.  1.
        -11    1    1    2    0    0  0.64101984432E+02 -0.61664973541E+02 -0.43472851925E+03  0.44373473925E+03  0.00000000000E+00 0.  1.
         11    1    1    2    0    0 -0.36049973061E+02 -0.11680831058E+03 -0.40304739266E+03  0.42117808907E+03  0.00000000000E+00 0. -1.
</event>
<event>
 7    1  0.2564986E-009  0.1640106E+03  0.7561462E-02  0.1184242E+00
          2   -1    0    0  501    0  0.00000000000E+00  0.00000000000E+00  0.12087479521E+04  0.12087479521E+04  0.00000000000E+00 0. -1.
         -2   -1    0    0    0  501 -0.00000000000E+00 -0.00000000000E+00 -0.28663097556E+02  0.28663097556E+02  0.00000000000E+00 0.  1.
         25    2    1    2    0    0  0.10717386686E+03 -0.95311451595E+02  0.76761331625E+03  0.79085272863E+03  0.12508926639E+03 0.  0.
          5    1    3    3  502    0  0.92355723063E+01 -0.46176187215E+02  0.49142000610E+03  0.49368879960E+03  0.41800000000E+01 0. -1.
         -5    1    3    3    0  502  0.97938294550E+02 -0.49135264380E+02  0.27619331015E+03  0.29716392903E+03  0.41800000000E+01 0. -1.
        -11    1    1    2    0    0 -0.97945954210E+02  0.26229406661E+02  0.24063317455E+03  0.26112394837E+03  0.00000000000E+00 0. -1.
         11    1    1    2    0    0 -0.92279126458E+01  0.69082044934E+02  0.17183836374E+03  0.18543437264E+03  0.00000000000E+00 0.  1.
</event>
<event>
 7    1  0.2564986E-009  0.9129072E+02  0.7561462E-02  0.1299756E+00
          2   -1    0    0  501    0  0.00000000000E+00  0.00000000000E+00  0.42780682409E+03  0.42780682409E+03  0.00000000000E+00 0. -1.
         -2   -1    0    0    0  501 -0.00000000000E+00 -0.00000000000E+00 -0.40425564829E+02  0.40425564829E+02  0.00000000000E+00 0.  1.
         25    2    1    2    0    0  0.49353889047E+02  0.28488012581E+02  0.13092451668E+03  0.18983262228E+03  0.12509125544E+03 0.  0.
          5    1    3    3  502    0  0.85309417459E+01  0.38145561301E+02  0.14109232311E+03  0.14646629938E+03  0.41800000000E+01 0.  1.
         -5    1    3    3    0  502  0.40822947301E+02 -0.96575487202E+01 -0.10167806435E+02  0.43366322893E+02  0.41800000000E+01 0.  1.
        -11    1    1    2    0    0 -0.47086063401E+02  0.21011762981E+02  0.18041102901E+03  0.18763456755E+03  0.00000000000E+00 0. -1.
         11    1    1    2    0    0 -0.22678256460E+01 -0.49499775563E+02  0.76045713579E+02  0.90765199100E+02  0.00000000000E+00 0.  1.
</event>
<event>
 7    1  0.2564986E-009  0.1176610E+03  0.7561462E-02  0.1247006E+00
         -1   -1    0    0    0  501 -0.00000000000E+00  0.00000000000E+00  0.46496399169E+02  0.46496399169E+02  0.00000000000E+00 0.  1.
          1   -1    0    0  501    0  0.00000000000E+00 -0.00000000000E+00 -0.57670456235E+03  0.57670456235E+03  0.00000000000E+00 0. -1.
         25    2    1    2    0    0 -0.13931479516E+02  0.91400656948E+02 -0.43236062929E+03  0.45949036201E+03  0.12509001879E+03 0.  0.
          5    1    3    3  502    0 -0.15823450666E+02 -0.10743693872E+00 -0.28828444194E+03  0.28874865367E+03  0.41800000000E+01 0. -1.
         -5    1    3    3    0  502  0.18919711500E+01  0.91508093887E+02 -0.14407618735E+03  0.17074170833E+03  0.41800000000E+01 0. -1.
        -11    1    1    2    0    0  0.13351035363E+01  0.17577724271E+02 -0.14785221696E+01  0.17690249286E+02  0.00000000000E+00 0.  1.
         11    1    1    2    0    0  0.12596375980E+02 -0.10897838122E+03 -0.96369011718E+02  0.14602035023E+03  0.00000000000E+00 0. -1.
</event>
<event>
 7    1  0.2564986E-009  0.2030479E+03  0.7561462E-02  0.1147193E+00
         -2   -1    0    0    0  501 -0.00000000000E+00  0.00000000000E+00  0.53226694972E+02  0.53226694972E+02  0.00000000000E+00 0.  1.
          2   -1    0    0  501    0  0.00000000000E+00 -0.00000000000E+00 -0.81763567981E+03  0.81763567981E+03  0.00000000000E+00 0. -1.
         25    2    1    2    0    0 -0.11047297253E+03  0.13729003266E+03 -0.34733016248E+03  0.40906985977E+03  0.12508827952E+03 0.  0.
          5    1    3    3  502    0 -0.11987946839E+03  0.64483306365E+02 -0.17529805102E+03  0.22198212277E+03  0.41800000000E+01 0. -1.
         -5    1    3    3    0  502  0.94064958584E+01  0.72806726299E+02 -0.17203211147E+03  0.18708773700E+03  0.41800000000E+01 0. -1.
        -11    1    1    2    0    0  0.30754436124E+02 -0.10661534370E+03 -0.26643034466E+03  0.28861357454E+03  0.00000000000E+00 0. -1.
         11    1    1    2    0    0  0.79718536409E+02 -0.30674688960E+02 -0.15064847769E+03  0.17317894047E+03  0.00000000000E+00 0.  1.
</event>
<event>
 7    1  0.2564986E-009  0.3927808E+02  0.7561462E-02  0.1513592E+00
         -1   -1    0    0    0  501 -0.00000000000E+00  0.00000000000E+00  0.15838327821E+03  0.15838327821E+03  0.00000000000E+00 0.  1.
          1   -1    0    0  501    0  0.00000000000E+00 -0.00000000000E+00 -0.11276736256E+03  0.11276736256E+03  0.00000000000E+00 0. -1.
         25    2    1    2    0    0  0.20023929187E+02 -0.78288555504E+01 -0.51792666134E+02  0.13708645451E+03  0.12509183436E+03 0.  0.
          5    1    3    3  502    0  0.10830290607E+02 -0.60909679932E+00 -0.93167151619E+02  0.93889598649E+02  0.41800000000E+01 0. -1.
         -5    1    3    3    0  502  0.91936385794E+01 -0.72197587511E+01  0.41374485486E+02  0.43196855857E+02  0.41800000000E+01 0. -1.
        -11    1    1    2    0    0  0.11831162324E+02  0.17590867252E+02 -0.86494839939E+01  0.22896038652E+02  0.00000000000E+00 0. -1.
         11    1    1    2    0    0 -0.31855091511E+02 -0.97620117014E+01  0.10605806578E+03  0.11116814761E+03  0.00000000000E+00 0.  1.
</event>
<event>
 7    1  0.2564986E-009  0.1042988E+03  0.7561462E-02  0.1271507E+00
          2   -1    0    0  501    0  0.00000000000E+00  0.00000000000E+00  0.24597806213E+03  0.24597806213E+03  0.00000000000E+00 0. -1.
         -2   -1    0    0    0  501 -0.00000000000E+00 -0.00000000000E+00 -0.59040286699E+02  0.59040286699E+02  0.00000000000E+00 0.  1.
         25    2    1    2    0    0  0.83782885154E+01 -0.36959637692E+02  0.61932603431E+02  0.14463511034E+03  0.12508979670E+03 0.  0.
          5    1    3    3  502    0 -0.46326738948E+02 -0.54874825449E+02  0.43412815736E+02  0.84021176972E+02  0.41800000000E+01 0.  1.
         -5    1    3    3    0  502  0.54705027464E+02  0.17915187757E+02  0.18519787694E+02  0.60613933368E+02  0.41800000000E+01 0.  1.
        -11    1    1    2    0    0  0.30234019933E+02  0.22608931582E+02  0.11240512908E+02  0.39390466855E+02  0.00000000000E+00 0.  1.
         11    1    1    2    0    0 -0.38612308448E+02  0.14350706110E+02  0.11376465909E+03  0.12099277163E+03  0.00000000000E+00 0. -1.
</event>
<event>
 7    1  0.2564986E-009  0.1559518E+03  0.7561462E-02  0.1193344E+00
         -1   -1    0    0    0  501 -0.00000000000E+00  0.00000000000E+00  0.30338742081E+02  0.30338742081E+02  0.00000000000E+00 0.  1.
          1   -1    0    0  501    0  0.00000000000E+00 -0.00000000000E+00 -0.98593895333E+03  0.98593895333E+03  0.00000000000E+00 0. -1.
         25    2    1    2    0    0 -0.10714152661E+03 -0.71978253731E+02 -0.38787875956E+03  0.42750142834E+03  0.12508942156E+03 0.  0.
          5    1    3    3  502    0  0.59442693932E+01 -0.40400323499E+02 -0.30031497525E+02  0.50861416821E+02  0.41800000000E+01 0. -1.
         -5    1    3    3    0  502 -0.11308579600E+03 -0.31577930232E+02 -0.35784726203E+03  0.37664001152E+03  0.41800000000E+01 0. -1.
        -11    1    1    2    0    0  0.67087327354E+02 -0.42878725146E+01 -0.30391552482E+03  0.31126153242E+03  0.00000000000E+00 0.  1.
         11    1    1    2    0    0  0.40054199255E+02  0.76266126246E+02 -0.26380592687E+03  0.27751473464E+03  0.00000000000E+00 0. -1.
</event>
<event>
 7    1  0.2564986E-009  0.1776350E+03  0.7561462E-02  0.1170112E+00
         -1   -1    0    0    0  501 -0.00000000000E+00  0.00000000000E+00  0.61596638057E+02  0.61596638057E+02  0.00000000000E+00 0.  1.
          1   -1    0    0  501    0  0.00000000000E+00 -0.00000000000E+00 -0.84459586839E+03  0.84459586839E+03  0.00000000000E+00 0. -1.
         25    2    1    2    0    0  0.12474264734E+03 -0.63462588830E+02 -0.68406927247E+03  0.70935379795E+03  0.12507522883E+03 0.  0.
          5    1    3    3  502    0  0.47680226599E+02  0.35638972715E+02 -0.17028240359E+03  0.18043588822E+03  0.41800000000E+01 0.  1.
         -5    1    3    3    0  502  0.77062420745E+02 -0.99101561545E+02 -0.51378686888E+03  0.52891790973E+03  0.41800000000E+01 0.  1.
        -11    1    1    2    0    0 -0.12025518135E+02  0.55722956084E+02 -0.28900141160E+02  0.63913058761E+02  0.00000000000E+00 0. -1.
         11    1    1    2    0    0 -0.11271712921E+03  0.77396327457E+01 -0.70029816699E+02  0.13292564974E+03  0.00000000000E+00 0.  1.
</event>
<event>
 7    1  0.2564986E-009  0.2678089E+03  0.7561462E-02  0.1102540E+00
         -1   -1    0    0    0  501 -0.00000000000E+00  0.00000000000E+00  0.60286164435E+03  0.60286164435E+03  0.00000000000E+00 0.  1.
          1   -1    0    0  501    0  0.00000000000E+00 -0.00000000000E+00 -0.14993890805E+03  0.14993890805E+03  0.00000000000E+00 0. -1.
         25    2    1    2    0    0  0.21912204972E+03  0.15255068104E+03  0.33461234215E+03  0.44598027455E+03  0.12508718086E+03 0.  0.
          5    1    3    3  502    0  0.20665689084E+03  0.14888630210E+03  0.34498114355E+03  0.42883990403E+03  0.41800000000E+01 0. -1.
         -5    1    3    3    0  502  0.12465158877E+02  0.36643789452E+01 -0.10368801408E+02  0.17140370518E+02  0.41800000000E+01 0. -1.
        -11    1    1    2    0    0 -0.12144218719E+03 -0.91326555078E+02  0.16184887292E+02  0.15280934221E+03  0.00000000000E+00 0.  1.
         11    1    1    2    0    0 -0.97679862530E+02 -0.61224125966E+02  0.10212550686E+03  0.15401093564E+03  0.00000000000E+00 0. -1.
</event>
<event>
 7    1  0.2564986E-009  0.1290719E+03  0.7561462E-02  0.1228839E+00
         -2   -1    0    0    0  501 -0.00000000000E+00  0.00000000000E+00  0.48011467470E+02  0.48011467470E+02  0.00000000000E+00 0.  1.
          2   -1    0    0  501    0  0.00000000000E+00 -0.00000000000E+00 -0.70602177997E+03  0.70602177997E+03  0.00000000000E+00 0. -1.
         25    2    1    2    0    0 -0.99307317896E+02 -0.26432313218E+02 -0.56459891855E+03  0.58734927128E+03  0.12508643843E+03 0.  0.
          5    1    3    3  502    0 -0.95260030551E+02 -0.44754753258E+02 -0.23898162141E+03  0.26116498451E+03  0.41800000000E+01 0.  1.
         -5    1    3    3    0  502 -0.40472873458E+01  0.18322440040E+02 -0.32561729714E+03  0.32618428678E+03  0.41800000000E+01 0.  1.
        -11    1    1    2    0    0  0.34008786913E+02  0.53096687851E+02 -0.65246445207E+02  0.90735629497E+02  0.00000000000E+00 0.  1.
         11    1    1    2    0    0  0.65298530983E+02 -0.26664374633E+02 -0.28164948748E+02  0.75948346664E+02  0.00000000000E+00 0. -1.
</event>
<event>
 7    1  0.2564986E-009  0.1263003E+03  0.7561462E-02  0.1233051E+00
         -1   -1    0    0    0  501 -0.00000000000E+00  0.00000000000E+00  0.49922132705E+02  0.49922132705E+02  0.00000000000E+00 0.  1.
          1   -1    0    0  501    0  0.00000000000E+00 -0.00000000000E+00 -0.33263103781E+03  0.33263103781E+03  0.00000000000E+00 0. -1.
         25    2    1    2    0    0  0.68907357098E+02  0.19146439006E+01 -0.16707223526E+03  0.21979898626E+03  0.12508626161E+03 0.  0.
          5    1    3    3  502    0  0.67828112630E+02 -0.51989120045E+02 -0.79033239997E+02  0.11647852545E+03  0.41800000000E+01 0. -1.
         -5    1    3    3    0  502  0.10792444683E+01  0.53903763946E+02 -0.88038995261E+02  0.10332046081E+03  0.41800000000E+01 0. -1.
        -11    1    1    2    0    0 -0.43796452919E+02  0.43080571411E+02 -0.76121891328E+02  0.97819258129E+02  0.00000000000E+00 0.  1.
         11    1    1    2    0    0 -0.25110904180E+02 -0.44995215312E+02 -0.39514778523E+02  0.64934926129E+02  0.00000000000E+00 0. -1.
</event>
<event>
 7    1  0.2564986E-009  0.1070378E+03  0.7561462E-02  0.1266156E+00
          2   -1    0    0  501    0  0.00000000000E+00  0.00000000000E+00  0.11361028996E+03  0.11361028996E+03  0.00000000000E+00 0. -1.
         -2   -1    0    0    0  501 -0.00000000000E+00 -0.00000000000E+00 -0.11238350105E+03  0.11238350105E+03  0.00000000000E+00 0.  1.
         25    2    1    2    0    0 -0.13560137319E+02  0.14469454632E+02 -0.24476749677E+02  0.12899078913E+03  0.12508505093E+03 0.  0.
          5    1    3    3  502    0 -0.66334686977E+02  0.21344456626E+02 -0.28614585980E+02  0.75446295176E+02  0.41800000000E+01 0.  1.
         -5    1    3    3    0  502  0.52774549658E+02 -0.68750019935E+01  0.41378363030E+01  0.53544493959E+02  0.41800000000E+01 0.  1.
        -11    1    1    2    0    0  0.27650534051E+02  0.32018613165E+02  0.23459880715E+02  0.48374679591E+02  0.00000000000E+00 0. -1.
         11    1    1    2    0    0 -0.14090396733E+02 -0.46488067797E+02  0.22436578657E+01  0.48628322285E+02  0.00000000000E+00 0.  1.
</event>
<event>
 7    1  0.2564986E-009  0.1429308E+03  0.7561462E-02  0.1209439E+00
          1   -1    0    0  501    0  0.00000000000E+00  0.00000000000E+00  0.14316354975E+03  0.14316354975E+03  0.00000000000E+00 0. -1.
         -1   -1    0    0    0  501 -0.00000000000E+00 -0.00000000000E+00 -0.22234717319E+03  0.22234717319E+03  0.00000000000E+00 0.  1.
         25    2    1    2    0    0 -0.63401083281E+02 -0.12544913344E+03 -0.80541590015E+02  0.20467665259E+03  0.12509357278E+03 0.  0.
          5    1    3    3  502    0 -0.16910704149E+02 -0.53642269760E+02 -0.10184782433E+03  0.11642128990E+03  0.41800000000E+01 0.  1.
         -5    1    3    3    0  502 -0.46490379132E+02 -0.71806863678E+02  0.21306234318E+02  0.88255362692E+02  0.41800000000E+01 0.  1.
        -11    1    1    2    0    0  0.45062313694E+02  0.55429807659E+02  0.36670739997E+02  0.80298311716E+02  0.00000000000E+00 0.  1.
         11    1    1    2    0    0  0.18338769587E+02  0.70019325779E+02 -0.35312773422E+02  0.80535758637E+02  0.00000000000E+00 0. -1.
</event>
<event>
 7    1  0.2564986E-009  0.1124816E+03  0.7561462E-02  0.1256042E+00
          2   -1    0    0  501    0  0.00000000000E+00  0.00000000000E+00  0.12608603710E+04  0.12608603710E+04  0.00000000000E+00 0.  1.
         -2   -1    0    0    0  501 -0.00000000000E+00 -0.00000000000E+00 -0.17208210637E+02  0.17208210637E+02  0.00000000000E+00 0. -1.
         25    2    1    2    0    0  0.35177131279E+02  0.26585214080E+02  0.91652717620E+03  0.92607532541E+03  0.12509692027E+03 0.  0.
          5    1    3    3  502    0 -0.33193979928E+01  0.66990613355E+02  0.32309239911E+03  0.33000747180E+03  0.41800000000E+01 0.  1.
         -5    1    3    3    0  502  0.38496529272E+02 -0.40405399275E+02  0.59343477709E+03  0.59606785361E+03  0.41800000000E+01 0.  1.
        -11    1    1    2    0    0  0.11847794405E+02 -0.48491888195E+02  0.27102404781E+03  0.27558277875E+03  0.00000000000E+00 0.  1.
         11    1    1    2    0    0 -0.47024925684E+02  0.21906674115E+02  0.56100936329E+02  0.76410477445E+02  0.00000000000E+00 0. -1.
</event>
<event>
 7    1  0.2564986E-009  0.1452421E+03  0.7561462E-02  0.1206444E+00
         -2   -1    0    0    0  501 -0.00000000000E+00  0.00000000000E+00  0.20052772287E+02  0.20052772287E+02  0.00000000000E+00 0. -1.
          2   -1    0    0  501    0  0.00000000000E+00 -0.00000000000E+00 -0.15341582546E+04  0.15341582546E+04  0.00000000000E+00 0.  1.
         25    2    1    2    0    0 -0.11339145527E+03 -0.68343528909E+02 -0.10533230645E+04  0.10689548011E+04  0.12508568495E+03 0.  0.
          5    1    3    3  502    0 -0.99923684369E+01  0.91203174737E+01 -0.51989509926E+03  0.52008789089E+03  0.41800000000E+01 0. -1.
         -5    1    3    3    0  502 -0.10339908683E+03 -0.77463846383E+02 -0.53342796524E+03  0.54886691024E+03  0.41800000000E+01 0. -1.
        -11    1    1    2    0    0  0.35479029024E+02  0.58649828595E+02 -0.27797676431E+03  0.28630341491E+03  0.00000000000E+00 0.  1.
         11    1    1    2    0    0  0.77912426246E+02  0.96937003141E+01 -0.18280565348E+03  0.19895281082E+03  0.00000000000E+00 0. -1.
</event>
<event>
 7    1  0.2564986E-009  0.1178540E+03  0.7561462E-02  0.1246680E+00
         -2   -1    0    0    0  501 -0.00000000000E+00  0.00000000000E+00  0.20631026823E+02  0.20631026823E+02  0.00000000000E+00 0.  1.
          2   -1    0    0  501    0  0.00000000000E+00 -0.00000000000E+00 -0.10362272207E+04  0.10362272207E+04  0.00000000000E+00 0. -1.
         25    2    1    2    0    0 -0.55387924966E+02  0.75876269450E+02 -0.57122034031E+03  0.59225408371E+03  0.12508873647E+03 0.  0.
          5    1    3    3  502    0  0.10292927292E+02  0.47464227409E+02 -0.44032484113E+03  0.44301493807E+03  0.41800000000E+01 0. -1.
         -5    1    3    3    0  502 -0.65680852258E+02  0.28412042041E+02 -0.13089549918E+03  0.14923914564E+03  0.41800000000E+01 0. -1.
        -11    1    1    2    0    0  0.23298528083E+02 -0.79629754647E+02 -0.40622444706E+03  0.41461068561E+03  0.00000000000E+00 0. -1.
         11    1    1    2    0    0  0.32089396882E+02  0.37534851975E+01 -0.38151406487E+02  0.49993478178E+02  0.00000000000E+00 0.  1.
</event>
<event>
 7    1  0.2564986E-009  0.9999184E+02  0.7561462E-02  0.1280313E+00
          1   -1    0    0  501    0  0.00000000000E+00  0.00000000000E+00  0.91653471977E+02  0.91653471977E+02  0.00000000000E+00 0. -1.
         -1   -1    0    0    0  501 -0.00000000000E+00 -0.00000000000E+00 -0.18371831512E+03  0.18371831512E+03  0.00000000000E+00 0.  1.
         25    2    1    2    0    0  0.50661935909E+01 -0.22704416437E+02 -0.12211333128E+03  0.17635055577E+03  0.12508675390E+03 0.  0.
          5    1    3    3  502    0 -0.15105682604E+01  0.43942114678E+02 -0.93687091714E+01  0.45149046174E+02  0.41800000000E+01 0. -1.
         -5    1    3    3    0  502  0.65767618513E+01 -0.66646531116E+02 -0.11274462211E+03  0.13120150960E+03  0.41800000000E+01 0. -1.
        -11    1    1    2    0    0  0.30497301186E+02  0.39074007814E+02  0.33335049504E+02  0.59733483004E+02  0.00000000000E+00 0. -1.
         11    1    1    2    0    0 -0.35563494777E+02 -0.16369591377E+02 -0.32865613665E+01  0.39287748322E+02  0.00000000000E+00 0.  1.
</event>
<event>
 7    1  0.2564986E-009  0.1893172E+03  0.7561462E-02  0.1159079E+00
          2   -1    0    0  501    0  0.00000000000E+00  0.00000000000E+00  0.13448017868E+03  0.13448017868E+03  0.00000000000E+00 0.  1.
         -2   -1    0    0    0  501 -0.00000000000E+00 -0.00000000000E+00 -0.32324394842E+03  0.32324394842E+03  0.00000000000E+00 0. -1.
         25    2    1    2    0    0  0.30432938603E+02  0.16708204061E+03 -0.15479277229E+03  0.26162876302E+03  0.12508491212E+03 0.  0.
          5    1    3    3  502    0  0.34067889981E+02 -0.64553100568E+01 -0.41815210590E+02  0.54481890500E+02  0.41800000000E+01 0. -1.
         -5    1    3    3    0  502 -0.36349513789E+01  0.17353735067E+03 -0.11297756170E+03  0.20714687252E+03  0.41800000000E+01 0. -1.
        -11    1    1    2    0    0 -0.17187566791E+02 -0.68865072828E+02  0.31146550614E+02  0.77510762626E+02  0.00000000000E+00 0.  1.
         11    1    1    2    0    0 -0.13245371811E+02 -0.98216967783E+02 -0.65117548061E+02  0.11858460145E+03  0.00000000000E+00 0. -1.
</event>
<event>
 7    1  0.2564986E-009  0.1125993E+03  0.7561462E-02  0.1255831E+00
         -1   -1    0    0    0  501 -0.00000000000E+00  0.00000000000E+00  0.39424466525E+02  0.39424466525E+02  0.00000000000E+00 0.  1.
          1   -1    0    0  501    0  0.00000000000E+00 -0.00000000000E+00 -0.57455007610E+03  0.57455007610E+03  0.00000000000E+00 0. -1.
         25    2    1    2    0    0 -0.21182693201E+02 -0.10619018962E+03 -0.31516591145E+03  0.35595216229E+03  0.12508927707E+03 0.  0.
          5    1    3    3  502    0  0.81746089780E+01 -0.58707574792E+02 -0.32365034734E+02  0.67663664128E+02  0.41800000000E+01 0.  1.
         -5    1    3    3    0  502 -0.29357302179E+02 -0.47482614825E+02 -0.28280087672E+03  0.28828849817E+03  0.41800000000E+01 0.  1.
        -11    1    1    2    0    0  0.23641546157E+02  0.78134765686E+02 -0.76673200371E+02  0.11199439258E+03  0.00000000000E+00 0.  1.
         11    1    1    2    0    0 -0.24588529555E+01  0.28055423931E+02 -0.14328649776E+03  0.14602798776E+03  0.00000000000E+00 0. -1.
</event>
<event>
 7    1  0.2564986E-009  0.1523481E+03  0.7561462E-02  0.1197617E+00
         -1   -1    0    0    0  501 -0.00000000000E+00  0.00000000000E+00  0.78995087531E+03  0.78995087531E+03  0.00000000000E+00 0.  1.
          1   -1    0    0  501    0  0.00000000000E+00 -0.00000000000E+00 -0.37672356650E+02  0.37672356650E+02  0.00000000000E+00 0. -1.
         25    2    1    2    0    0  0.78492042977E+02 -0.44910384657E+02  0.18677072569E+03  0.24229708953E+03  0.12508649871E+03 0.  0.
          5    1    3    3  502    0 -0.12083971117E+02 -0.60356396425E+02  0.64025742715E+02  0.88913919482E+02  0.41800000000E+01 0. -1.
         -5    1    3    3    0  502  0.90576014094E+02  0.15446011768E+02  0.12274498297E+03  0.15338317005E+03  0.41800000000E+01 0. -1.
        -11    1    1    2    0    0 -0.49181338669E+01  0.72335508875E+02  0.27205784177E+03  0.28155298462E+03  0.00000000000E+00 0. -1.
         11    1    1    2    0    0 -0.73573909110E+02 -0.27425124218E+02  0.29344995121E+03  0.30377315781E+03  0.00000000000E+00 0.  1.
</event>
<event>
 7    1  0.2564986E-009  0.1212412E+03  0.7561462E-02  0.1241063E+00
         -2   -1    0    0    0  501 -0.00000000000E+00  0.00000000000E+00  0.86327342242E+02  0.86327342242E+02  0.00000000000E+00 0.  1.
          2   -1    0    0  501    0  0.00000000000E+00 -0.00000000000E+00 -0.26544093850E+03  0.26544093850E+03  0.00000000000E+00 0. -1.
         25    2    1    2    0    0  0.47304423331E+02 -0.52636395176E+02 -0.79881216400E+01  0.14394479301E+03  0.12509194532E+03 0.  0.
          5    1    3    3  502    0  0.86607979707E+02 -0.14919916373E+02  0.37579141882E+01  0.88063274823E+02  0.41800000000E+01 0.  1.
         -5    1    3    3    0  502 -0.39303556376E+02 -0.37716478803E+02 -0.11746035828E+02  0.55881518186E+02  0.41800000000E+01 0.  1.
        -11    1    1    2    0    0 -0.49031298132E+01  0.57027827620E+02 -0.39702281013E+02  0.69659779806E+02  0.00000000000E+00 0.  1.
         11    1    1    2    0    0 -0.42401293518E+02 -0.43914324434E+01 -0.13142319361E+03  0.13816370793E+03  0.00000000000E+00 0. -1.
</event>
<event>
 7    1  0.3051986E-009  0.1014697E+03  0.7561462E-02  0.1277235E+00
         -3   -1    0    0    0  501 -0.00000000000E+00  0.00000000000E+00  0.39552988774E+02  0.39552988774E+02  0.00000000000E+00 0.  1.
          3   -1    0    0  501    0  0.00000000000E+00 -0.00000000000E+00 -0.47214844033E+03  0.47214844033E+03  0.00000000000E+00 0. -1.
         25    2    1    2    0    0 -0.27579070374E+02  0.43601294504E+02 -0.35669843936E+03  0.38150075752E+03  0.12508946135E+03 0.  0.
          5    1    3    3  502    0 -0.64187909630E+02  0.62609060760E+01 -0.97007395764E+02  0.11656411935E+03  0.41800000000E+01 0.  1.
         -5    1    3    3    0  502  0.36608839257E+02  0.37340388428E+02 -0.25969104359E+03  0.26493663816E+03  0.41800000000E+01 0.  1.
        -11    1    1    2    0    0  0.47572882317E+02 -0.13033116618E+02 -0.39143085477E+01  0.49480936452E+02  0.00000000000E+00 0.  1.
         11    1    1    2    0    0 -0.19993811944E+02 -0.30568177885E+02 -0.71982703652E+02  0.80719735135E+02  0.00000000000E+00 0. -1.
</event>
<event>
 7    1  0.2564986E-009  0.9314034E+02  0.7561462E-02  0.1295420E+00
         -1   -1    0    0    0  501 -0.00000000000E+00  0.00000000000E+00  0.71654358659E+02  0.71654358659E+02  0.00000000000E+00 0.  1.
          1   -1    0    0  501    0  0.00000000000E+00 -0.00000000000E+00 -0.18901617444E+03  0.18901617444E+03  0.00000000000E+00 0. -1.
         25    2    1    2    0    0  0.22183091596E+02 -0.10582476779E+02 -0.92550449626E+02  0.15752947595E+03  0.12508345894E+03 0.  0.
          5    1    3    3  502    0 -0.35985350777E+02  0.30452329183E+02 -0.98664157867E+01  0.48343648845E+02  0.41800000000E+01 0. -1.
         -5    1    3    3    0  502  0.58168442373E+02 -0.41034805961E+02 -0.82684033839E+02  0.10918582710E+03  0.41800000000E+01 0. -1.
        -11    1    1    2    0    0 -0.23745225731E+02  0.35483784645E+02  0.23522941696E+02  0.48746933276E+02  0.00000000000E+00 0.  1.
         11    1    1    2    0    0  0.15621341349E+01 -0.24901307867E+02 -0.48334307850E+02  0.54394123873E+02  0.00000000000E+00 0. -1.
</event>
<event>
 7    1  0.2564986E-009  0.1563004E+03  0.7561462E-02  0.1192938E+00
         -2   -1    0    0    0  501 -0.00000000000E+00  0.00000000000E+00  0.24441408872E+03  0.24441408872E+03  0.00000000000E+00 0.  1.
          2   -1    0    0  501    0  0.00000000000E+00 -0.00000000000E+00 -0.12827120738E+03  0.12827120738E+03  0.00000000000E+00 0. -1.
         25    2    1    2    0    0  0.62583368982E+02 -0.11461466894E+03 -0.20671985583E+00  0.18083163903E+03  0.12508732363E+03 0.  0.
          5    1    3    3  502    0  0.58364673978E+02  0.61540326047E+01 -0.93354362076E+01  0.59572896984E+02  0.41800000000E+01 0.  1.
         -5    1    3    3    0  502  0.42186950032E+01 -0.12076870154E+03  0.91287163518E+01  0.12125874204E+03  0.41800000000E+01 0.  1.
        -11    1    1    2    0    0 -0.50971319903E+02  0.69032153442E+02  0.11665196535E+03  0.14481434557E+03  0.00000000000E+00 0.  1.
         11    1    1    2    0    0 -0.11612049079E+02  0.45582515497E+02 -0.30236415868E+00  0.47039311505E+02  0.00000000000E+00 0. -1.
</event>
<event>
 7    1  0.2564986E-009  0.1615899E+03  0.7561462E-02  0.1186913E+00
          2   -1    0    0  501    0  0.00000000000E+00  0.00000000000E+00  0.89866353414E+03  0.89866353414E+03  0.00000000000E+00 0. -1.
         -2   -1    0    0    0  501 -0.00000000000E+00 -0.00000000000E+00 -0.38721039608E+02  0.38721039608E+02  0.00000000000E+00 0.  1.
         25    2    1    2    0    0  0.76838555646E+02 -0.13140829861E+03  0.45726023070E+03  0.49790149068E+03  0.12508665502E+03 0.  0.
          5    1    3    3  502    0  0.50754287675E+02 -0.13423880592E+03  0.44687982677E+03  0.46937736067E+03  0.41800000000E+01 0.  1.
         -5    1    3    3    0  502  0.26084267971E+02  0.28305073066E+01  0.10380403927E+02  0.28524130011E+02  0.41800000000E+01 0.  1.
        -11    1    1    2    0    0 -0.47137880161E+02  0.94996238924E+02  0.36237831907E+03  0.37757689454E+03  0.00000000000E+00 0. -1.
         11    1    1    2    0    0 -0.29700675485E+02  0.36412059690E+02  0.40303944767E+02  0.61906188534E+02  0.00000000000E+00 0.  1.
</event>
<event>
 7    1  0.2564986E-009  0.8151385E+02  0.7561462E-02  0.1324809E+00
         -1   -1    0    0    0  501 -0.00000000000E+00  0.00000000000E+00  0.83475098859E+02  0.83475098859E+02  0.00000000000E+00 0. -1.
          1   -1    0    0  501    0  0.00000000000E+00 -0.00000000000E+00 -0.19390723303E+03  0.19390723303E+03  0.00000000000E+00 0.  1.
         25    2    1    2    0    0 -0.17283427951E+02  0.39641749449E+02 -0.11774520032E+03  0.17714885458E+03  0.12509036453E+03 0.  0.
          5    1    3    3  502    0 -0.36021122488E+02 -0.28197468729E+02 -0.78791089802E+01  0.46606558191E+02  0.41800000000E+01 0.  1.
         -5    1    3    3    0  502  0.18737694537E+02  0.67839218178E+02 -0.10986609134E+03  0.13054229639E+03  0.41800000000E+01 0.  1.
        -11    1    1    2    0    0 -0.20492950595E+01 -0.15618476410E+02 -0.40434321610E+02  0.43394363456E+02  0.00000000000E+00 0.  1.
         11    1    1    2    0    0  0.19332723011E+02 -0.24023273038E+02  0.47747387758E+02  0.56839113858E+02  0.00000000000E+00 0. -1.
</event>
<event>
 7    1  0.2564986E-009  0.1154426E+03  0.7561462E-02  0.1250810E+00
          1   -1    0    0  501    0  0.00000000000E+00  0.00000000000E+00  0.80492015556E+02  0.80492015556E+02  0.00000000000E+00 0. -1.
         -1   -1    0    0    0  501 -0.00000000000E+00 -0.00000000000E+00 -0.30541244787E+03  0.30541244787E+03  0.00000000000E+00 0.  1.
         25    2    1    2    0    0  0.15300218121E+02 -0.99346074051E+02 -0.55132310802E+02  0.16967459402E+03  0.12508459960E+03 0.  0.
          5    1    3    3  502    0 -0.31080704375E+02 -0.17129151340E+02 -0.65504695973E+02  0.74617394786E+02  0.41800000000E+01 0.  1.
         -5    1    3    3    0  502  0.46380922496E+02 -0.82216922711E+02  0.10372385172E+02  0.95057199232E+02  0.41800000000E+01 0.  1.
        -11    1    1    2    0    0 -0.66879618982E+01  0.60737556837E+02 -0.16552489714E+03  0.17644339380E+03  0.00000000000E+00 0.  1.
         11    1    1    2    0    0 -0.86122562226E+01  0.38608517214E+02 -0.42632243730E+01  0.39786475601E+02  0.00000000000E+00 0. -1.
</event>
<event>
 7    1  0.2564986E-009  0.1615529E+03  0.7561462E-02  0.1186955E+00
         -2   -1    0    0    0  501 -0.00000000000E+00  0.00000000000E+00  0.92530979433E+02  0.92530979433E+02  0.00000000000E+00 0. -1.
          2   -1    0    0  501    0  0.00000000000E+00 -0.00000000000E+00 -0.49406478502E+03  0.49406478502E+03  0.00000000000E+00 0.  1.
         25    2    1    2    0    0  0.13210749940E+03 -0.50839881030E+02 -0.47514388818E+02  0.19478551443E+03  0.12508674825E+03 0.  0.
          5    1    3    3  502    0  0.26650248918E+01 -0.22976746798E+02 -0.57317478467E+02  0.61949971662E+02  0.41800000000E+01 0. -1.
         -5    1    3    3    0  502  0.12944247451E+03 -0.27863134232E+02  0.98030896498E+01  0.13283554277E+03  0.41800000000E+01 0. -1.
        -11    1    1    2    0    0 -0.23315920777E+02 -0.25248680918E+02 -0.58667766758E+02  0.67992903351E+02  0.00000000000E+00 0. -1.
         11    1    1    2    0    0 -0.10879157862E+03  0.76088561949E+02 -0.29535165001E+03  0.32381734667E+03  0.00000000000E+00 0.  1.
</event>
<event>
 7    1  0.2564986E-009  0.1412717E+03  0.7561462E-02  0.1211628E+00
         -2   -1    0    0    0  501 -0.00000000000E+00  0.00000000000E+00  0.35298978812E+02  0.35298978812E+02  0.00000000000E+00 0.  1.
          2   -1    0    0  501    0  0.00000000000E+00 -0.00000000000E+00 -0.77776847387E+03  0.77776847387E+03  0.00000000000E+00 0. -1.
         25    2    1    2    0    0 -0.44141829973E+02  0.11812484863E+03 -0.41595903900E+03  0.45229618835E+03  0.12509172174E+03 0.  0.
          5    1    3    3  502    0 -0.44569020216E+02  0.19894869095E+02 -0.38680285923E+02  0.62416666832E+02  0.41800000000E+01 0. -1.
         -5    1    3    3    0  502  0.42719024344E+00  0.98229979536E+02 -0.37727875308E+03  0.38987952151E+03  0.41800000000E+01 0. -1.
        -11    1    1    2    0    0  0.39370173168E+02 -0.37178555640E+02 -0.54083875918E+02  0.76533137719E+02  0.00000000000E+00 0.  1.
         11    1    1    2    0    0  0.47716568054E+01 -0.80946292991E+02 -0.27242658014E+03  0.28423812662E+03  0.00000000000E+00 0. -1.
</event>
<event>
 7    1  0.2564986E-009  0.3332062E+03  0.7561462E-02  0.1069727E+00
         -3   -1    0    0    0  501 -0.00000000000E+00  0.00000000000E+00  0.15927814488E+04  0.15927814488E+04  0.00000000000E+00 0.  1.
          3   -1    0    0  501    0  0.00000000000E+00 -0.00000000000E+00 -0.76571372077E+02  0.76571372077E+02  0.00000000000E+00 0. -1.
         25    2    1    2    0    0  0.26605958718E+03 -0.19696531031E+03  0.72661315872E+03  0.80820575276E+03  0.12508724544E+03 0.  0.
          5    1    3    3  502    0  0.10015960434E+03 -0.77778940085E+02  0.42779058644E+03  0.44621045271E+03  0.41800000000E+01 0. -1.
         -5    1    3    3    0  502  0.16589998284E+03 -0.11918637022E+03  0.29882257229E+03  0.36199530005E+03  0.41800000000E+01 0. -1.
        -11    1    1    2    0    0 -0.87285248855E+02  0.96597095784E+02  0.21828338594E+03  0.25416008766E+03  0.00000000000E+00 0. -1.
         11    1    1    2    0    0 -0.17877433833E+03  0.10036821453E+03  0.57131353209E+03  0.60698698049E+03  0.00000000000E+00 0.  1.
</event>
<event>
 7    1  0.2564986E-009  0.1187721E+03  0.7561462E-02  0.1245137E+00
         -1   -1    0    0    0  501 -0.00000000000E+00  0.00000000000E+00  0.59744924636E+03  0.59744924636E+03  0.00000000000E+00 0.  1.
          1   -1    0    0  501    0  0.00000000000E+00 -0.00000000000E+00 -0.26022066381E+02  0.26022066381E+02  0.00000000000E+00 0. -1.
         25    2    1    2    0    0  0.54934100917E+02  0.21698697524E+02  0.32572920481E+03  0.35388502287E+03  0.12508599292E+03 0.  0.
          5    1    3    3  502    0 -0.34136569774E+02 -0.16206333892E+01  0.16545654691E+03  0.16900080818E+03  0.41800000000E+01 0.  1.
         -5    1    3    3    0  502  0.89070670691E+02  0.23319330913E+02  0.16027265790E+03  0.18488421469E+03  0.41800000000E+01 0.  1.
        -11    1    1    2    0    0  0.26843950464E+02 -0.81528905210E+01  0.62294284867E+02  0.68320167063E+02  0.00000000000E+00 0. -1.
         11    1    1    2    0    0 -0.81778051381E+02 -0.13545807003E+02  0.18340369030E+03  0.20126612281E+03  0.00000000000E+00 0.  1.
</event>
<event>
 7    1  0.2564986E-009  0.1068331E+03  0.7561462E-02  0.1266549E+00
         -2   -1    0    0    0  501 -0.00000000000E+00  0.00000000000E+00  0.33641514797E+02  0.33641514797E+02  0.00000000000E+00 0.  1.
          2   -1    0    0  501    0  0.00000000000E+00 -0.00000000000E+00 -0.39532384368E+03  0.39532384368E+03  0.00000000000E+00 0. -1.
         25    2    1    2    0    0  0.23904968538E+02  0.29129719570E+02 -0.17593116078E+03  0.21913381566E+03  0.12509143755E+03 0.  0.
          5    1    3    3  502    0 -0.95903064142E+01 -0.42562015015E+02 -0.30115809916E+02  0.53178318008E+02  0.41800000000E+01 0.  1.
         -5    1    3    3    0  502  0.33495274952E+02  0.71691734584E+02 -0.14581535087E+03  0.16595549765E+03  0.41800000000E+01 0.  1.
        -11    1    1    2    0    0  0.22509537961E+02  0.14597424766E+02 -0.96369515982E+02  0.10003423274E+03  0.00000000000E+00 0.  1.
         11    1    1    2    0    0 -0.46414506499E+02 -0.43727144336E+02 -0.89381652114E+02  0.10979731008E+03  0.00000000000E+00 0. -1.
</event>
<event>
 7    1  0.2564986E-009  0.1143323E+03  0.7561462E-02  0.1252751E+00
          2   -1    0    0  501    0  0.00000000000E+00  0.00000000000E+00  0.47537307232E+03  0.47537307232E+03  0.00000000000E+00 0. -1.
         -2   -1    0    0    0  501 -0.00000000000E+00 -0.00000000000E+00 -0.34144828707E+02  0.34144828707E+02  0.00000000000E+00 0.  1.
         25    2    1    2    0    0 -0.23289354579E+02  0.57153164198E+02  0.21010839575E+03  0.25219370784E+03  0.12508896872E+03 0.  0.
          5    1    3    3  502    0 -0.31028122911E+02  0.83371762661E+02  0.20575151771E+03  0.22419802555E+03  0.41800000000E+01 0. -1.
         -5    1    3    3    0  502  0.77387683324E+01 -0.26218598463E+02  0.43568780423E+01  0.27995682291E+02  0.41800000000E+01 0. -1.
        -11    1    1    2    0    0  0.55439063513E+01  0.26175539618E+02  0.72364004102E+02  0.77152076198E+02  0.00000000000E+00 0.  1.
         11    1    1    2    0    0  0.17745448227E+02 -0.83328703816E+02  0.15875584376E+03  0.18017211699E+03  0.00000000000E+00 0. -1.
</event>
<event>
 7    1  0.2564986E-009  0.1040279E+03  0.7561462E-02  0.1272047E+00
         -2   -1    0    0    0  501 -0.00000000000E+00  0.00000000000E+00  0.33769085887E+03  0.33769085887E+03  0.00000000000E+00 0.  1.
          2   -1    0    0  501    0  0.00000000000E+00 -0.00000000000E+00 -0.37940760070E+02  0.37940760070E+02  0.00000000000E+00 0. -1.
         25    2    1    2    0    0  0.14985934744E+02  0.20293116594E+02  0.20300262951E+03  0.23977600348E+03  0.12508427335E+03 0.  0.
          5    1    3    3  502    0 -0.53476149803E+02  0.94785858140E+01  0.11838718421E+03  0.13031707475E+03  0.41800000000E+01 0.  1.
         -5    1    3    3    0  502  0.68462084547E+02  0.10814530780E+02  0.84615445300E+02  0.10945892874E+03  0.41800000000E+01 0.  1.
        -11    1    1    2    0    0  0.31934118753E+02  0.24089610123E+01  0.81223027686E+01  0.33038808029E+02  0.00000000000E+00 0. -1.
         11    1    1    2    0    0 -0.46920053497E+02 -0.22702077607E+02  0.88625166522E+02  0.10281680742E+03  0.00000000000E+00 0.  1.
</event>
<event>
 7    1  0.2564986E-009  0.1471256E+03  0.7561462E-02  0.1204050E+00
          2   -1    0    0  501    0  0.00000000000E+00  0.00000000000E+00  0.48311620338E+03  0.48311620338E+03  0.00000000000E+00 0. -1.
         -2   -1    0    0    0  501 -0.00000000000E+00 -0.00000000000E+00 -0.78311302512E+02  0.78311302512E+02  0.00000000000E+00 0.  1.
         25    2    1    2    0    0 -0.24146709052E+02  0.14032899064E+03  0.10130242450E+03  0.21490715092E+03  0.12509041983E+03 0.  0.
          5    1    3    3  502    0  0.11447828083E+02  0.60001673760E+02  0.11064186140E+03  0.12645294586E+03  0.41800000000E+01 0.  1.
         -5    1    3    3    0  502 -0.35594537135E+02  0.80327316875E+02 -0.93394369030E+01  0.88454205055E+02  0.41800000000E+01 0.  1.
        -11    1    1    2    0    0  0.22918195592E+02 -0.53194577407E+02  0.43888430325E+02  0.72671184599E+02  0.00000000000E+00 0.  1.
         11    1    1    2    0    0  0.12285134595E+01 -0.87134413229E+02  0.25961404604E+03  0.27384917037E+03  0.00000000000E+00 0. -1.
</event>
<event>
 7    1  0.2564986E-009  0.1542614E+03  0.7561462E-02  0.1195332E+00
          1   -1    0    0  501    0  0.00000000000E+00  0.00000000000E+00  0.48487986570E+02  0.48487986570E+02  0.00000000000E+00 0. -1.
         -1   -1    0    0    0  501 -0.00000000000E+00 -0.00000000000E+00 -0.59928731343E+03  0.59928731343E+03  0.00000000000E+00 0.  1.
         25    2    1    2    0    0 -0.12243217856E+03 -0.34292107562E+01 -0.24158025141E+03  0.29834578250E+03  0.12509112770E+03 0.  0.
          5    1    3    3  502    0 -0.12888880516E+03 -0.41663643576E+02 -0.17732971917E+03  0.22318486730E+03  0.41800000000E+01 0.  1.
         -5    1    3    3    0  502  0.64566265992E+01  0.38234432820E+02 -0.64250532243E+02  0.75160915199E+02  0.41800000000E+01 0.  1.
        -11    1    1    2    0    0  0.47981604143E+02 -0.25248984092E+02 -0.36701457514E+02  0.65473219849E+02  0.00000000000E+00 0. -1.
         11    1    1    2    0    0  0.74450574417E+02  0.28678194848E+02 -0.27251761793E+03  0.28395629765E+03  0.00000000000E+00 0.  1.
</event>
<event>
 7    1  0.2564986E-009  0.1069931E+03  0.7561462E-02  0.1266242E+00
          2   -1    0    0  501    0  0.00000000000E+00  0.00000000000E+00  0.30483121822E+03  0.30483121822E+03  0.00000000000E+00 0. -1.
         -2   -1    0    0    0  501 -0.00000000000E+00 -0.00000000000E+00 -0.61342726782E+02  0.61342726782E+02  0.00000000000E+00 0.  1.
         25    2    1    2    0    0 -0.44430575221E+02 -0.66013084867E+02  0.14079627933E+03  0.20445929067E+03  0.12509278908E+03 0.  0.
          5    1    3    3  502    0 -0.10451484770E+02 -0.50149766370E+02  0.15564425402E+03  0.16391106982E+03  0.41800000000E+01 0. -1.
         -5    1    3    3    0  502 -0.33979090451E+02 -0.15863318498E+02 -0.14847974688E+02  0.40548220849E+02  0.41800000000E+01 0. -1.
        -11    1    1    2    0    0  0.72254075955E+02  0.27424831899E+02  0.66121330584E+02  0.10170940593E+03  0.00000000000E+00 0.  1.
         11    1    1    2    0    0 -0.27823500734E+02  0.38588252969E+02  0.36570881522E+02  0.60005248400E+02  0.00000000000E+00 0. -1.
</event>
<event>
 7    1  0.2564986E-009  0.1363384E+03  0.7561462E-02  0.1218343E+00
          1   -1    0    0  501    0  0.00000000000E+00  0.00000000000E+00  0.86684390090E+03  0.86684390090E+03  0.00000000000E+00 0.  1.
         -1   -1    0    0    0  501 -0.00000000000E+00 -0.00000000000E+00 -0.52655455994E+02  0.52655455994E+02  0.00000000000E+00 0. -1.
         25    2    1    2    0    0 -0.13527361227E+02 -0.10186300317E+03  0.74494289321E+03  0.76233004244E+03  0.12509244001E+03 0.  0.
          5    1    3    3  502    0 -0.67153824562E+01 -0.11697922685E+03  0.73078435889E+03  0.74013004768E+03  0.41800000000E+01 0.  1.
         -5    1    3    3    0  502 -0.68119787707E+01  0.15116223688E+02  0.14158534320E+02  0.22199994762E+02  0.41800000000E+01 0.  1.
        -11    1    1    2    0    0 -0.34944910412E+02  0.13336499024E+02  0.55246937260E+01  0.37809141893E+02  0.00000000000E+00 0. -1.
         11    1    1    2    0    0  0.48472271639E+02  0.88526504141E+02  0.63720857969E+02  0.11936017256E+03  0.00000000000E+00 0.  1.
</event>
<event>
 7    1  0.2564986E-009  0.1921612E+03  0.7561462E-02  0.1156526E+00
          1   -1    0    0  501    0  0.00000000000E+00  0.00000000000E+00  0.65429460832E+03  0.65429460832E+03  0.00000000000E+00 0. -1.
         -1   -1    0    0    0  501 -0.00000000000E+00 -0.00000000000E+00 -0.65530541170E+02  0.65530541170E+02  0.00000000000E+00 0.  1.
         25    2    1    2    0    0 -0.73515335515E+02  0.15137037306E+03  0.39653027094E+03  0.44855521085E+03  0.12509207415E+03 0.  0.
          5    1    3    3  502    0 -0.10419818828E+03  0.12266260483E+03  0.35261936627E+03  0.38763548203E+03  0.41800000000E+01 0.  1.
         -5    1    3    3    0  502  0.30682852762E+02  0.28707768236E+02  0.43910904673E+02  0.60919728824E+02  0.41800000000E+01 0.  1.
        -11    1    1    2    0    0  0.39144007285E+02 -0.13925603756E+03  0.11132257918E+03  0.18253003572E+03  0.00000000000E+00 0.  1.
         11    1    1    2    0    0  0.34371328230E+02 -0.12114335503E+02  0.80911217030E+02  0.88739902920E+02  0.00000000000E+00 0. -1.
</event>
<event>
 7    1  0.2564986E-009  0.6995126E+02  0.7561462E-02  0.1360259E+00
          1   -1    0    0  501    0  0.00000000000E+00  0.00000000000E+00  0.34044728655E+03  0.34044728655E+03  0.00000000000E+00 0. -1.
         -1   -1    0    0    0  501 -0.00000000000E+00 -0.00000000000E+00 -0.43760156406E+02  0.43760156406E+02  0.00000000000E+00 0.  1.
         25    2    1    2    0    0  0.23407333237E+02  0.47740082962E+02  0.19611778184E+03  0.23861515609E+03  0.12509192458E+03 0.  0.
          5    1    3    3  502    0 -0.16659431467E+02  0.28273160281E+02  0.19069881016E+03  0.19354693706E+03  0.41800000000E+01 0.  1.
         -5    1    3    3    0  502  0.40066764703E+02  0.19466922681E+02  0.54189716734E+01  0.45068219029E+02  0.41800000000E+01 0.  1.
        -11    1    1    2    0    0 -0.20556143333E+01 -0.38926278964E+02  0.11287736954E+03  0.11941851321E+03  0.00000000000E+00 0. -1.
         11    1    1    2    0    0 -0.21351718903E+02 -0.88138039979E+01 -0.12308021222E+02  0.26173773657E+02  0.00000000000E+00 0.  1.
</event>
<event>
 7    1  0.2564986E-009  0.1147354E+03  0.7561462E-02  0.1252044E+00
         -2   -1    0    0    0  501 -0.00000000000E+00  0.00000000000E+00  0.67609323185E+02  0.67609323185E+02  0.00000000000E+00 0.  1.
          2   -1    0    0  501    0  0.00000000000E+00 -0.00000000000E+00 -0.35720649072E+03  0.35720649072E+03  0.00000000000E+00 0. -1.
         25    2    1    2    0    0  0.41658053436E+01  0.11297740087E+03 -0.17556013962E+03  0.24341342756E+03  0.12508991586E+03 0.  0.
          5    1    3    3  502    0  0.74886511143E+00  0.33012558643E+02 -0.15786584032E+03  0.16133656054E+03  0.41800000000E+01 0. -1.
         -5    1    3    3    0  502  0.34169402322E+01  0.79964842224E+02 -0.17694299308E+02  0.82076867024E+02  0.41800000000E+01 0. -1.
        -11    1    1    2    0    0 -0.15112317157E+02 -0.75420395265E+02 -0.19887346952E+02  0.79448881179E+02  0.00000000000E+00 0.  1.
         11    1    1    2    0    0  0.10946511813E+02 -0.37557005603E+02 -0.94149680957E+02  0.10195350516E+03  0.00000000000E+00 0. -1.
</event>
<event>
 7    1  0.2564986E-009  0.1476578E+03  0.7561462E-02  0.1203381E+00
         -1   -1    0    0    0  501 -0.00000000000E+00  0.00000000000E+00  0.58836276103E+02  0.58836276103E+02  0.00000000000E+00 0.  1.
          1   -1    0    0  501    0  0.00000000000E+00 -0.00000000000E+00 -0.54425783244E+03  0.54425783244E+03  0.00000000000E+00 0. -1.
         25    2    1    2    0    0 -0.68253820892E+01  0.13830150787E+03 -0.31029556584E+03  0.36208635293E+03  0.12509714577E+03 0.  0.
          5    1    3    3  502    0 -0.20094515063E+02  0.55065449204E+02 -0.23770145652E+02  0.63391525112E+02  0.41800000000E+01 0. -1.
         -5    1    3    3    0  502  0.13269132974E+02  0.83236058663E+02 -0.28652542019E+03  0.29869482782E+03  0.41800000000E+01 0. -1.
        -11    1    1    2    0    0 -0.19558786546E+02 -0.11601477239E+02 -0.72062827187E+02  0.75565808852E+02  0.00000000000E+00 0. -1.
         11    1    1    2    0    0  0.26384168636E+02 -0.12670003063E+03 -0.10306316331E+03  0.16544194676E+03  0.00000000000E+00 0.  1.
</event>
<event>
 7    1  0.2564986E-009  0.1449290E+03  0.7561462E-02  0.1206846E+00
          1   -1    0    0  501    0  0.00000000000E+00  0.00000000000E+00  0.94837775401E+02  0.94837775401E+02  0.00000000000E+00 0. -1.
         -1   -1    0    0    0  501 -0.00000000000E+00 -0.00000000000E+00 -0.22897022727E+03  0.22897022727E+03  0.00000000000E+00 0.  1.
         25    2    1    2    0    0  0.76517436618E+02  0.64472330447E+02 -0.64858831503E+02  0.17281793395E+03  0.12509104992E+03 0.  0.
          5    1    3    3  502    0  0.91584067228E+02  0.12061701617E+01 -0.54967824670E+02  0.10690196614E+03  0.41800000000E+01 0. -1.
         -5    1    3    3    0  502 -0.15066630610E+02  0.63266160285E+02 -0.98910068334E+01  0.65915967803E+02  0.41800000000E+01 0. -1.
        -11    1    1    2    0    0  0.10065533729E+02 -0.42497071407E+02 -0.32266579119E+02  0.54299614874E+02  0.00000000000E+00 0.  1.
         11    1    1    2    0    0 -0.86582970347E+02 -0.21975259041E+02 -0.37007041246E+02  0.96690453850E+02  0.00000000000E+00 0. -1.
</event>
<event>
 7    1  0.2564986E-009  0.1146518E+03  0.7561462E-02  0.1252190E+00
         -2   -1    0    0    0  501 -0.00000000000E+00  0.00000000000E+00  0.28202900887E+02  0.28202900887E+02  0.00000000000E+00 0.  1.
          2   -1    0    0  501    0  0.00000000000E+00 -0.00000000000E+00 -0.49196443524E+03  0.49196443524E+03  0.00000000000E+00 0. -1.
         25    2    1    2    0    0  0.43086850665E+02 -0.92253646778E+01 -0.23541555046E+03  0.27020048327E+03  0.12508491399E+03 0.  0.
          5    1    3    3  502    0 -0.27835147929E+02  0.36620168222E+02 -0.62449748430E+02  0.77674163399E+02  0.41800000000E+01 0.  1.
         -5    1    3    3    0  502  0.70921998594E+02 -0.45845532899E+02 -0.17296580203E+03  0.19252631987E+03  0.41800000000E+01 0.  1.
        -11    1    1    2    0    0  0.21968067920E+02 -0.17645081514E+02 -0.96239718309E+02  0.10027975015E+03  0.00000000000E+00 0. -1.
         11    1    1    2    0    0 -0.65054918586E+02  0.26870446191E+02 -0.13210626558E+03  0.14968710271E+03  0.00000000000E+00 0.  1.
</event>
<event>
 7    1  0.2564986E-009  0.1204086E+03  0.7561462E-02  0.1242425E+00
          2   -1    0    0  501    0  0.00000000000E+00  0.00000000000E+00  0.37247568484E+03  0.37247568484E+03  0.00000000000E+00 0. -1.
         -2   -1    0    0    0  501 -0.00000000000E+00 -0.00000000000E+00 -0.50410627261E+02  0.50410627261E+02  0.00000000000E+00 0.  1.
         25    2    1    2    0    0 -0.23418159005E+01  0.65120468106E+02  0.10541577645E+03  0.17608002039E+03  0.12508208579E+03 0.  0.
          5    1    3    3  502    0 -0.18585786408E+02 -0.30724453226E+02  0.54170255973E+01  0.36554617338E+02  0.41800000000E+01 0. -1.
         -5    1    3    3    0  502  0.16243970507E+02  0.95844921331E+02  0.99998750857E+02  0.13952540305E+03  0.41800000000E+01 0. -1.
        -11    1    1    2    0    0 -0.39971009545E+02 -0.45977294283E+02  0.69104700915E+02  0.92125202210E+02  0.00000000000E+00 0.  1.
         11    1    1    2    0    0  0.42312825445E+02 -0.19143173822E+02  0.14754458021E+03  0.15468108950E+03  0.00000000000E+00 0. -1.
</event>
<event>
 7    1  0.2564986E-009  0.1012184E+03  0.7561462E-02  0.1277755E+00
         -4   -1    0    0    0  501 -0.00000000000E+00  0.00000000000E+00  0.29444875109E+03  0.29444875109E+03  0.00000000000E+00 0.  1.
          4   -1    0    0  501    0  0.00000000000E+00 -0.00000000000E+00 -0.53327022720E+02  0.53327022720E+02  0.00000000000E+00 0. -1.
         25    2    1    2    0    0 -0.45050047527E+02 -0.91704439823E+01  0.76565583530E+02  0.15369855889E+03  0.12508938644E+03 0.  0.
          5    1    3    3  502    0  0.30805033174E+02  0.20824104280E+02  0.59453782943E+02  0.70248260436E+02  0.41800000000E+01 0. -1.
         -5    1    3    3    0  502 -0.75855080701E+02 -0.29994548263E+02  0.17111800587E+02  0.83450298459E+02  0.41800000000E+01 0. -1.
        -11    1    1    2    0    0  0.24264394637E+02 -0.30249007387E+02  0.13535001875E+03  0.14079556410E+03  0.00000000000E+00 0.  1.
         11    1    1    2    0    0  0.20785652890E+02  0.39419451369E+02  0.29206126092E+02  0.53281650815E+02  0.00000000000E+00 0. -1.
</event>
<event>
 7    1  0.2564986E-009  0.4767232E+03  0.7561462E-02  0.1020040E+00
         -1   -1    0    0    0  501 -0.00000000000E+00  0.00000000000E+00  0.16847193294E+04  0.16847193294E+04  0.00000000000E+00 0.  1.
          1   -1    0    0  501    0  0.00000000000E+00 -0.00000000000E+00 -0.13681764436E+03  0.13681764436E+03  0.00000000000E+00 0. -1.
         25    2    1    2    0    0  0.19530711848E+03 -0.42408829270E+03  0.82434654255E+03  0.95560998471E+03  0.12508984817E+03 0.  0.
          5    1    3    3  502    0 -0.50742019341E+01 -0.81818082511E+02  0.19673192634E+03  0.21316864073E+03  0.41800000000E+01 0. -1.
         -5    1    3    3    0  502  0.20038132042E+03 -0.34227021019E+03  0.62761461622E+03  0.74244134397E+03  0.41800000000E+01 0. -1.
        -11    1    1    2    0    0 -0.17363025334E+03  0.41735461630E+03  0.69956257059E+03  0.83289863177E+03  0.00000000000E+00 0. -1.
         11    1    1    2    0    0 -0.21676865139E+02  0.67336763989E+01  0.23992571943E+02  0.33028357339E+02  0.00000000000E+00 0.  1.
</event>
<event>
 7    1  0.2564986E-009  0.1091881E+03  0.7561462E-02  0.1262081E+00
         -2   -1    0    0    0  501 -0.00000000000E+00  0.00000000000E+00  0.31547726784E+02  0.31547726784E+02  0.00000000000E+00 0. -1.
          2   -1    0    0  501    0  0.00000000000E+00 -0.00000000000E+00 -0.63834126103E+03  0.63834126103E+03  0.00000000000E+00 0.  1.
         25    2    1    2    0    0  0.34909632356E+02  0.48216118512E+02 -0.48395311580E+03  0.50339096921E+03  0.12509345734E+03 0.  0.
          5    1    3    3  502    0  0.40413787807E+02 -0.32733361406E+02 -0.25933548271E+03  0.26453187367E+03  0.41800000000E+01 0. -1.
         -5    1    3    3    0  502 -0.55041554510E+01  0.80949479918E+02 -0.22461763309E+03  0.23885909554E+03  0.41800000000E+01 0. -1.
        -11    1    1    2    0    0 -0.16157659527E+02  0.13123277780E+02 -0.93811669642E+02  0.96093286665E+02  0.00000000000E+00 0.  1.
         11    1    1    2    0    0 -0.18751972828E+02 -0.61339396292E+02 -0.29028748799E+02  0.70404731938E+02  0.00000000000E+00 0. -1.
</event>
<event>
 7    1  0.2564986E-009  0.9052020E+02  0.7561462E-02  0.1301597E+00
          2   -1    0    0  501    0  0.00000000000E+00  0.00000000000E+00  0.28642224689E+03  0.28642224689E+03  0.00000000000E+00 0. -1.
         -2   -1    0    0    0  501 -0.00000000000E+00 -0.00000000000E+00 -0.44053239382E+02  0.44053239382E+02  0.00000000000E+00 0.  1.
         25    2    1    2    0    0  0.18886320280E+02 -0.72746223288E+01  0.16857901957E+03  0.21089460419E+03  0.12509210613E+03 0.  0.
          5    1    3    3  502    0 -0.13939407364E+02  0.49522540884E+02  0.36049824384E+02  0.62959124608E+02  0.41800000000E+01 0. -1.
         -5    1    3    3    0  502  0.32825727644E+02 -0.56797163213E+02  0.13252919518E+03  0.14793547958E+03  0.41800000000E+01 0. -1.
        -11    1    1    2    0    0 -0.40892199219E+02  0.80220831154E+01 -0.93221633942E+00  0.41682068108E+02  0.00000000000E+00 0.  1.
         11    1    1    2    0    0  0.22005878939E+02 -0.74746078657E+00  0.74722204287E+02  0.77898813977E+02  0.00000000000E+00 0. -1.
</event>
<event>
 7    1  0.2564986E-009  0.1369193E+03  0.7561462E-02  0.1217535E+00
         -2   -1    0    0    0  501 -0.00000000000E+00  0.00000000000E+00  0.54624412017E+02  0.54624412017E+02  0.00000000000E+00 0.  1.
          2   -1    0    0  501    0  0.00000000000E+00 -0.00000000000E+00 -0.49739663641E+03  0.49739663641E+03  0.00000000000E+00 0. -1.
         25    2    1    2    0    0  0.12435814100E+03  0.67372810472E+01 -0.24430597991E+03  0.30140095165E+03  0.12508710423E+03 0.  0.
          5    1    3    3  502    0  0.13401606463E+02  0.25665104549E+01  0.14134951706E+02  0.20086296110E+02  0.41800000000E+01 0.  1.
         -5    1    3    3    0  502  0.11095653454E+03  0.41707705924E+01 -0.25844093162E+03  0.28131465554E+03  0.41800000000E+01 0.  1.
        -11    1    1    2    0    0 -0.85026062840E+02 -0.42711918282E+02 -0.96264870889E+02  0.13535384994E+03  0.00000000000E+00 0.  1.
         11    1    1    2    0    0 -0.39332078164E+02  0.35974637234E+02 -0.10220137359E+03  0.11526624684E+03  0.00000000000E+00 0. -1.
</event>
<event>
 7    1  0.2564986E-009  0.1173865E+03  0.7561462E-02  0.1247472E+00
          2   -1    0    0  501    0  0.00000000000E+00  0.00000000000E+00  0.11046617580E+04  0.11046617580E+04  0.00000000000E+00 0. -1.
         -2   -1    0    0    0  501 -0.00000000000E+00 -0.00000000000E+00 -0.17797735836E+02  0.17797735836E+02  0.00000000000E+00 0.  1.
         25    2    1    2    0    0 -0.85470709210E+02  0.22003010325E+02  0.71185102334E+03  0.72812749869E+03  0.12509356627E+03 0.  0.
          5    1    3    3  502    0 -0.28642007921E+02  0.50900487937E+02  0.56440225170E+03  0.56743158038E+03  0.41800000000E+01 0.  1.
         -5    1    3    3    0  502 -0.56828701289E+02 -0.28897477612E+02  0.14744877163E+03  0.16069591830E+03  0.41800000000E+01 0.  1.
        -11    1    1    2    0    0  0.24816731272E+02 -0.41725023787E+02  0.89883585355E+02  0.10215628555E+03  0.00000000000E+00 0. -1.
         11    1    1    2    0    0  0.60653977937E+02  0.19722013462E+02  0.28512941352E+03  0.29217570965E+03  0.00000000000E+00 0.  1.
</event>
<event>
 7    1  0.2564986E-009  0.9203629E+02  0.7561462E-02  0.1297994E+00
          1   -1    0    0  501    0  0.00000000000E+00  0.00000000000E+00  0.76243596270E+03  0.76243596270E+03  0.00000000000E+00 0. -1.
         -1   -1    0    0    0  501 -0.00000000000E+00 -0.00000000000E+00 -0.19629213463E+02  0.19629213463E+02  0.00000000000E+00 0.  1.
         25    2    1    2    0    0  0.31097533950E+02 -0.17967721928E+02  0.55598618933E+03  0.57101849183E+03  0.12510627340E+03 0.  0.
          5    1    3    3  502    0 -0.45973366207E+02  0.16747608470E+01  0.27943110870E+03  0.28322353739E+03  0.41800000000E+01 0.  1.
         -5    1    3    3    0  502  0.77070900157E+02 -0.19642482775E+02  0.27655508063E+03  0.28779495444E+03  0.41800000000E+01 0.  1.
        -11    1    1    2    0    0 -0.30619145004E+02  0.31944957030E+02  0.19130815970E+03  0.19635891701E+03  0.00000000000E+00 0. -1.
         11    1    1    2    0    0 -0.47838894606E+00 -0.13977235102E+02 -0.44875997885E+01  0.14687767323E+02  0.00000000000E+00 0.  1.
</event>
<event>
 7    1  0.2564986E-009  0.1347522E+03  0.7561462E-02  0.1220570E+00
         -2   -1    0    0    0  501 -0.00000000000E+00  0.00000000000E+00  0.39657853236E+02  0.39657853236E+02  0.00000000000E+00 0.  1.
          2   -1    0    0  501    0  0.00000000000E+00 -0.00000000000E+00 -0.69905610336E+03  0.69905610336E+03  0.00000000000E+00 0. -1.
         25    2    1    2    0    0  0.92108776526E+02  0.86921308740E+02 -0.31105718195E+03  0.35839002708E+03  0.12508996941E+03 0.  0.
          5    1    3    3  502    0  0.74121106322E+02  0.63428561353E+02 -0.82337281164E+02  0.12772635228E+03  0.41800000000E+01 0. -1.
         -5    1    3    3    0  502  0.17987670204E+02  0.23492747388E+02 -0.22871990078E+03  0.23066367480E+03  0.41800000000E+01 0. -1.
        -11    1    1    2    0    0 -0.43144411654E+02 -0.82137882447E+02 -0.15344055846E+03  0.17931000243E+03  0.00000000000E+00 0. -1.
         11    1    1    2    0    0 -0.48964364872E+02 -0.47834262936E+01 -0.19490050972E+03  0.20101392709E+03  0.00000000000E+00 0.  1.
</event>
<event>
 7    1  0.2564986E-009  0.1079462E+03  0.7561462E-02  0.1264421E+00
          1   -1    0    0  501    0  0.00000000000E+00  0.00000000000E+00  0.12978624994E+03  0.12978624994E+03  0.00000000000E+00 0. -1.
         -1   -1    0    0    0  501 -0.00000000000E+00 -0.00000000000E+00 -0.12037436176E+03  0.12037436176E+03  0.00000000000E+00 0.  1.
         25    2    1    2    0    0  0.40273100284E+02  0.41791006682E+02 -0.51550280365E+01  0.13798945202E+03  0.12508438635E+03 0.  0.
          5    1    3    3  502    0  0.18211557594E+02 -0.43099008951E+02  0.12082535002E+02  0.48504076680E+02  0.41800000000E+01 0.  1.
         -5    1    3    3    0  502  0.22061542690E+02  0.84890015633E+02 -0.17237563039E+02  0.89485375339E+02  0.41800000000E+01 0.  1.
        -11    1    1    2    0    0 -0.35825353691E+02 -0.55855209843E+02  0.43743337527E+02  0.79477921536E+02  0.00000000000E+00 0. -1.
         11    1    1    2    0    0 -0.44477465927E+01  0.14064203161E+02 -0.29176421310E+02  0.32693238150E+02  0.00000000000E+00 0.  1.
</event>
<event>
 7    1  0.2564986E-009  0.1125004E+03  0.7561462E-02  0.1256008E+00
         -1   -1    0    0    0  501 -0.00000000000E+00  0.00000000000E+00  0.61862552333E+02  0.61862552333E+02  0.00000000000E+00 0.  1.
          1   -1    0    0  501    0  0.00000000000E+00 -0.00000000000E+00 -0.33645955509E+03  0.33645955509E+03  0.00000000000E+00 0. -1.
         25    2    1    2    0    0 -0.53679821269E+02  0.48843766129E+02 -0.22995980471E+03  0.27165464276E+03  0.12508995343E+03 0.  0.
          5    1    3    3  502    0  0.78993671043E+01  0.44184143890E+02 -0.19587186941E+03  0.20099228890E+03  0.41800000000E+01 0. -1.
         -5    1    3    3    0  502 -0.61579188373E+02  0.46596222394E+01 -0.34087935306E+02  0.70662353864E+02  0.41800000000E+01 0. -1.
        -11    1    1    2    0    0  0.82049815690E+01 -0.68135409591E+02 -0.31751018689E+02  0.75616684339E+02  0.00000000000E+00 0. -1.
         11    1    1    2    0    0  0.45474839700E+02  0.19291643462E+02 -0.12886179360E+02  0.51050780324E+02  0.00000000000E+00 0.  1.
</event>
<event>
 7    1  0.2564986E-009  0.1160102E+03  0.7561462E-02  0.1249828E+00
         -2   -1    0    0    0  501 -0.00000000000E+00  0.00000000000E+00  0.14535280539E+02  0.14535280539E+02  0.00000000000E+00 0.  1.
          2   -1    0    0  501    0  0.00000000000E+00 -0.00000000000E+00 -0.13284095327E+04  0.13284095327E+04  0.00000000000E+00 0. -1.
         25    2    1    2    0    0 -0.15952296711E+02 -0.67538896149E+02 -0.94851127810E+03  0.95923790214E+03  0.12509088683E+03 0.  0.
          5    1    3    3  502    0 -0.46461395499E+02 -0.74779820463E+02 -0.39016052098E+03  0.39999173411E+03  0.41800000000E+01 0.  1.
         -5    1    3    3    0  502  0.30509098788E+02  0.72409243138E+01 -0.55835075711E+03  0.55924616803E+03  0.41800000000E+01 0.  1.
        -11    1    1    2    0    0  0.12420074265E+02 -0.20591973353E+02 -0.13321312206E+03  0.13536625688E+03  0.00000000000E+00 0. -1.
         11    1    1    2    0    0  0.35322224459E+01  0.88130869502E+02 -0.23214985203E+03  0.24834065425E+03  0.00000000000E+00 0.  1.
</event>
<event>
 7    1  0.2564986E-009  0.8318267E+02  0.7561462E-02  0.1320255E+00
         -2   -1    0    0    0  501 -0.00000000000E+00  0.00000000000E+00  0.10400064861E+03  0.10400064861E+03  0.00000000000E+00 0.  1.
          2   -1    0    0  501    0  0.00000000000E+00 -0.00000000000E+00 -0.17450690607E+03  0.17450690607E+03  0.00000000000E+00 0. -1.
         25    2    1    2    0    0 -0.87689341229E+01  0.79515695976E+02 -0.38466932180E+02  0.15338550324E+03  0.12509103733E+03 0.  0.
          5    1    3    3  502    0  0.10531249128E+02  0.46778249141E+02  0.42267732656E+02  0.64055799307E+02  0.41800000000E+01 0.  1.
         -5    1    3    3    0  502 -0.19300183251E+02  0.32737446835E+02 -0.80734664837E+02  0.89329703935E+02  0.41800000000E+01 0.  1.
        -11    1    1    2    0    0  0.22447288217E+01 -0.17209366120E+02  0.31454680910E+02  0.35924894444E+02  0.00000000000E+00 0.  1.
         11    1    1    2    0    0  0.65242053012E+01 -0.62306329857E+02 -0.63494006183E+02  0.89197156996E+02  0.00000000000E+00 0. -1.
</event>
<event>
 7    1  0.2564986E-009  0.1564077E+03  0.7561462E-02  0.1192813E+00
          1   -1    0    0  501    0  0.00000000000E+00  0.00000000000E+00  0.30510903735E+02  0.30510903735E+02  0.00000000000E+00 0. -1.
         -1   -1    0    0    0  501 -0.00000000000E+00 -0.00000000000E+00 -0.99904805010E+03  0.99904805010E+03  0.00000000000E+00 0.  1.
         25    2    1    2    0    0  0.13452668038E+03 -0.19389157986E+02 -0.54666012205E+03  0.57702448876E+03  0.12508638778E+03 0.  0.
          5    1    3    3  502    0 -0.19221430770E+02 -0.11463703477E+02 -0.28591827202E+02  0.36549211770E+02  0.41800000000E+01 0.  1.
         -5    1    3    3    0  502  0.15374811115E+03 -0.79254545088E+01 -0.51806829484E+03  0.54047527699E+03  0.41800000000E+01 0.  1.
        -11    1    1    2    0    0 -0.55253324561E+02  0.51011488138E+01 -0.30853389715E+03  0.31348383896E+03  0.00000000000E+00 0.  1.
         11    1    1    2    0    0 -0.79273355820E+02  0.14288009172E+02 -0.11334312717E+03  0.13905062612E+03  0.00000000000E+00 0. -1.
</event>
<event>
 7    1  0.2564986E-009  0.6988325E+02  0.7561462E-02  0.1360491E+00
          2   -1    0    0  501    0  0.00000000000E+00  0.00000000000E+00  0.22497870622E+03  0.22497870622E+03  0.00000000000E+00 0. -1.
         -2   -1    0    0    0  501 -0.00000000000E+00 -0.00000000000E+00 -0.57066855526E+02  0.57066855526E+02  0.00000000000E+00 0.  1.
         25    2    1    2    0    0 -0.16127883345E+02 -0.20317792093E+02  0.69462765579E+02  0.14540542670E+03  0.12507893914E+03 0.  0.
          5    1    3    3  502    0  0.18587166327E+01  0.16695259258E+02 -0.31696860098E+02  0.36115783936E+02  0.41800000000E+01 0. -1.
         -5    1    3    3    0  502 -0.17986599978E+02 -0.37013051351E+02  0.10115962568E+03  0.10928964277E+03  0.41800000000E+01 0. -1.
        -11    1    1    2    0    0  0.29882152040E+02 -0.21667691214E+02  0.10756186463E+02  0.38446422464E+02  0.00000000000E+00 0.  1.
         11    1    1    2    0    0 -0.13754268694E+02  0.41985483307E+02  0.87692898649E+02  0.98193712575E+02  0.00000000000E+00 0. -1.
</event>
<event>
 7    1  0.2564986E-009  0.1066993E+03  0.7561462E-02  0.1266807E+00
         -3   -1    0    0    0  501 -0.00000000000E+00  0.00000000000E+00  0.31082932796E+02  0.31082932796E+02  0.00000000000E+00 0.  1.
          3   -1    0    0  501    0  0.00000000000E+00 -0.00000000000E+00 -0.38807397320E+03  0.38807397320E+03  0.00000000000E+00 0. -1.
         25    2    1    2    0    0 -0.36398287211E+01 -0.20250287862E+02 -0.20668397591E+03  0.24246439753E+03  0.12508955058E+03 0.  0.
          5    1    3    3  502    0 -0.78352451050E+01 -0.71952079879E+02 -0.97371282196E+02  0.12139658917E+03  0.41800000000E+01 0.  1.
         -5    1    3    3    0  502  0.41954163839E+01  0.51701792017E+02 -0.10931269371E+03  0.12106780837E+03  0.41800000000E+01 0.  1.
        -11    1    1    2    0    0  0.14835607814E+02  0.52587551061E+02 -0.11605866891E+03  0.12827766920E+03  0.00000000000E+00 0. -1.
         11    1    1    2    0    0 -0.11195779093E+02 -0.32337263199E+02 -0.34248395586E+02  0.48414839263E+02  0.00000000000E+00 0.  1.
</event>
<event>
 7    1  0.2613285E-009  0.1889222E+03  0.7561462E-02  0.1159437E+00
         -2   -1    0    0    0  501 -0.00000000000E+00  0.00000000000E+00  0.38044899738E+02  0.38044899738E+02  0.00000000000E+00 0.  1.
          2   -1    0    0  501    0  0.00000000000E+00 -0.00000000000E+00 -0.11508330703E+04  0.11508330703E+04  0.00000000000E+00 0. -1.
         25    2    1    2    0    0 -0.45461571418E+02  0.17226447954E+03 -0.55414491200E+03  0.59537091992E+03  0.12509253936E+03 0.  0.
          5    1    3    3  502    0 -0.24972814270E+02  0.12531286828E+02 -0.13644451613E+02  0.31373843595E+02  0.41800000000E+01 0. -1.
         -5    1    3    3    0  502 -0.20488757149E+02  0.15973319271E+03 -0.54050046039E+03  0.56399707633E+03  0.41800000000E+01 0. -1.
        -11    1    1    2    0    0  0.88502665339E+01 -0.13821879875E+03 -0.30486864608E+03  0.33485467729E+03  0.00000000000E+00 0.  1.
         11    1    1    2    0    0  0.36611304884E+02 -0.34045680788E+02 -0.25377461246E+03  0.25865237280E+03  0.00000000000E+00 0. -1.
</event>
<event>
 7    1  0.2564986E-009  0.1032022E+03  0.7561462E-02  0.1273703E+00
         -2   -1    0    0    0  501 -0.00000000000E+00  0.00000000000E+00  0.36574375216E+03  0.36574375216E+03  0.00000000000E+00 0. -1.
          2   -1    0    0  501    0  0.00000000000E+00 -0.00000000000E+00 -0.69172520701E+02  0.69172520701E+02  0.00000000000E+00 0.  1.
         25    2    1    2    0    0  0.21936710142E+02  0.88400941872E+01  0.31539006092E+03  0.34011471747E+03  0.12509102284E+03 0.  0.
          5    1    3    3  502    0 -0.28763435497E+02  0.43235372432E+02  0.70607684773E+02  0.87747080863E+02  0.41800000000E+01 0. -1.
         -5    1    3    3    0  502  0.50700145639E+02 -0.34395278245E+02  0.24478237615E+03  0.25236763661E+03  0.41800000000E+01 0. -1.
        -11    1    1    2    0    0 -0.20626120703E+02 -0.48767414017E+02 -0.11601276594E+02  0.54205969632E+02  0.00000000000E+00 0. -1.
         11    1    1    2    0    0 -0.13105894394E+01  0.39927319830E+02 -0.72175528722E+01  0.40595585757E+02  0.00000000000E+00 0.  1.
</event>
<event>
 7    1  0.2564986E-009  0.1365423E+03  0.7561462E-02  0.1218059E+00
          1   -1    0    0  501    0  0.00000000000E+00  0.00000000000E+00  0.26269198363E+03  0.26269198363E+03  0.00000000000E+00 0. -1.
         -1   -1    0    0    0  501 -0.00000000000E+00 -0.00000000000E+00 -0.10816552611E+03  0.10816552611E+03  0.00000000000E+00 0.  1.
         25    2    1    2    0    0  0.91484830599E+02  0.90312450373E+02  0.67997245153E+02  0.19182530457E+03  0.12509000441E+03 0.  0.
          5    1    3    3  502    0  0.32216855786E+02  0.14850029033E+02 -0.35686562698E+02  0.50492101523E+02  0.41800000000E+01 0.  1.
         -5    1    3    3    0  502  0.59267974813E+02  0.75462421340E+02  0.10368380785E+03  0.14133320305E+03  0.41800000000E+01 0.  1.
        -11    1    1    2    0    0 -0.63994028435E+02 -0.21979203706E+02  0.80456566632E+02  0.10512649611E+03  0.00000000000E+00 0. -1.
         11    1    1    2    0    0 -0.27490802164E+02 -0.68333246668E+02  0.60726457369E+01  0.73905709049E+02  0.00000000000E+00 0.  1.
</event>
<event>
 7    1  0.2564986E-009  0.1157119E+03  0.7561462E-02  0.1250344E+00
         -1   -1    0    0    0  501 -0.00000000000E+00  0.00000000000E+00  0.35722740471E+03  0.35722740471E+03  0.00000000000E+00 0.  1.
          1   -1    0    0  501    0  0.00000000000E+00 -0.00000000000E+00 -0.43622357846E+02  0.43622357846E+02  0.00000000000E+00 0. -1.
         25    2    1    2    0    0  0.51235671659E+02  0.32716618772E+02  0.15841870929E+03  0.21080542865E+03  0.12508784953E+03 0.  0.
          5    1    3    3  502    0  0.72170500339E+02  0.64640933973E+02  0.13357434475E+03  0.16506547016E+03  0.41800000000E+01 0. -1.
         -5    1    3    3    0  502 -0.20934828680E+02 -0.31924315201E+02  0.24844364533E+02  0.45739958483E+02  0.41800000000E+01 0. -1.
        -11    1    1    2    0    0 -0.66084498729E+02 -0.71415053547E+01  0.14368255433E+03  0.15831247105E+03  0.00000000000E+00 0.  1.
         11    1    1    2    0    0  0.14848827070E+02 -0.25575113417E+02  0.11503783251E+02  0.31731862863E+02  0.00000000000E+00 0. -1.
</event>
<event>
 7    1  0.2564986E-009  0.1210442E+03  0.7561462E-02  0.1241384E+00
          1   -1    0    0  501    0  0.00000000000E+00  0.00000000000E+00  0.10097779789E+03  0.10097779789E+03  0.00000000000E+00 0. -1.
         -1   -1    0    0    0  501 -0.00000000000E+00 -0.00000000000E+00 -0.24586677807E+03  0.24586677807E+03  0.00000000000E+00 0.  1.
         25    2    1    2    0    0  0.94163824729E+02  0.63217492972E+02 -0.67683526171E+02  0.18191050384E+03  0.12508834633E+03 0.  0.
          5    1    3    3  502    0  0.37808822896E+02  0.22853040192E+02  0.35984053362E+02  0.57132241608E+02  0.41800000000E+01 0.  1.
         -5    1    3    3    0  502  0.56355001833E+02  0.40364452781E+02 -0.10366757953E+03  0.12477826223E+03  0.41800000000E+01 0.  1.
        -11    1    1    2    0    0  0.24114654002E+01 -0.23857287233E+02 -0.52562879354E+02  0.57774056509E+02  0.00000000000E+00 0.  1.
         11    1    1    2    0    0 -0.96575290129E+02 -0.39360205739E+02 -0.24642574660E+02  0.10716001561E+03  0.00000000000E+00 0. -1.
</event>
<event>
 7    1  0.2871576E-009  0.1213116E+03  0.7561462E-02  0.1240949E+00
          1   -1    0    0  501    0  0.00000000000E+00  0.00000000000E+00  0.81322619025E+03  0.81322619025E+03  0.00000000000E+00 0. -1.
         -1   -1    0    0    0  501 -0.00000000000E+00 -0.00000000000E+00 -0.21519868771E+02  0.21519868771E+02  0.00000000000E+00 0.  1.
         25    2    1    2    0    0 -0.24945945477E+02 -0.50490524708E+02  0.27855445776E+03  0.31049808859E+03  0.12507950991E+03 0.  0.
          5    1    3    3  502    0 -0.12321069038E+02  0.41117276094E+02  0.68414724608E+02  0.80873271721E+02  0.41800000000E+01 0.  1.
         -5    1    3    3    0  502 -0.12624876439E+02 -0.91607800802E+02  0.21013973315E+03  0.22962481686E+03  0.41800000000E+01 0.  1.
        -11    1    1    2    0    0 -0.21206997621E+02  0.56534765792E+02  0.26823348148E+03  0.27494566205E+03  0.00000000000E+00 0. -1.
         11    1    1    2    0    0  0.46152943098E+02 -0.60442410843E+01  0.24491838225E+03  0.24930230839E+03  0.00000000000E+00 0.  1.
</event>
<event>
 7    1  0.2564986E-009  0.2953350E+03  0.7561462E-02  0.1087596E+00
          1   -1    0    0  501    0  0.00000000000E+00  0.00000000000E+00  0.38191595403E+03  0.38191595403E+03  0.00000000000E+00 0. -1.
         -1   -1    0    0    0  501 -0.00000000000E+00 -0.00000000000E+00 -0.24183549654E+03  0.24183549654E+03  0.00000000000E+00 0.  1.
         25    2    1    2    0    0  0.28071048489E+03 -0.32356170076E+02  0.95239725044E+02  0.32336271875E+03  0.12509014584E+03 0.  0.
          5    1    3    3  502    0  0.15822990771E+03  0.42777603114E+02  0.65535912048E+02  0.17657591906E+03  0.41800000000E+01 0.  1.
         -5    1    3    3    0  502  0.12248057718E+03 -0.75133773191E+02  0.29703812995E+02  0.14678679970E+03  0.41800000000E+01 0.  1.
        -11    1    1    2    0    0 -0.21996382115E+02  0.65894539911E+01 -0.22148465469E+02  0.31903232637E+02  0.00000000000E+00 0. -1.
         11    1    1    2    0    0 -0.25871410277E+03  0.25766716085E+02  0.66989197914E+02  0.26848549918E+03  0.00000000000E+00 0.  1.
</event>
<event>
 7    1  0.2564986E-009  0.1404804E+03  0.7561462E-02  0.1212684E+00
         -1   -1    0    0    0  501 -0.00000000000E+00  0.00000000000E+00  0.18308121896E+02  0.18308121896E+02  0.00000000000E+00 0.  1.
          1   -1    0    0  501    0  0.00000000000E+00 -0.00000000000E+00 -0.12865341578E+04  0.12865341578E+04  0.00000000000E+00 0. -1.
         25    2    1    2    0    0  0.57078277014E+02  0.90538068816E+02 -0.59117515075E+03  0.61366980828E+03  0.12508998008E+03 0.  0.
          5    1    3    3  502    0 -0.14414040325E+02  0.64387493936E+02 -0.12603423840E+03  0.14232222449E+03  0.41800000000E+01 0.  1.
         -5    1    3    3    0  502  0.71492317339E+02  0.26150574879E+02 -0.46514091235E+03  0.47134758379E+03  0.41800000000E+01 0.  1.
        -11    1    1    2    0    0  0.21329530467E+02 -0.39977497034E+02 -0.24639822015E+03  0.25052990247E+03  0.00000000000E+00 0.  1.
         11    1    1    2    0    0 -0.78407807480E+02 -0.50560571781E+02 -0.43065266504E+03  0.44064256898E+03  0.00000000000E+00 0. -1.
</event>
<event>
 7    1  0.2564986E-009  0.1124031E+03  0.7561462E-02  0.1256183E+00
         -1   -1    0    0    0  501 -0.00000000000E+00  0.00000000000E+00  0.21126864764E+02  0.21126864764E+02  0.00000000000E+00 0.  1.
          1   -1    0    0  501    0  0.00000000000E+00 -0.00000000000E+00 -0.16374009914E+04  0.16374009914E+04  0.00000000000E+00 0. -1.
         25    2    1    2    0    0 -0.33142419405E+02  0.69963121546E+02 -0.14303119425E+04  0.14378567738E+04  0.12508633337E+03 0.  0.
          5    1    3    3  502    0 -0.63493651893E+02  0.40344504325E+02 -0.42393866910E+03  0.43058168843E+03  0.41800000000E+01 0.  1.
         -5    1    3    3    0  502  0.30351232488E+02  0.29618617221E+02 -0.10063732734E+04  0.10072750854E+04  0.41800000000E+01 0.  1.
        -11    1    1    2    0    0  0.35928339316E+02 -0.84619181940E+02 -0.11046569236E+03  0.14371471987E+03  0.00000000000E+00 0.  1.
         11    1    1    2    0    0 -0.27859199113E+01  0.14656060394E+02 -0.75496491718E+02  0.76956362425E+02  0.00000000000E+00 0. -1.
</event>
<event>
 7    1  0.2564986E-009  0.1112461E+03  0.7561462E-02  0.1258280E+00
          2   -1    0    0  501    0  0.00000000000E+00  0.00000000000E+00  0.30417870092E+03  0.30417870092E+03  0.00000000000E+00 0. -1.
         -2   -1    0    0    0  501 -0.00000000000E+00 -0.00000000000E+00 -0.67667537511E+02  0.67667537511E+02  0.00000000000E+00 0.  1.
         25    2    1    2    0    0 -0.44748512928E+02  0.77465709945E+02  0.91466791242E+02  0.17893395208E+03  0.12509124542E+03 0.  0.
          5    1    3    3  502    0 -0.62119527429E+02  0.35072330180E+02 -0.54358698411E+01  0.71665368995E+02  0.41800000000E+01 0.  1.
         -5    1    3    3    0  502  0.17371014501E+02  0.42393379765E+02  0.96902661083E+02  0.10726858309E+03  0.41800000000E+01 0.  1.
        -11    1    1    2    0    0  0.18676134455E+02 -0.76704300658E+02  0.14689337406E+03  0.16676333854E+03  0.00000000000E+00 0. -1.
         11    1    1    2    0    0  0.26072378473E+02 -0.76140928695E+00 -0.18490018984E+01  0.26148947806E+02  0.00000000000E+00 0.  1.
</event>
<event>
 7    1  0.2564986E-009  0.2102363E+03  0.7561462E-02  0.1141379E+00
         -4   -1    0    0    0  501 -0.00000000000E+00  0.00000000000E+00  0.59002914663E+03  0.59002914663E+03  0.00000000000E+00 0.  1.
          4   -1    0    0  501    0  0.00000000000E+00 -0.00000000000E+00 -0.11291358086E+03  0.11291358086E+03  0.00000000000E+00 0. -1.
         25    2    1    2    0    0  0.46586298364E+02  0.19166205205E+03  0.72847059875E+02  0.24466093136E+03  0.12509057443E+03 0.  0.
          5    1    3    3  502    0  0.27413344329E+02  0.10376367608E+02 -0.24072554692E+02  0.38159150166E+02  0.41800000000E+01 0.  1.
         -5    1    3    3    0  502  0.19172954035E+02  0.18128568444E+03  0.96919614567E+02  0.20650178119E+03  0.41800000000E+01 0.  1.
        -11    1    1    2    0    0 -0.64313159323E+02 -0.15426255984E+03  0.36400229716E+03  0.40053812824E+03  0.00000000000E+00 0. -1.
         11    1    1    2    0    0  0.17726860959E+02 -0.37399492203E+02  0.40266208728E+02  0.57743667894E+02  0.00000000000E+00 0.  1.
</event>
<event>
 7    1  0.2564986E-009  0.1143808E+03  0.7561462E-02  0.1252666E+00
          2   -1    0    0  501    0  0.00000000000E+00  0.00000000000E+00  0.43085534080E+03  0.43085534080E+03  0.00000000000E+00 0. -1.
         -2   -1    0    0    0  501 -0.00000000000E+00 -0.00000000000E+00 -0.39591979899E+02  0.39591979899E+02  0.00000000000E+00 0.  1.
         25    2    1    2    0    0 -0.56764731428E+02 -0.31716672498E+02  0.26486690990E+03  0.30004921837E+03  0.12508745515E+03 0.  0.
          5    1    3    3  502    0 -0.74560818086E+02 -0.52850386425E+02  0.25416122119E+03  0.27012567019E+03  0.41800000000E+01 0. -1.
         -5    1    3    3    0  502  0.17796086658E+02  0.21133713926E+02  0.10705688703E+02  0.29923548173E+02  0.41800000000E+01 0. -1.
        -11    1    1    2    0    0  0.53070273475E+02  0.60404691011E+02  0.11257318897E+03  0.13833981169E+03  0.00000000000E+00 0. -1.
         11    1    1    2    0    0  0.36944579525E+01 -0.28688018513E+02  0.13823262033E+02  0.32058290644E+02  0.00000000000E+00 0.  1.
</event>
<event>
 7    1  0.2564986E-009  0.2181221E+03  0.7561462E-02  0.1135291E+00
          2   -1    0    0  501    0  0.00000000000E+00  0.00000000000E+00  0.16018416106E+04  0.16018416106E+04  0.00000000000E+00 0. -1.
         -2   -1    0    0    0  501 -0.00000000000E+00 -0.00000000000E+00 -0.61543856379E+02  0.61543856379E+02  0.00000000000E+00 0.  1.
         25    2    1    2    0    0  0.14345516620E+03  0.14987386315E+03  0.13394250575E+04  0.13611570554E+04  0.12508990945E+03 0.  0.
          5    1    3    3  502    0  0.73451372828E+02  0.13079428673E+03  0.61282224405E+03  0.63092854177E+03  0.41800000000E+01 0. -1.
         -5    1    3    3    0  502  0.70003793375E+02  0.19079576419E+02  0.72660281340E+03  0.73022851366E+03  0.41800000000E+01 0. -1.
        -11    1    1    2    0    0 -0.53010162374E+02 -0.91831833657E+02  0.50615458703E+02  0.11749505371E+03  0.00000000000E+00 0.  1.
         11    1    1    2    0    0 -0.90445003829E+02 -0.58042029494E+02  0.15025723806E+03  0.18473335783E+03  0.00000000000E+00 0. -1.
</event>
<event>
 7    1  0.2564986E-009  0.1167940E+03  0.7561462E-02  0.1248482E+00
          1   -1    0    0  501    0  0.00000000000E+00  0.00000000000E+00  0.25932742486E+03  0.25932742486E+03  0.00000000000E+00 0.  1.
         -1   -1    0    0    0  501 -0.00000000000E+00 -0.00000000000E+00 -0.70772639406E+02  0.70772639406E+02  0.00000000000E+00 0. -1.
         25    2    1    2    0    0 -0.69615573692E+02  0.10907790638E+02  0.15690871596E+03  0.21268030432E+03  0.12508900313E+03 0.  0.
          5    1    3    3  502    0 -0.17859489312E+02 -0.55148317964E+02  0.79171290462E+02  0.98213359407E+02  0.41800000000E+01 0. -1.
         -5    1    3    3    0  502 -0.51756084380E+02  0.66056108602E+02  0.77737425501E+02  0.11446694491E+03  0.41800000000E+01 0. -1.
        -11    1    1    2    0    0 -0.37819646808E+01  0.13561715413E+02 -0.19954963395E+02  0.24421792438E+02  0.00000000000E+00 0. -1.
         11    1    1    2    0    0  0.73397538373E+02 -0.24469506051E+02  0.51601032886E+02  0.92997967508E+02  0.00000000000E+00 0.  1.
</event>
<event>
 7    1  0.2564986E-009  0.1460239E+03  0.7561462E-02  0.1205446E+00
         -4   -1    0    0    0  501 -0.00000000000E+00  0.00000000000E+00  0.58930014027E+03  0.58930014027E+03  0.00000000000E+00 0.  1.
          4   -1    0    0  501    0  0.00000000000E+00 -0.00000000000E+00 -0.45742599487E+02  0.45742599487E+02  0.00000000000E+00 0. -1.
         25    2    1    2    0    0 -0.11613439619E+03 -0.36082515336E+02  0.31587922387E+03  0.36085467464E+03  0.12508903328E+03 0.  0.
          5    1    3    3  502    0 -0.13618727383E+03 -0.10468042733E+02  0.21476790310E+03  0.25455702323E+03  0.41800000000E+01 0. -1.
         -5    1    3    3    0  502  0.20052877640E+02 -0.25614472603E+02  0.10111132077E+03  0.10629765142E+03  0.41800000000E+01 0. -1.
        -11    1    1    2    0    0  0.94371036116E+02  0.35496206544E+02  0.23111168928E+03  0.25214774649E+03  0.00000000000E+00 0.  1.
         11    1    1    2    0    0  0.21763360071E+02  0.58630879167E+00 -0.34333723667E+01  0.22040318631E+02  0.00000000000E+00 0. -1.
</event>
<event>
 7    1  0.2564986E-009  0.1069845E+03  0.7561462E-02  0.1266258E+00
          1   -1    0    0  501    0  0.00000000000E+00  0.00000000000E+00  0.24072864812E+03  0.24072864812E+03  0.00000000000E+00 0. -1.
         -1   -1    0    0    0  501 -0.00000000000E+00 -0.00000000000E+00 -0.58851979374E+02  0.58851979374E+02  0.00000000000E+00 0.  1.
         25    2    1    2    0    0  0.29322625080E+02 -0.16964618700E+02  0.58127951570E+02  0.14203610159E+03  0.12509108990E+03 0.  0.
          5    1    3    3  502    0  0.23702959507E+02  0.48078242953E+02 -0.11162654982E+01  0.53777933983E+02  0.41800000000E+01 0.  1.
         -5    1    3    3    0  502  0.56196655733E+01 -0.65042861653E+02  0.59244217068E+02  0.88258167606E+02  0.41800000000E+01 0.  1.
        -11    1    1    2    0    0 -0.61185445741E+02  0.81627968334E+01  0.61909854362E+02  0.87424939748E+02  0.00000000000E+00 0.  1.
         11    1    1    2    0    0  0.31862820661E+02  0.88018218668E+01  0.61838862810E+02  0.70119586153E+02  0.00000000000E+00 0. -1.
</event>
<event>
 7    1  0.2564986E-009  0.5842705E+02  0.7561462E-02  0.1404554E+00
         -1   -1    0    0    0  501 -0.00000000000E+00  0.00000000000E+00  0.12144777261E+03  0.12144777261E+03  0.00000000000E+00 0.  1.
          1   -1    0    0  501    0  0.00000000000E+00 -0.00000000000E+00 -0.12437521099E+03  0.12437521099E+03  0.00000000000E+00 0. -1.
         25    2    1    2    0    0 -0.32406890193E+02 -0.28673875398E+02  0.41219457841E+02  0.13864517770E+03  0.12510413236E+03 0.  0.
          5    1    3    3  502    0 -0.30827462847E+02 -0.22677456168E+02  0.85484308131E+02  0.93753073658E+02  0.41800000000E+01 0.  1.
         -5    1    3    3    0  502 -0.15794273461E+01 -0.59964192307E+01 -0.44264850290E+02  0.44892104044E+02  0.41800000000E+01 0.  1.
        -11    1    1    2    0    0 -0.15851509705E+02  0.11775452287E+02 -0.51837447343E+02  0.55471186967E+02  0.00000000000E+00 0. -1.
         11    1    1    2    0    0  0.48258399898E+02  0.16898423111E+02  0.76905511214E+01  0.51706618927E+02  0.00000000000E+00 0.  1.
</event>
<event>
 7    1  0.2564986E-009  0.1361060E+03  0.7561462E-02  0.1218667E+00
         -2   -1    0    0    0  501 -0.00000000000E+00  0.00000000000E+00  0.35494476644E+02  0.35494476644E+02  0.00000000000E+00 0.  1.
          2   -1    0    0  501    0  0.00000000000E+00 -0.00000000000E+00 -0.82561023938E+03  0.82561023938E+03  0.00000000000E+00 0. -1.
         25    2    1    2    0    0 -0.71021740990E+02  0.72308302837E+02 -0.20533794979E+03  0.26092790129E+03  0.12508843949E+03 0.  0.
          5    1    3    3  502    0 -0.62575816955E+02 -0.93377398162E+01 -0.14714169284E+03  0.16022195987E+03  0.41800000000E+01 0.  1.
         -5    1    3    3    0  502 -0.84459240355E+01  0.81646042653E+02 -0.58196256949E+02  0.10070594142E+03  0.41800000000E+01 0.  1.
        -11    1    1    2    0    0  0.26555435715E+02 -0.77429883249E+02 -0.46819187575E+03  0.47529381493E+03  0.00000000000E+00 0.  1.
         11    1    1    2    0    0  0.44466305275E+02  0.51215804119E+01 -0.11658593719E+03  0.12488299981E+03  0.00000000000E+00 0. -1.
</event>
<event>
 7    1  0.2564986E-009  0.1774218E+03  0.7561462E-02  0.1170322E+00
          2   -1    0    0  501    0  0.00000000000E+00  0.00000000000E+00  0.14617528958E+03  0.14617528958E+03  0.00000000000E+00 0. -1.
         -2   -1    0    0    0  501 -0.00000000000E+00 -0.00000000000E+00 -0.33371266216E+03  0.33371266216E+03  0.00000000000E+00 0.  1.
         25    2    1    2    0    0 -0.11777588217E+03  0.11584571288E+03  0.86595973623E+01  0.20740352337E+03  0.12509934160E+03 0.  0.
          5    1    3    3  502    0 -0.20354722267E+02 -0.12574526569E+02 -0.32894651130E+02  0.40889655293E+02  0.41800000000E+01 0. -1.
         -5    1    3    3    0  502 -0.97421159900E+02  0.12842023945E+03  0.41554248493E+02  0.16651386808E+03  0.41800000000E+01 0. -1.
        -11    1    1    2    0    0  0.10074010039E+03 -0.11406397019E+03 -0.20329362062E+03  0.25394379950E+03  0.00000000000E+00 0.  1.
         11    1    1    2    0    0  0.17035781781E+02 -0.17817426904E+01  0.70966506764E+01  0.18540628865E+02  0.00000000000E+00 0. -1.
</event>
<event>
 7    1  0.2564986E-009  0.9104489E+02  0.7561462E-02  0.1300341E+00
         -2   -1    0    0    0  501 -0.00000000000E+00  0.00000000000E+00  0.45283633921E+02  0.45283633921E+02  0.00000000000E+00 0.  1.
          2   -1    0    0  501    0  0.00000000000E+00 -0.00000000000E+00 -0.36466997087E+03  0.36466997087E+03  0.00000000000E+00 0. -1.
         25    2    1    2    0    0 -0.44161319599E+02  0.12563515817E+02 -0.25810161517E+03  0.29047527333E+03  0.12510546186E+03 0.  0.
          5    1    3    3  502    0 -0.62098589693E+02 -0.93348935962E+01 -0.49901725420E+02  0.80318302274E+02  0.41800000000E+01 0. -1.
         -5    1    3    3    0  502  0.17937270094E+02  0.21898409413E+02 -0.20819988975E+03  0.21015697106E+03  0.41800000000E+01 0. -1.
        -11    1    1    2    0    0  0.18301326511E+02  0.33237677825E+02  0.99972193398E+00  0.37956306764E+02  0.00000000000E+00 0.  1.
         11    1    1    2    0    0  0.25859993088E+02 -0.45801193642E+02 -0.62284443714E+02  0.81522024694E+02  0.00000000000E+00 0. -1.
</event>
<event>
 7    1  0.2564986E-009  0.1239018E+03  0.7561462E-02  0.1236796E+00
         -1   -1    0    0    0  501 -0.00000000000E+00  0.00000000000E+00  0.35569609918E+02  0.35569609918E+02  0.00000000000E+00 0.  1.
          1   -1    0    0  501    0  0.00000000000E+00 -0.00000000000E+00 -0.51990228810E+03  0.51990228810E+03  0.00000000000E+00 0. -1.
         25    2    1    2    0    0  0.33708986512E+02 -0.69973175158E+02 -0.17637707318E+03  0.22975900365E+03  0.12509111400E+03 0.  0.
          5    1    3    3  502    0  0.38788316419E+02 -0.10424243050E+03 -0.12195504439E+03  0.16511063884E+03  0.41800000000E+01 0.  1.
         -5    1    3    3    0  502 -0.50793299076E+01  0.34269255345E+02 -0.54422028797E+02  0.64648364809E+02  0.41800000000E+01 0.  1.
        -11    1    1    2    0    0 -0.31074201421E+02 -0.50432197381E+00 -0.55699273279E+02  0.63782986591E+02  0.00000000000E+00 0.  1.
         11    1    1    2    0    0 -0.26347850906E+01  0.70477497132E+02 -0.25225633172E+03  0.26192990777E+03  0.00000000000E+00 0. -1.
</event>
<event>
 7    1  0.2564986E-009  0.1837295E+03  0.7561462E-02  0.1164242E+00
         -2   -1    0    0    0  501 -0.00000000000E+00  0.00000000000E+00  0.39890372023E+02  0.39890372023E+02  0.00000000000E+00 0.  1.
          2   -1    0    0  501    0  0.00000000000E+00 -0.00000000000E+00 -0.10230938059E+04  0.10230938059E+04  0.00000000000E+00 0. -1.
         25    2    1    2    0    0  0.16376628937E+03 -0.13583328933E+02 -0.64640766105E+03  0.67859736731E+03  0.12509044049E+03 0.  0.
          5    1    3    3  502    0  0.32429904986E+02  0.47705496448E+02 -0.13132956565E+03  0.14350066321E+03  0.41800000000E+01 0. -1.
         -5    1    3    3    0  502  0.13133638438E+03 -0.61288825380E+02 -0.51507809539E+03  0.53509670410E+03  0.41800000000E+01 0. -1.
        -11    1    1    2    0    0 -0.63909771710E+02  0.43348397091E+00 -0.52281219132E+02  0.82571016115E+02  0.00000000000E+00 0.  1.
         11    1    1    2    0    0 -0.99856517660E+02  0.13149844962E+02 -0.28451455370E+03  0.30181579450E+03  0.00000000000E+00 0. -1.
</event>
<event>
 7    1  0.2564986E-009  0.9856146E+02  0.7561462E-02  0.1283350E+00
          1   -1    0    0  501    0  0.00000000000E+00  0.00000000000E+00  0.13431563555E+04  0.13431563555E+04  0.00000000000E+00 0. -1.
         -1   -1    0    0    0  501 -0.00000000000E+00 -0.00000000000E+00 -0.16011547016E+02  0.16011547016E+02  0.00000000000E+00 0.  1.
         25    2    1    2    0    0  0.22161053425E+02 -0.13268397166E+02  0.11704506185E+04  0.11773996143E+04  0.12509212073E+03 0.  0.
          5    1    3    3  502    0 -0.25557605813E+02  0.31091287978E+02  0.81494638688E+03  0.81595033261E+03  0.41800000000E+01 0. -1.
         -5    1    3    3    0  502  0.47718659238E+02 -0.44359685144E+02  0.35550423163E+03  0.36144928166E+03  0.41800000000E+01 0. -1.
        -11    1    1    2    0    0  0.23090470342E+02  0.34399233688E+02  0.59639479609E+02  0.72617798280E+02  0.00000000000E+00 0.  1.
         11    1    1    2    0    0 -0.45251523768E+02 -0.21130836522E+02  0.97054710382E+02  0.10915048998E+03  0.00000000000E+00 0. -1.
</event>
<event>
 7    1  0.2564986E-009  0.8601846E+02  0.7561462E-02  0.1312790E+00
          1   -1    0    0  501    0  0.00000000000E+00  0.00000000000E+00  0.17761728550E+02  0.17761728550E+02  0.00000000000E+00 0. -1.
         -1   -1    0    0    0  501 -0.00000000000E+00 -0.00000000000E+00 -0.69572404063E+03  0.69572404063E+03  0.00000000000E+00 0.  1.
         25    2    1    2    0    0 -0.13508054591E+02 -0.39963897576E+02 -0.45881067857E+03  0.47742682005E+03  0.12509815782E+03 0.  0.
          5    1    3    3  502    0 -0.21961787739E+02  0.19715180660E+02 -0.23537282241E+02  0.37980054297E+02  0.41800000000E+01 0.  1.
         -5    1    3    3    0  502  0.84537331480E+01 -0.59679078236E+02 -0.43527339633E+03  0.43944676576E+03  0.41800000000E+01 0.  1.
        -11    1    1    2    0    0 -0.25549755431E+02 -0.52180874368E+00 -0.11374333351E+03  0.11657876395E+03  0.00000000000E+00 0.  1.
         11    1    1    2    0    0  0.39057810022E+02  0.40485706320E+02 -0.10540830000E+03  0.11948018518E+03  0.00000000000E+00 0. -1.
</event>
<event>
 7    1  0.2564986E-009  0.1102960E+03  0.7561462E-02  0.1260023E+00
          2   -1    0    0  501    0  0.00000000000E+00  0.00000000000E+00  0.46236230293E+03  0.46236230293E+03  0.00000000000E+00 0. -1.
         -2   -1    0    0    0  501 -0.00000000000E+00 -0.00000000000E+00 -0.30037193227E+02  0.30037193227E+02  0.00000000000E+00 0.  1.
         25    2    1    2    0    0  0.17145328776E+02 -0.40231196523E+02  0.22834950340E+03  0.26401323451E+03  0.12508789240E+03 0.  0.
          5    1    3    3  502    0 -0.44583749775E+02  0.47950367225E+01  0.38234767748E+02  0.59076839675E+02  0.41800000000E+01 0.  1.
         -5    1    3    3    0  502  0.61729078552E+02 -0.45026233246E+02  0.19011473565E+03  0.20493639484E+03  0.41800000000E+01 0.  1.
        -11    1    1    2    0    0 -0.46327863176E+02  0.50094103246E+02  0.16607941917E+03  0.17954961308E+03  0.00000000000E+00 0. -1.
         11    1    1    2    0    0  0.29182534400E+02 -0.98629067226E+01  0.37896187137E+02  0.48836648560E+02  0.00000000000E+00 0.  1.
</event>
<event>
 7    1  0.2564986E-009  0.1055266E+03  0.7561462E-02  0.1269085E+00
          1   -1    0    0  501    0  0.00000000000E+00  0.00000000000E+00  0.17014097676E+04  0.17014097676E+04  0.00000000000E+00 0. -1.
         -1   -1    0    0    0  501 -0.00000000000E+00 -0.00000000000E+00 -0.78792296400E+01  0.78792296400E+01  0.00000000000E+00 0.  1.
         25    2    1    2    0    0 -0.22728716204E+02  0.26648852755E+02  0.11186949041E+04  0.11262123181E+04  0.12509652697E+03 0.  0.
          5    1    3    3  502    0  0.39899558393E+02 -0.91386610137E+01  0.70915270842E+03  0.71034535695E+03  0.41800000000E+01 0.  1.
         -5    1    3    3    0  502 -0.62628274597E+02  0.35787513769E+02  0.40954219565E+03  0.41586696111E+03  0.41800000000E+01 0.  1.
        -11    1    1    2    0    0 -0.31241052945E+02 -0.30352568040E+02  0.24914782245E+03  0.25292670719E+03  0.00000000000E+00 0.  1.
         11    1    1    2    0    0  0.53969769149E+02  0.37037152850E+01  0.32568781138E+03  0.33014997194E+03  0.00000000000E+00 0. -1.
</event>
<event>
 7    1  0.2564986E-009  0.1609227E+03  0.7561462E-02  0.1187659E+00
         -2   -1    0    0    0  501 -0.00000000000E+00  0.00000000000E+00  0.37228620313E+02  0.37228620313E+02  0.00000000000E+00 0.  1.
          2   -1    0    0  501    0  0.00000000000E+00 -0.00000000000E+00 -0.81568514461E+03  0.81568514461E+03  0.00000000000E+00 0. -1.
         25    2    1    2    0    0  0.94204234354E+02  0.94356645922E+02 -0.47594332150E+03  0.50984971553E+03  0.12508825982E+03 0.  0.
          5    1    3    3  502    0  0.40078353459E+02 -0.21346930360E+02 -0.64344274180E+02  0.78864592001E+02  0.41800000000E+01 0.  1.
         -5    1    3    3    0  502  0.54125880895E+02  0.11570357628E+03 -0.41159904732E+03  0.43098512353E+03  0.41800000000E+01 0.  1.
        -11    1    1    2    0    0 -0.63715093090E+02 -0.17983495331E+02 -0.20542542327E+03  0.21583008066E+03  0.00000000000E+00 0. -1.
         11    1    1    2    0    0 -0.30489141265E+02 -0.76373150591E+02 -0.97087779522E+02  0.12723396873E+03  0.00000000000E+00 0.  1.
</event>
<event>
 7    1  0.2564986E-009  0.9956936E+02  0.7561462E-02  0.1281204E+00
          1   -1    0    0  501    0  0.00000000000E+00  0.00000000000E+00  0.32267026772E+03  0.32267026772E+03  0.00000000000E+00 0. -1.
         -1   -1    0    0    0  501 -0.00000000000E+00 -0.00000000000E+00 -0.39177083210E+02  0.39177083210E+02  0.00000000000E+00 0.  1.
         25    2    1    2    0    0 -0.27334867175E+02 -0.51117378540E+01  0.14065212707E+03  0.19027428098E+03  0.12509179160E+03 0.  0.
          5    1    3    3  502    0  0.49104820663E+02 -0.99281709402E+01  0.68490993470E+02  0.84960817893E+02  0.41800000000E+01 0.  1.
         -5    1    3    3    0  502 -0.76439687838E+02  0.48164330862E+01  0.72161133599E+02  0.10531346308E+03  0.41800000000E+01 0.  1.
        -11    1    1    2    0    0 -0.13831886280E+02  0.23346586202E+02  0.63803484401E+01  0.27876388065E+02  0.00000000000E+00 0.  1.
         11    1    1    2    0    0  0.41166753455E+02 -0.18234848348E+02  0.13646070900E+03  0.14369668188E+03  0.00000000000E+00 0. -1.
</event>
<event>
 7    1  0.2564986E-009  0.1058981E+03  0.7561462E-02  0.1268360E+00
          1   -1    0    0  501    0  0.00000000000E+00  0.00000000000E+00  0.14280028645E+03  0.14280028645E+03  0.00000000000E+00 0. -1.
         -1   -1    0    0    0  501 -0.00000000000E+00 -0.00000000000E+00 -0.86476820926E+02  0.86476820926E+02  0.00000000000E+00 0.  1.
         25    2    1    2    0    0  0.14672189567E+02 -0.25807272170E+02  0.31200646246E+02  0.13229472237E+03  0.12508846789E+03 0.  0.
          5    1    3    3  502    0 -0.15368330352E+02  0.41528588861E+02  0.37497890161E+02  0.58175367959E+02  0.41800000000E+01 0.  1.
         -5    1    3    3    0  502  0.30040519919E+02 -0.67335861032E+02 -0.62972439157E+01  0.74119354414E+02  0.41800000000E+01 0.  1.
        -11    1    1    2    0    0  0.12306984380E+02  0.53445333490E+02  0.11574946957E+02  0.56052162611E+02  0.00000000000E+00 0.  1.
         11    1    1    2    0    0 -0.26979173947E+02 -0.27638061319E+02  0.13547872317E+02  0.40930222387E+02  0.00000000000E+00 0. -1.
</event>
<event>
 7    1  0.2564986E-009  0.1095527E+03  0.7561462E-02  0.1261400E+00
         -2   -1    0    0    0  501 -0.00000000000E+00  0.00000000000E+00  0.17954367974E+02  0.17954367974E+02  0.00000000000E+00 0.  1.
          2   -1    0    0  501    0  0.00000000000E+00 -0.00000000000E+00 -0.80148656531E+03  0.80148656531E+03  0.00000000000E+00 0. -1.
         25    2    1    2    0    0 -0.30581902079E+02 -0.20939549044E+02 -0.59389774393E+03  0.60805951096E+03  0.12509245050E+03 0.  0.
          5    1    3    3  502    0 -0.56940628877E+02 -0.59831365878E+02 -0.40543893139E+03  0.41378765937E+03  0.41800000000E+01 0. -1.
         -5    1    3    3    0  502  0.26358726798E+02  0.38891816835E+02 -0.18845881254E+03  0.19427185158E+03  0.41800000000E+01 0. -1.
        -11    1    1    2    0    0  0.48142454550E+02  0.40526885523E+02 -0.15900892514E+03  0.17100866251E+03  0.00000000000E+00 0. -1.
         11    1    1    2    0    0 -0.17560552471E+02 -0.19587336480E+02 -0.30625528265E+02  0.40372759814E+02  0.00000000000E+00 0.  1.
</event>
<event>
 7    1  0.2564986E-009  0.1807462E+03  0.7561462E-02  0.1167083E+00
          2   -1    0    0  501    0  0.00000000000E+00  0.00000000000E+00  0.39440503157E+03  0.39440503157E+03  0.00000000000E+00 0. -1.
         -2   -1    0    0    0  501 -0.00000000000E+00 -0.00000000000E+00 -0.96917615745E+02  0.96917615745E+02  0.00000000000E+00 0.  1.
         25    2    1    2    0    0  0.96353801540E+02  0.11740444520E+03  0.83261845539E+02  0.21365744186E+03  0.12509639769E+03 0.  0.
          5    1    3    3  502    0  0.77690706512E+02  0.11358280674E+02  0.69657210579E+02  0.10504501799E+03  0.41800000000E+01 0. -1.
         -5    1    3    3    0  502  0.18663095028E+02  0.10604616452E+03  0.13604634959E+02  0.10861242387E+03  0.41800000000E+01 0. -1.
        -11    1    1    2    0    0 -0.81460930329E+02 -0.30574537977E+02  0.88150021884E+02  0.12385924229E+03  0.00000000000E+00 0. -1.
         11    1    1    2    0    0 -0.14892871211E+02 -0.86829907221E+02  0.12607554841E+03  0.15380596317E+03  0.00000000000E+00 0.  1.
</event>
<event>
 7    1  0.2564986E-009  0.9107846E+02  0.7561462E-02  0.1300261E+00
          1   -1    0    0  501    0  0.00000000000E+00  0.00000000000E+00  0.14004011163E+03  0.14004011163E+03  0.00000000000E+00 0. -1.
         -1   -1    0    0    0  501 -0.00000000000E+00 -0.00000000000E+00 -0.11083550401E+03  0.11083550401E+03  0.00000000000E+00 0.  1.
         25    2    1    2    0    0 -0.20131979018E+02  0.45041210967E+02  0.57793124945E+02  0.14635507123E+03  0.12508298972E+03 0.  0.
          5    1    3    3  502    0  0.16432579162E+02  0.65543339664E+02 -0.80604372811E+01  0.68179190970E+02  0.41800000000E+01 0. -1.
         -5    1    3    3    0  502 -0.36564558180E+02 -0.20502128696E+02  0.65853562226E+02  0.78175880256E+02  0.41800000000E+01 0. -1.
        -11    1    1    2    0    0 -0.14804794373E+02  0.63951197454E+00  0.22935609186E+02  0.27306282807E+02  0.00000000000E+00 0. -1.
         11    1    1    2    0    0  0.34936773391E+02 -0.45680722942E+02 -0.51524126504E+02  0.77214261607E+02  0.00000000000E+00 0.  1.
</event>
<event>
 7    1  0.2564986E-009  0.1720237E+03  0.7561462E-02  0.1175754E+00
          1   -1    0    0  501    0  0.00000000000E+00  0.00000000000E+00  0.19689780778E+04  0.19689780778E+04  0.00000000000E+00 0. -1.
         -1   -1    0    0    0  501 -0.00000000000E+00 -0.00000000000E+00 -0.18231075631E+02  0.18231075631E+02  0.00000000000E+00 0.  1.
         25    2    1    2    0    0 -0.42242363820E+02  0.12989496801E+03  0.13959093656E+04  0.14081431647E+04  0.12508834951E+03 0.  0.
          5    1    3    3  502    0 -0.80297672942E+02  0.11893319206E+03  0.10032708476E+04  0.10134903485E+04  0.41800000000E+01 0. -1.
         -5    1    3    3    0  502  0.38055309123E+02  0.10961775951E+02  0.39263851807E+03  0.39465281622E+03  0.41800000000E+01 0. -1.
        -11    1    1    2    0    0  0.58201385355E+02 -0.43127064322E+02  0.18095490950E+03  0.19491542835E+03  0.00000000000E+00 0. -1.
         11    1    1    2    0    0 -0.15959021535E+02 -0.86767903690E+02  0.37388272702E+03  0.38415056039E+03  0.00000000000E+00 0.  1.
</event>
<event>
 7    1  0.2564986E-009  0.1922020E+03  0.7561462E-02  0.1156490E+00
         -2   -1    0    0    0  501 -0.00000000000E+00  0.00000000000E+00  0.26647083545E+02  0.26647083545E+02  0.00000000000E+00 0.  1.
          2   -1    0    0  501    0  0.00000000000E+00 -0.00000000000E+00 -0.15482042997E+04  0.15482042997E+04  0.00000000000E+00 0. -1.
         25    2    1    2    0    0 -0.34602419863E+02 -0.16495810959E+03 -0.91860782917E+03  0.94228197468E+03  0.12508585300E+03 0.  0.
          5    1    3    3  502    0 -0.74169122373E+02 -0.14661996990E+03 -0.77019672977E+03  0.78753980803E+03  0.41800000000E+01 0.  1.
         -5    1    3    3    0  502  0.39566702510E+02 -0.18338139685E+02 -0.14841109940E+03  0.15474216665E+03  0.41800000000E+01 0.  1.
        -11    1    1    2    0    0  0.14702044624E+02  0.15148507651E+03 -0.57889243134E+03  0.59856522250E+03  0.00000000000E+00 0. -1.
         11    1    1    2    0    0  0.19900375239E+02  0.13473033077E+02 -0.24056955650E+02  0.34004186067E+02  0.00000000000E+00 0.  1.
</event>
<event>
 7    1  0.2564986E-009  0.1337663E+03  0.7561462E-02  0.1221972E+00
         -1   -1    0    0    0  501 -0.00000000000E+00  0.00000000000E+00  0.13738313621E+03  0.13738313621E+03  0.00000000000E+00 0.  1.
          1   -1    0    0  501    0  0.00000000000E+00 -0.00000000000E+00 -0.17104004538E+03  0.17104004538E+03  0.00000000000E+00 0. -1.
         25    2    1    2    0    0 -0.98140928601E+02 -0.20101675393E+02  0.22986536531E+02  0.16190169162E+03  0.12509219667E+03 0.  0.
          5    1    3    3  502    0 -0.10138110009E+03 -0.60892521612E+02  0.24050551747E+02  0.12075565445E+03  0.41800000000E+01 0.  1.
         -5    1    3    3    0  502  0.32401714852E+01  0.40790846219E+02 -0.10640152162E+01  0.41146037171E+02  0.41800000000E+01 0.  1.
        -11    1    1    2    0    0  0.13920951014E+02  0.19354137956E+02  0.21148623725E+02  0.31869104452E+02  0.00000000000E+00 0.  1.
         11    1    1    2    0    0  0.84219977587E+02  0.74753743751E+00 -0.77792069434E+02  0.11465238551E+03  0.00000000000E+00 0. -1.
</event>
<event>
 7    1  0.2564986E-009  0.1172095E+03  0.7561462E-02  0.1247773E+00
          2   -1    0    0  501    0  0.00000000000E+00  0.00000000000E+00  0.25599334041E+03  0.25599334041E+03  0.00000000000E+00 0. -1.
         -2   -1    0    0    0  501 -0.00000000000E+00 -0.00000000000E+00 -0.78626490512E+02  0.78626490512E+02  0.00000000000E+00 0.  1.
         25    2    1    2    0    0 -0.63892913240E+02 -0.72766252221E+02  0.11594932428E+03  0.19613967242E+03  0.12509713613E+03 0.  0.
          5    1    3    3  502    0  0.15613973074E+02 -0.52892766373E+02  0.15200355844E+01  0.55328327265E+02  0.41800000000E+01 0. -1.
         -5    1    3    3    0  502 -0.79506886313E+02 -0.19873485848E+02  0.11442928870E+03  0.14081134515E+03  0.41800000000E+01 0. -1.
        -11    1    1    2    0    0  0.45956936763E+02  0.56575593130E+02  0.44080690484E+00  0.72890548670E+02  0.00000000000E+00 0.  1.
         11    1    1    2    0    0  0.17935976477E+02  0.16190659091E+02  0.60976718709E+02  0.65589609837E+02  0.00000000000E+00 0. -1.
</event>
<event>
 7    1  0.2564986E-009  0.1798315E+03  0.7561462E-02  0.1167966E+00
          2   -1    0    0  501    0  0.00000000000E+00  0.00000000000E+00  0.53736963859E+03  0.53736963859E+03  0.00000000000E+00 0. -1.
         -2   -1    0    0    0  501 -0.00000000000E+00 -0.00000000000E+00 -0.83133063345E+02  0.83133063345E+02  0.00000000000E+00 0.  1.
         25    2    1    2    0    0  0.11336709269E+03 -0.11000943130E+03  0.36295143920E+03  0.41513223165E+03  0.12508736888E+03 0.  0.
          5    1    3    3  502    0 -0.18457668569E+02  0.15073206892E+01  0.91075875520E+02  0.93033569460E+02  0.41800000000E+01 0.  1.
         -5    1    3    3    0  502  0.13182476126E+03 -0.11151675199E+03  0.27187556368E+03  0.32209866219E+03  0.41800000000E+01 0.  1.
        -11    1    1    2    0    0 -0.53637183043E+02  0.90362905252E+02  0.14426626527E+02  0.10606851372E+03  0.00000000000E+00 0.  1.
         11    1    1    2    0    0 -0.59729909650E+02  0.19646526050E+02  0.76858509522E+02  0.99301956570E+02  0.00000000000E+00 0. -1.
</event>
<event>
 7    1  0.2564986E-009  0.1393049E+03  0.7561462E-02  0.1214267E+00
         -2   -1    0    0    0  501 -0.00000000000E+00  0.00000000000E+00  0.15807299559E+02  0.15807299559E+02  0.00000000000E+00 0.  1.
          2   -1    0    0  501    0  0.00000000000E+00 -0.00000000000E+00 -0.14151064179E+04  0.14151064179E+04  0.00000000000E+00 0. -1.
         25    2    1    2    0    0 -0.37164279653E+01 -0.92256850391E+02 -0.97144841184E+03  0.98381196944E+03  0.12509530797E+03 0.  0.
          5    1    3    3  502    0  0.55975990456E+02 -0.59725109989E+02 -0.39940788091E+03  0.40773095051E+03  0.41800000000E+01 0.  1.
         -5    1    3    3    0  502 -0.59692418421E+02 -0.32531740402E+02 -0.57204053093E+03  0.57608101893E+03  0.41800000000E+01 0.  1.
        -11    1    1    2    0    0 -0.41945676600E+02  0.31115323467E+02 -0.20497824154E+03  0.21152702580E+03  0.00000000000E+00 0. -1.
         11    1    1    2    0    0  0.45662104565E+02  0.61141526924E+02 -0.22287246497E+03  0.23557472222E+03  0.00000000000E+00 0.  1.
</event>
<event>
 7    1  0.2564986E-009  0.1102141E+03  0.7561462E-02  0.1260174E+00
         -2   -1    0    0    0  501 -0.00000000000E+00  0.00000000000E+00  0.17100690989E+03  0.17100690989E+03  0.00000000000E+00 0.  1.
          2   -1    0    0  501    0  0.00000000000E+00 -0.00000000000E+00 -0.13844546503E+03  0.13844546503E+03  0.00000000000E+00 0. -1.
         25    2    1    2    0    0 -0.77241527297E+02 -0.58575207903E+02 -0.30495168788E+02  0.16117698330E+03  0.12510298201E+03 0.  0.
          5    1    3    3  502    0 -0.90549331444E+02 -0.44468830927E+02  0.23489694964E+02  0.10366241613E+03  0.41800000000E+01 0.  1.
         -5    1    3    3    0  502  0.13307804146E+02 -0.14106376976E+02 -0.53984863752E+02  0.57514567172E+02  0.41800000000E+01 0.  1.
        -11    1    1    2    0    0  0.17350176916E+02  0.26526455579E+02 -0.22618615113E+02  0.38939481690E+02  0.00000000000E+00 0. -1.
         11    1    1    2    0    0  0.59891350381E+02  0.32048752323E+02  0.85675228765E+02  0.10933590993E+03  0.00000000000E+00 0.  1.
</event>
<event>
 7    1  0.2564986E-009  0.8388419E+02  0.7561462E-02  0.1318377E+00
         -1   -1    0    0    0  501 -0.00000000000E+00  0.00000000000E+00  0.56250931970E+02  0.56250931970E+02  0.00000000000E+00 0.  1.
          1   -1    0    0  501    0  0.00000000000E+00 -0.00000000000E+00 -0.31304715734E+03  0.31304715734E+03  0.00000000000E+00 0. -1.
         25    2    1    2    0    0 -0.67894515239E+02 -0.20847540750E+02 -0.10495890827E+03  0.17806629588E+03  0.12508776178E+03 0.  0.
          5    1    3    3  502    0 -0.44629479467E+02  0.20047868630E+02  0.13173689287E+02  0.50840200271E+02  0.41800000000E+01 0.  1.
         -5    1    3    3    0  502 -0.23265035772E+02 -0.40895409380E+02 -0.11813259756E+03  0.12722609561E+03  0.41800000000E+01 0.  1.
        -11    1    1    2    0    0  0.34362630506E+02  0.65733253604E+01  0.99045821842E-01  0.34985837015E+02  0.00000000000E+00 0.  1.
         11    1    1    2    0    0  0.33531884733E+02  0.14274215390E+02 -0.15193636292E+03  0.15624595642E+03  0.00000000000E+00 0. -1.
</event>
<event>
 7    1  0.2564986E-009  0.1544415E+03  0.7561462E-02  0.1195119E+00
         -3   -1    0    0    0  501 -0.00000000000E+00  0.00000000000E+00  0.96572443031E+02  0.96572443031E+02  0.00000000000E+00 0.  1.
          3   -1    0    0  501    0  0.00000000000E+00 -0.00000000000E+00 -0.27157118213E+03  0.27157118213E+03  0.00000000000E+00 0. -1.
         25    2    1    2    0    0  0.11631453200E+03 -0.26943695686E+02 -0.10769100942E+03  0.20371574405E+03  0.12509083809E+03 0.  0.
          5    1    3    3  502    0  0.90296777965E+02  0.34040764226E+02 -0.96146217731E+02  0.13628591022E+03  0.41800000000E+01 0. -1.
         -5    1    3    3    0  502  0.26017754033E+02 -0.60984459912E+02 -0.11544791687E+02  0.67429833833E+02  0.41800000000E+01 0. -1.
        -11    1    1    2    0    0 -0.12513480486E+03  0.85109929468E+01 -0.42814997072E+02  0.13253029979E+03  0.00000000000E+00 0.  1.
         11    1    1    2    0    0  0.88202728589E+01  0.18432702739E+02 -0.24492732604E+02  0.31897581319E+02  0.00000000000E+00 0. -1.
</event>
<event>
 7    1  0.2564986E-009  0.1078338E+03  0.7561462E-02  0.1264635E+00
          2   -1    0    0  501    0  0.00000000000E+00  0.00000000000E+00  0.18302866560E+03  0.18302866560E+03  0.00000000000E+00 0. -1.
         -2   -1    0    0    0  501 -0.00000000000E+00 -0.00000000000E+00 -0.84493847865E+02  0.84493847865E+02  0.00000000000E+00 0.  1.
         25    2    1    2    0    0  0.57556194428E+02  0.83628523181E+01  0.72717742440E+02  0.15594050286E+03  0.12508763948E+03 0.  0.
          5    1    3    3  502    0 -0.24937639380E+02 -0.26473475491E+02  0.52566760294E+02  0.64058312889E+02  0.41800000000E+01 0.  1.
         -5    1    3    3    0  502  0.82493833808E+02  0.34836327809E+02  0.20150982145E+02  0.91882189967E+02  0.41800000000E+01 0.  1.
        -11    1    1    2    0    0 -0.72800432759E+02 -0.18161078508E+01  0.45477548877E+02  0.85856908338E+02  0.00000000000E+00 0. -1.
         11    1    1    2    0    0  0.15244238330E+02 -0.65467444674E+01 -0.19660473582E+02  0.25725102271E+02  0.00000000000E+00 0.  1.
</event>
<event>
 7    1  0.2564986E-009  0.9010620E+02  0.7561462E-02  0.1302595E+00
          2   -1    0    0  501    0  0.00000000000E+00  0.00000000000E+00  0.16740990812E+04  0.16740990812E+04  0.00000000000E+00 0. -1.
         -2   -1    0    0    0  501 -0.00000000000E+00 -0.00000000000E+00 -0.14256192879E+02  0.14256192879E+02  0.00000000000E+00 0.  1.
         25    2    1    2    0    0  0.34217773363E+02  0.52156828621E+02  0.13758821640E+04  0.13829642870E+04  0.12508916426E+03 0.  0.
          5    1    3    3  502    0  0.28854921459E+02  0.20515242668E+02  0.12997478814E+04  0.13002367128E+04  0.41800000000E+01 0.  1.
         -5    1    3    3    0  502  0.53628519041E+01  0.31641585953E+02  0.76134282605E+02  0.82727574182E+02  0.41800000000E+01 0.  1.
        -11    1    1    2    0    0 -0.12617641207E+02 -0.77716266673E+02  0.20709535491E+03  0.22155701072E+03  0.00000000000E+00 0.  1.
         11    1    1    2    0    0 -0.21600132156E+02  0.25559438052E+02  0.76865369388E+02  0.83833976369E+02  0.00000000000E+00 0. -1.
</event>
<event>
 7    1  0.2564986E-009  0.1125368E+03  0.7561462E-02  0.1255943E+00
          2   -1    0    0  501    0  0.00000000000E+00  0.00000000000E+00  0.59020548097E+03  0.59020548097E+03  0.00000000000E+00 0.  1.
         -2   -1    0    0    0  501 -0.00000000000E+00 -0.00000000000E+00 -0.26739922146E+02  0.26739922146E+02  0.00000000000E+00 0. -1.
         25    2    1    2    0    0  0.74912851189E+02  0.37558019029E+01  0.32874935595E+03  0.35965094462E+03  0.12508645653E+03 0.  0.
          5    1    3    3  502    0  0.63991195544E+02 -0.42343920494E+02  0.28447909978E+03  0.29467560354E+03  0.41800000000E+01 0.  1.
         -5    1    3    3    0  502  0.10921655645E+02  0.46099722397E+02  0.44270256173E+02  0.64975341082E+02  0.41800000000E+01 0.  1.
        -11    1    1    2    0    0 -0.76772223842E+01 -0.28123333638E+02  0.37410197987E+02  0.47427677066E+02  0.00000000000E+00 0.  1.
         11    1    1    2    0    0 -0.67235628805E+02  0.24367531735E+02  0.19730600489E+03  0.20986678143E+03  0.00000000000E+00 0. -1.
</event>
<event>
 7    1  0.2564986E-009  0.1148516E+03  0.7561462E-02  0.1251840E+00
          1   -1    0    0  501    0  0.00000000000E+00  0.00000000000E+00  0.51767029041E+02  0.51767029041E+02  0.00000000000E+00 0. -1.
         -1   -1    0    0    0  501 -0.00000000000E+00 -0.00000000000E+00 -0.29845495899E+03  0.29845495899E+03  0.00000000000E+00 0.  1.
         25    2    1    2    0    0 -0.36399172730E+02 -0.25603416553E+02 -0.19486540794E+03  0.23579733566E+03  0.12508965416E+03 0.  0.
          5    1    3    3  502    0  0.12512139947E+02  0.42146251054E+02 -0.99949039466E+02  0.10927096144E+03  0.41800000000E+01 0. -1.
         -5    1    3    3    0  502 -0.48911312677E+02 -0.67749667607E+02 -0.94916368478E+02  0.12652637422E+03  0.41800000000E+01 0. -1.
        -11    1    1    2    0    0 -0.14281108988E+02  0.45303583912E+02 -0.21166955065E+02  0.52003891930E+02  0.00000000000E+00 0.  1.
         11    1    1    2    0    0  0.50680281718E+02 -0.19700167359E+02 -0.30655566936E+02  0.62420760434E+02  0.00000000000E+00 0. -1.
</event>
<event>
 7    1  0.2564986E-009  0.8456247E+02  0.7561462E-02  0.1316581E+00
         -2   -1    0    0    0  501 -0.00000000000E+00  0.00000000000E+00  0.31782006806E+02  0.31782006806E+02  0.00000000000E+00 0. -1.
          2   -1    0    0  501    0  0.00000000000E+00 -0.00000000000E+00 -0.60286625046E+03  0.60286625046E+03  0.00000000000E+00 0.  1.
         25    2    1    2    0    0  0.10486392018E+02 -0.58789085621E+02 -0.17275482024E+03  0.22148928007E+03  0.12508857767E+03 0.  0.
          5    1    3    3  502    0  0.22924188621E+02 -0.26706489364E+02  0.89109228538E+01  0.36546298639E+02  0.41800000000E+01 0. -1.
         -5    1    3    3    0  502 -0.12437796602E+02 -0.32082596256E+02 -0.18166574309E+03  0.18494298143E+03  0.41800000000E+01 0. -1.
        -11    1    1    2    0    0  0.22201240827E+02 -0.88468002760E+01 -0.36600470390E+02  0.43712188256E+02  0.00000000000E+00 0. -1.
         11    1    1    2    0    0 -0.32687632846E+02  0.67635885897E+02 -0.36172895303E+03  0.36944678894E+03  0.00000000000E+00 0.  1.
</event>
<event>
 7    1  0.4384841E-009  0.1363726E+03  0.7561462E-02  0.1218295E+00
          2   -1    0    0  501    0  0.00000000000E+00  0.00000000000E+00  0.10228067021E+03  0.10228067021E+03  0.00000000000E+00 0. -1.
         -2   -1    0    0    0  501 -0.00000000000E+00 -0.00000000000E+00 -0.19483946599E+03  0.19483946599E+03  0.00000000000E+00 0.  1.
         25    2    1    2    0    0  0.48349013388E+02  0.74244321053E+02 -0.32777092550E+02  0.15675403210E+03  0.12509053713E+03 0.  0.
          5    1    3    3  502    0 -0.30204224531E+02  0.58641421478E+02  0.83601171966E+01  0.66621884182E+02  0.41800000000E+01 0.  1.
         -5    1    3    3    0  502  0.78553237919E+02  0.15602899575E+02 -0.41137209746E+02  0.90132147919E+02  0.41800000000E+01 0.  1.
        -11    1    1    2    0    0 -0.70127542905E+02 -0.28326595805E+02 -0.42081393747E+02  0.86551210295E+02  0.00000000000E+00 0.  1.
         11    1    1    2    0    0  0.21778529517E+02 -0.45917725248E+02 -0.17700309475E+02  0.53814893806E+02  0.00000000000E+00 0. -1.
</event>
<event>
 7    1  0.2564986E-009  0.8066672E+02  0.7561462E-02  0.1327170E+00
          1   -1    0    0  501    0  0.00000000000E+00  0.00000000000E+00  0.18372602983E+03  0.18372602983E+03  0.00000000000E+00 0. -1.
         -1   -1    0    0    0  501 -0.00000000000E+00 -0.00000000000E+00 -0.64096114246E+02  0.64096114246E+02  0.00000000000E+00 0.  1.
         25    2    1    2    0    0  0.16982377646E+02 -0.42374697130E+00  0.53152455165E+02  0.13697388317E+03  0.12509228780E+03 0.  0.
          5    1    3    3  502    0  0.87326610354E+01 -0.53865189427E+02  0.61248140884E+02  0.82137233716E+02  0.41800000000E+01 0.  1.
         -5    1    3    3    0  502  0.82497166108E+01  0.53441442456E+02 -0.80956857187E+01  0.54836649453E+02  0.41800000000E+01 0.  1.
        -11    1    1    2    0    0 -0.45519178483E+01 -0.24286113476E+02 -0.12123056212E+02  0.27522786120E+02  0.00000000000E+00 0.  1.
         11    1    1    2    0    0 -0.12430459798E+02  0.24709860448E+02  0.78600516631E+02  0.83325474788E+02  0.00000000000E+00 0. -1.
</event>
<event>
 7    1  0.2564986E-009  0.3153802E+03  0.7561462E-02  0.1077795E+00
         -2   -1    0    0    0  501 -0.00000000000E+00  0.00000000000E+00  0.15378310147E+03  0.15378310147E+03  0.00000000000E+00 0.  1.
          2   -1    0    0  501    0  0.00000000000E+00 -0.00000000000E+00 -0.73983509422E+03  0.73983509422E+03  0.00000000000E+00 0. -1.
         25    2    1    2    0    0 -0.29875512022E+02  0.30652710878E+03 -0.35727976635E+03  0.48799949331E+03  0.12507301625E+03 0.  0.
          5    1    3    3  502    0 -0.24070776103E+02  0.18903182233E+03 -0.30395030690E+03  0.35876969434E+03  0.41800000000E+01 0.  1.
         -5    1    3    3    0  502 -0.58047359197E+01  0.11749528644E+03 -0.53329459454E+02  0.12922979897E+03  0.41800000000E+01 0.  1.
        -11    1    1    2    0    0  0.52053140007E+02 -0.84045739943E+02 -0.12433089822E+03  0.15884391093E+03  0.00000000000E+00 0. -1.
         11    1    1    2    0    0 -0.22177627984E+02 -0.22248136883E+03 -0.10444132817E+03  0.24677479144E+03  0.00000000000E+00 0.  1.
</event>
<event>
 7    1  0.2564986E-009  0.1535228E+03  0.7561462E-02  0.1196210E+00
         -1   -1    0    0    0  501 -0.00000000000E+00  0.00000000000E+00  0.54299198939E+02  0.54299198939E+02  0.00000000000E+00 0.  1.
          1   -1    0    0  501    0  0.00000000000E+00 -0.00000000000E+00 -0.49495396043E+03  0.49495396043E+03  0.00000000000E+00 0. -1.
         25    2    1    2    0    0 -0.11463910614E+03  0.17643094934E+02 -0.28257220271E+03  0.33007261589E+03  0.12508988194E+03 0.  0.
          5    1    3    3  502    0 -0.12327408138E+03 -0.25134576286E+02 -0.22348010104E+03  0.25649380894E+03  0.41800000000E+01 0. -1.
         -5    1    3    3    0  502  0.86349752413E+01  0.42777671221E+02 -0.59092101666E+02  0.73578806947E+02  0.41800000000E+01 0. -1.
        -11    1    1    2    0    0  0.23939466492E+02  0.27125745077E+02 -0.90686261925E+02  0.97636582304E+02  0.00000000000E+00 0. -1.
         11    1    1    2    0    0  0.90699639647E+02 -0.44768840012E+02 -0.67396296860E+02  0.12154396118E+03  0.00000000000E+00 0.  1.
</event>
<event>
 7    1  0.2564986E-009  0.7240415E+02  0.7561462E-02  0.1352103E+00
          2   -1    0    0  501    0  0.00000000000E+00  0.00000000000E+00  0.28022298318E+03  0.28022298318E+03  0.00000000000E+00 0. -1.
         -2   -1    0    0    0  501 -0.00000000000E+00 -0.00000000000E+00 -0.61077769857E+02  0.61077769857E+02  0.00000000000E+00 0.  1.
         25    2    1    2    0    0 -0.16758119793E+02 -0.27371042423E+02  0.37510100264E+02  0.13447768722E+03  0.12508889717E+03 0.  0.
          5    1    3    3  502    0 -0.18054035374E+02 -0.34097727527E+02 -0.40478906075E+02  0.56076888758E+02  0.41800000000E+01 0. -1.
         -5    1    3    3    0  502  0.12959155814E+01  0.67266851040E+01  0.77989006339E+02  0.78400798461E+02  0.41800000000E+01 0. -1.
        -11    1    1    2    0    0  0.48642511595E+02 -0.91485029403E+01  0.10597280179E+03  0.11696163371E+03  0.00000000000E+00 0.  1.
         11    1    1    2    0    0 -0.31884391802E+02  0.36519545363E+02  0.75662311264E+02  0.89861432105E+02  0.00000000000E+00 0. -1.
</event>
<event>
 7    1  0.2564986E-009  0.1006045E+03  0.7561462E-02  0.1279030E+00
          1   -1    0    0  501    0  0.00000000000E+00  0.00000000000E+00  0.65135357416E+03  0.65135357416E+03  0.00000000000E+00 0. -1.
         -1   -1    0    0    0  501 -0.00000000000E+00 -0.00000000000E+00 -0.19667010458E+02  0.19667010458E+02  0.00000000000E+00 0.  1.
         25    2    1    2    0    0 -0.28975569476E+02 -0.12169706758E+02  0.36604367184E+03  0.38809609714E+03  0.12507168156E+03 0.  0.
          5    1    3    3  502    0 -0.48617752490E+02  0.30968379409E+02  0.30636982743E+03  0.31177342725E+03  0.41800000000E+01 0.  1.
         -5    1    3    3    0  502  0.19642183015E+02 -0.43138086167E+02  0.59673844411E+02  0.76322669886E+02  0.41800000000E+01 0.  1.
        -11    1    1    2    0    0 -0.24969729465E+02  0.29984854641E+02  0.13353219350E+03  0.13911658995E+03  0.00000000000E+00 0.  1.
         11    1    1    2    0    0  0.53945298941E+02 -0.17815147883E+02  0.13211069836E+03  0.14380789753E+03  0.00000000000E+00 0. -1.
</event>
<event>
 7    1  0.2564986E-009  0.8690166E+02  0.7561462E-02  0.1310533E+00
         -1   -1    0    0    0  501 -0.00000000000E+00  0.00000000000E+00  0.33669515896E+02  0.33669515896E+02  0.00000000000E+00 0.  1.
          1   -1    0    0  501    0  0.00000000000E+00 -0.00000000000E+00 -0.47128459212E+03  0.47128459212E+03  0.00000000000E+00 0. -1.
         25    2    1    2    0    0  0.89281066235E-01 -0.54117801442E+02 -0.17547399357E+03  0.22218604378E+03  0.12508705459E+03 0.  0.
          5    1    3    3  502    0  0.30002406148E+02 -0.29888191600E+02 -0.65947285612E-01  0.42554965878E+02  0.41800000000E+01 0.  1.
         -5    1    3    3    0  502 -0.29913125082E+02 -0.24229609842E+02 -0.17540804629E+03  0.17963107790E+03  0.41800000000E+01 0.  1.
        -11    1    1    2    0    0 -0.27548205860E+02  0.58555320863E+02 -0.23558629193E+03  0.24431236194E+03  0.00000000000E+00 0. -1.
         11    1    1    2    0    0  0.27458924794E+02 -0.44375194210E+01 -0.26554790717E+02  0.38455702301E+02  0.00000000000E+00 0.  1.
</event>
<event>
 7    1  0.3228867E-009  0.1225837E+03  0.7561462E-02  0.1238895E+00
          1   -1    0    0  501    0  0.00000000000E+00  0.00000000000E+00  0.88740528132E+03  0.88740528132E+03  0.00000000000E+00 0. -1.
         -1   -1    0    0    0  501 -0.00000000000E+00 -0.00000000000E+00 -0.28068711982E+02  0.28068711982E+02  0.00000000000E+00 0.  1.
         25    2    1    2    0    0 -0.41899148581E+02  0.10071982789E+03  0.36385224184E+03  0.39991953774E+03  0.12508861017E+03 0.  0.
          5    1    3    3  502    0 -0.35986620818E+02  0.75683272087E+02  0.36431506272E+03  0.37385282115E+03  0.41800000000E+01 0.  1.
         -5    1    3    3    0  502 -0.59125277634E+01  0.25036555800E+02 -0.46282088292E+00  0.26066716595E+02  0.41800000000E+01 0.  1.
        -11    1    1    2    0    0 -0.24143269102E+02 -0.27364808782E+02  0.72008355571E+02  0.80727526128E+02  0.00000000000E+00 0.  1.
         11    1    1    2    0    0  0.66042417683E+02 -0.73355019105E+02  0.42347597193E+03  0.43482692944E+03  0.00000000000E+00 0. -1.
</event>
<event>
 7    1  0.2564986E-009  0.1179588E+03  0.7561462E-02  0.1246503E+00
         -4   -1    0    0    0  501 -0.00000000000E+00  0.00000000000E+00  0.18727331592E+02  0.18727331592E+02  0.00000000000E+00 0.  1.
          4   -1    0    0  501    0  0.00000000000E+00 -0.00000000000E+00 -0.86476930600E+03  0.86476930600E+03  0.00000000000E+00 0. -1.
         25    2    1    2    0    0  0.37805354209E+02 -0.42728949252E+02 -0.58546358818E+03  0.60138968538E+03  0.12508769999E+03 0.  0.
          5    1    3    3  502    0  0.44870238442E+02 -0.81208118751E+02 -0.32642478341E+03  0.33937988814E+03  0.41800000000E+01 0. -1.
         -5    1    3    3    0  502 -0.70648842337E+01  0.38479169499E+02 -0.25903880478E+03  0.26200979725E+03  0.41800000000E+01 0. -1.
        -11    1    1    2    0    0  0.25648411953E+02  0.29114750206E+02 -0.13872515805E+03  0.14404922489E+03  0.00000000000E+00 0.  1.
         11    1    1    2    0    0 -0.63453766161E+02  0.13614199045E+02 -0.12185322818E+03  0.13805772733E+03  0.00000000000E+00 0. -1.
</event>
<event>
 7    1  0.2564986E-009  0.1934166E+03  0.7561462E-02  0.1155415E+00
         -2   -1    0    0    0  501 -0.00000000000E+00  0.00000000000E+00  0.22301212429E+03  0.22301212429E+03  0.00000000000E+00 0.  1.
          2   -1    0    0  501    0  0.00000000000E+00 -0.00000000000E+00 -0.21888369083E+03  0.21888369083E+03  0.00000000000E+00 0. -1.
         25    2    1    2    0    0  0.48006047904E+01  0.18273040631E+03  0.66653008219E+02  0.23131001405E+03  0.12509297302E+03 0.  0.
          5    1    3    3  502    0 -0.31084241910E+02  0.51933235893E+02 -0.27029043109E+02  0.66417863988E+02  0.41800000000E+01 0.  1.
         -5    1    3    3    0  502  0.35884846701E+02  0.13079717042E+03  0.93682051328E+02  0.16489215007E+03  0.41800000000E+01 0.  1.
        -11    1    1    2    0    0 -0.28959547317E+02 -0.85044053514E+02 -0.63391175132E+02  0.10995266028E+03  0.00000000000E+00 0. -1.
         11    1    1    2    0    0  0.24158942527E+02 -0.97686352798E+02  0.86660037911E+00  0.10063314078E+03  0.00000000000E+00 0.  1.
</event>
<event>
 7    1  0.2564986E-009  0.1683231E+03  0.7561462E-02  0.1179608E+00
          1   -1    0    0  501    0  0.00000000000E+00  0.00000000000E+00  0.78432503257E+03  0.78432503257E+03  0.00000000000E+00 0. -1.
         -1   -1    0    0    0  501 -0.00000000000E+00 -0.00000000000E+00 -0.38009133666E+02  0.38009133666E+02  0.00000000000E+00 0.  1.
         25    2    1    2    0    0 -0.88366961805E+02  0.86706113394E+02  0.31527238438E+03  0.36106782546E+03  0.12508648286E+03 0.  0.
          5    1    3    3  502    0  0.30054198691E+02  0.41771538952E+01  0.41917605472E+02  0.51915908179E+02  0.41800000000E+01 0. -1.
         -5    1    3    3    0  502 -0.11842116050E+03  0.82528959499E+02  0.27335477891E+03  0.30915191728E+03  0.41800000000E+01 0. -1.
        -11    1    1    2    0    0  0.10363897156E+03 -0.37699202600E+02  0.32985604269E+03  0.34780350085E+03  0.00000000000E+00 0. -1.
         11    1    1    2    0    0 -0.15272009755E+02 -0.49006910794E+02  0.10118747183E+03  0.11346283992E+03  0.00000000000E+00 0.  1.
</event>
<event>
 7    1  0.2564986E-009  0.1513595E+03  0.7561462E-02  0.1198812E+00
         -2   -1    0    0    0  501 -0.00000000000E+00  0.00000000000E+00  0.55661778537E+02  0.55661778537E+02  0.00000000000E+00 0.  1.
          2   -1    0    0  501    0  0.00000000000E+00 -0.00000000000E+00 -0.75925850345E+03  0.75925850345E+03  0.00000000000E+00 0. -1.
         25    2    1    2    0    0 -0.84776607375E+02 -0.11416410355E+03 -0.16790788468E+03  0.25310191966E+03  0.12508800222E+03 0.  0.
          5    1    3    3  502    0 -0.91457897589E+02 -0.86378154497E+02 -0.18174554983E+03  0.22107611786E+03  0.41800000000E+01 0. -1.
         -5    1    3    3    0  502  0.66812902139E+01 -0.27785949058E+02  0.13837665153E+02  0.32025801799E+02  0.41800000000E+01 0. -1.
        -11    1    1    2    0    0  0.52338986611E+02  0.36522898084E+02 -0.10412765805E+03  0.12213050714E+03  0.00000000000E+00 0.  1.
         11    1    1    2    0    0  0.32437620764E+02  0.77641205470E+02 -0.43156118218E+03  0.43968785518E+03  0.00000000000E+00 0. -1.
</event>
<event>
 7    1  0.2564986E-009  0.1041604E+03  0.7561462E-02  0.1271783E+00
          2   -1    0    0  501    0  0.00000000000E+00  0.00000000000E+00  0.10761003620E+03  0.10761003620E+03  0.00000000000E+00 0. -1.
         -2   -1    0    0    0  501 -0.00000000000E+00 -0.00000000000E+00 -0.11016169843E+03  0.11016169843E+03  0.00000000000E+00 0.  1.
         25    2    1    2    0    0 -0.10808306661E+02  0.59166256278E+01 -0.38521060541E+01  0.12575672887E+03  0.12509232664E+03 0.  0.
          5    1    3    3  502    0  0.47301500589E+02 -0.30709125040E+02 -0.62774661522E+01  0.56897814545E+02  0.41800000000E+01 0.  1.
         -5    1    3    3    0  502 -0.58109807250E+02  0.36625750668E+02  0.24253600981E+01  0.68858914327E+02  0.41800000000E+01 0.  1.
        -11    1    1    2    0    0  0.42673521910E+02 -0.21158784459E+02  0.20449519314E+02  0.51835378577E+02  0.00000000000E+00 0.  1.
         11    1    1    2    0    0 -0.31865215249E+02  0.15242158831E+02 -0.19149075491E+02  0.40179627187E+02  0.00000000000E+00 0. -1.
</event>
<event>
 7    1  0.2564986E-009  0.1761074E+03  0.7561462E-02  0.1171624E+00
         -2   -1    0    0    0  501 -0.00000000000E+00  0.00000000000E+00  0.44435242275E+02  0.44435242275E+02  0.00000000000E+00 0.  1.
          2   -1    0    0  501    0  0.00000000000E+00 -0.00000000000E+00 -0.93835351599E+03  0.93835351599E+03  0.00000000000E+00 0. -1.
         25    2    1    2    0    0  0.10534873931E+03 -0.13812944505E+03 -0.59112745307E+03  0.62869569224E+03  0.12509399346E+03 0.  0.
          5    1    3    3  502    0  0.16341463468E+02 -0.35782504757E+02 -0.34816808986E+03  0.35040822233E+03  0.41800000000E+01 0. -1.
         -5    1    3    3    0  502  0.89007275840E+02 -0.10234694029E+03 -0.24295936321E+03  0.27828746991E+03  0.41800000000E+01 0. -1.
        -11    1    1    2    0    0 -0.33982695253E+02  0.72195409990E+02 -0.18449096863E+03  0.20100725934E+03  0.00000000000E+00 0. -1.
         11    1    1    2    0    0 -0.71366044054E+02  0.65934035058E+02 -0.11829985201E+03  0.15308580669E+03  0.00000000000E+00 0.  1.
</event>
<event>
 7    1  0.2564986E-009  0.9947372E+02  0.7561462E-02  0.1281407E+00
         -1   -1    0    0    0  501 -0.00000000000E+00  0.00000000000E+00  0.28386510386E+02  0.28386510386E+02  0.00000000000E+00 0.  1.
          1   -1    0    0  501    0  0.00000000000E+00 -0.00000000000E+00 -0.44776023548E+03  0.44776023548E+03  0.00000000000E+00 0. -1.
         25    2    1    2    0    0 -0.27249783255E+02  0.48688099572E+01 -0.26328724297E+03  0.29280308813E+03  0.12508884886E+03 0.  0.
          5    1    3    3  502    0  0.21020094861E+02 -0.35066142428E+02 -0.29129214465E+02  0.50373229677E+02  0.41800000000E+01 0.  1.
         -5    1    3    3    0  502 -0.48269878116E+02  0.39934952385E+02 -0.23415802851E+03  0.24242985845E+03  0.41800000000E+01 0.  1.
        -11    1    1    2    0    0  0.13261705434E+02 -0.47959345848E+02 -0.95571740819E+02  0.10774938203E+03  0.00000000000E+00 0.  1.
         11    1    1    2    0    0  0.13988077821E+02  0.43090535890E+02 -0.60514741306E+02  0.75594275707E+02  0.00000000000E+00 0. -1.
</event>
<event>
 7    1  0.2564986E-009  0.1704554E+03  0.7561462E-02  0.1177374E+00
         -2   -1    0    0    0  501 -0.00000000000E+00  0.00000000000E+00  0.32323676939E+03  0.32323676939E+03  0.00000000000E+00 0.  1.
          2   -1    0    0  501    0  0.00000000000E+00 -0.00000000000E+00 -0.11416270481E+03  0.11416270481E+03  0.00000000000E+00 0. -1.
         25    2    1    2    0    0 -0.13343808968E+03 -0.15979031676E+02  0.20433870453E+03  0.27470216884E+03  0.12508366067E+03 0.  0.
          5    1    3    3  502    0 -0.54309331074E+02  0.53921870948E+02  0.10214926092E+03  0.12770675595E+03  0.41800000000E+01 0.  1.
         -5    1    3    3    0  502 -0.79128758606E+02 -0.69900902624E+02  0.10218944361E+03  0.14699541290E+03  0.41800000000E+01 0.  1.
        -11    1    1    2    0    0 -0.10794651266E+02  0.92424292841E+01  0.11303396094E+02  0.18158021872E+02  0.00000000000E+00 0. -1.
         11    1    1    2    0    0  0.14423274095E+03  0.67366023917E+01 -0.65680360535E+01  0.14453928348E+03  0.00000000000E+00 0.  1.
</event>
<event>
 7    1  0.2754407E-009  0.1737818E+03  0.7561462E-02  0.1173960E+00
         -1   -1    0    0    0  501 -0.00000000000E+00  0.00000000000E+00  0.25274347531E+03  0.25274347531E+03  0.00000000000E+00 0.  1.
          1   -1    0    0  501    0  0.00000000000E+00 -0.00000000000E+00 -0.23122772055E+03  0.23122772055E+03  0.00000000000E+00 0. -1.
         25    2    1    2    0    0 -0.11969121562E+03  0.11157432737E+03  0.15199281538E+03  0.25597538861E+03  0.12508703380E+03 0.  0.
          5    1    3    3  502    0 -0.28529138759E+02  0.63835521122E+02 -0.27424961735E+01  0.70099067044E+02  0.41800000000E+01 0.  1.
         -5    1    3    3    0  502 -0.91162076860E+02  0.47738806246E+02  0.15473531155E+03  0.18587632157E+03  0.41800000000E+01 0.  1.
        -11    1    1    2    0    0  0.77593779356E+02 -0.10701331016E+03 -0.58639073876E+02  0.14460699890E+03  0.00000000000E+00 0.  1.
         11    1    1    2    0    0  0.42097436263E+02 -0.45610172114E+01 -0.71837986741E+02  0.83388808344E+02  0.00000000000E+00 0. -1.
</event>
<event>
 7    1  0.2564986E-009  0.1129071E+03  0.7561462E-02  0.1255279E+00
         -3   -1    0    0    0  501 -0.00000000000E+00  0.00000000000E+00  0.10318965374E+03  0.10318965374E+03  0.00000000000E+00 0.  1.
          3   -1    0    0  501    0  0.00000000000E+00 -0.00000000000E+00 -0.13521467486E+03  0.13521467486E+03  0.00000000000E+00 0. -1.
         25    2    1    2    0    0 -0.77830375200E+01  0.43916581506E+02 -0.39625296921E+02  0.13858775065E+03  0.12508860328E+03 0.  0.
          5    1    3    3  502    0  0.49834341371E+02  0.51844133791E+02 -0.86203285452E+01  0.72546938272E+02  0.41800000000E+01 0.  1.
         -5    1    3    3    0  502 -0.57617378891E+02 -0.79275522855E+01 -0.31004968376E+02  0.66040812378E+02  0.41800000000E+01 0.  1.
        -11    1    1    2    0    0 -0.27631389619E+02 -0.52234696750E+02  0.18362118167E+02  0.61879920980E+02  0.00000000000E+00 0.  1.
         11    1    1    2    0    0  0.35414427139E+02  0.83181152444E+01 -0.10761842370E+02  0.37936656970E+02  0.00000000000E+00 0. -1.
</event>
<event>
 7    1  0.2564986E-009  0.1779115E+03  0.7561462E-02  0.1169840E+00
          1   -1    0    0  501    0  0.00000000000E+00  0.00000000000E+00  0.89898016847E+03  0.89898016847E+03  0.00000000000E+00 0. -1.
         -1   -1    0    0    0  501 -0.00000000000E+00 -0.00000000000E+00 -0.45628093115E+02  0.45628093115E+02  0.00000000000E+00 0.  1.
         25    2    1    2    0    0 -0.56849652390E+00 -0.15057916950E+03  0.63004402615E+03  0.65975469118E+03  0.12508544350E+03 0.  0.
          5    1    3    3  502    0 -0.17445595671E+02 -0.16239404731E+03  0.45483831606E+03  0.48329239758E+03  0.41800000000E+01 0.  1.
         -5    1    3    3    0  502  0.16877099147E+02  0.11814877808E+02  0.17520571009E+03  0.17646229360E+03  0.41800000000E+01 0.  1.
        -11    1    1    2    0    0 -0.31202342877E+02  0.12970412450E+03  0.19951584188E+03  0.24000691089E+03  0.00000000000E+00 0. -1.
         11    1    1    2    0    0  0.31770839401E+02  0.20875045004E+02  0.23792207327E+02  0.44846659515E+02  0.00000000000E+00 0.  1.
</event>
<event>
 7    1  0.2564986E-009  0.1277119E+03  0.7561462E-02  0.1230891E+00
          2   -1    0    0  501    0  0.00000000000E+00  0.00000000000E+00  0.21824842213E+03  0.21824842213E+03  0.00000000000E+00 0. -1.
         -2   -1    0    0    0  501 -0.00000000000E+00 -0.00000000000E+00 -0.11245779641E+03  0.11245779641E+03  0.00000000000E+00 0.  1.
         25    2    1    2    0    0  0.30968533141E+02  0.10757820774E+03  0.54896105217E+02  0.17661651240E+03  0.12509072412E+03 0.  0.
          5    1    3    3  502    0  0.19527802998E+01  0.73048320671E+02  0.92352301132E+02  0.11784010535E+03  0.41800000000E+01 0. -1.
         -5    1    3    3    0  502  0.29015752842E+02  0.34529887071E+02 -0.37456195915E+02  0.58776407057E+02  0.41800000000E+01 0. -1.
        -11    1    1    2    0    0 -0.48019453192E+02 -0.28077752146E+02 -0.43397857517E+01  0.55794818673E+02  0.00000000000E+00 0.  1.
         11    1    1    2    0    0  0.17050920051E+02 -0.79500455597E+02  0.55234306247E+02  0.98294887462E+02  0.00000000000E+00 0. -1.
</event>
<event>
 7    1  0.2564986E-009  0.1213879E+03  0.7561462E-02  0.1240825E+00
          1   -1    0    0  501    0  0.00000000000E+00  0.00000000000E+00  0.31720069847E+03  0.31720069847E+03  0.00000000000E+00 0. -1.
         -1   -1    0    0    0  501 -0.00000000000E+00 -0.00000000000E+00 -0.70645213788E+02  0.70645213788E+02  0.00000000000E+00 0.  1.
         25    2    1    2    0    0 -0.80014206664E+02  0.99880983165E+01  0.22082646025E+03  0.26630019086E+03  0.12509768474E+03 0.  0.
          5    1    3    3  502    0 -0.91791056736E+02 -0.26539976476E+02  0.20167484203E+03  0.22320435201E+03  0.41800000000E+01 0. -1.
         -5    1    3    3    0  502  0.11776850072E+02  0.36528074792E+02  0.19151618226E+02  0.43095838852E+02  0.41800000000E+01 0. -1.
        -11    1    1    2    0    0  0.15874328961E+02  0.29290630118E+02 -0.14404589819E+02  0.36296384675E+02  0.00000000000E+00 0.  1.
         11    1    1    2    0    0  0.64139877703E+02 -0.39278728434E+02  0.40133614244E+02  0.85249336722E+02  0.00000000000E+00 0. -1.
</event>
<event>
 7    1  0.2564986E-009  0.1386622E+03  0.7561462E-02  0.1215141E+00
         -1   -1    0    0    0  501 -0.00000000000E+00  0.00000000000E+00  0.24576789467E+03  0.24576789467E+03  0.00000000000E+00 0.  1.
          1   -1    0    0  501    0  0.00000000000E+00 -0.00000000000E+00 -0.83797763682E+02  0.83797763682E+02  0.00000000000E+00 0. -1.
         25    2    1    2    0    0  0.66441614598E+01 -0.89069272132E+02  0.53499636505E+02  0.16274954719E+03  0.12509086252E+03 0.  0.
          5    1    3    3  502    0  0.24914998228E+02  0.24675342585E+02 -0.79861043578E+00  0.35323361208E+02  0.41800000000E+01 0.  1.
         -5    1    3    3    0  502 -0.18270836769E+02 -0.11374461472E+03  0.54298246941E+02  0.12742618598E+03  0.41800000000E+01 0.  1.
        -11    1    1    2    0    0  0.15050262059E+02 -0.14509346001E+02  0.18358971429E+02  0.27822353267E+02  0.00000000000E+00 0. -1.
         11    1    1    2    0    0 -0.21694423519E+02  0.10357861813E+03  0.90111523058E+02  0.13899375790E+03  0.00000000000E+00 0.  1.
</event>
<event>
 7    1  0.2564986E-009  0.1394893E+03  0.7561462E-02  0.1214018E+00
         -1   -1    0    0    0  501 -0.00000000000E+00  0.00000000000E+00  0.36180770374E+02  0.36180770374E+02  0.00000000000E+00 0.  1.
          1   -1    0    0  501    0  0.00000000000E+00 -0.00000000000E+00 -0.60979522108E+03  0.60979522108E+03  0.00000000000E+00 0. -1.
         25    2    1    2    0    0  0.26374019591E+02 -0.97987523435E+02 -0.30821714980E+03  0.34776480961E+03  0.12508160420E+03 0.  0.
          5    1    3    3  502    0  0.17409440644E+02  0.28565013972E+02 -0.75326031631E+02  0.82525947968E+02  0.41800000000E+01 0. -1.
         -5    1    3    3    0  502  0.89645789466E+01 -0.12655253741E+03 -0.23289111817E+03  0.26523886164E+03  0.41800000000E+01 0. -1.
        -11    1    1    2    0    0  0.19856432556E+02  0.34245113175E+02 -0.29075380971E+02  0.49116020491E+02  0.00000000000E+00 0.  1.
         11    1    1    2    0    0 -0.46230452147E+02  0.63742410260E+02 -0.23632191993E+03  0.24909516136E+03  0.00000000000E+00 0. -1.
</event>
<event>
 7    1  0.2637680E-009  0.1131241E+03  0.7561462E-02  0.1254892E+00
         -2   -1    0    0    0  501 -0.00000000000E+00  0.00000000000E+00  0.21005443061E+02  0.21005443061E+02  0.00000000000E+00 0.  1.
          2   -1    0    0  501    0  0.00000000000E+00 -0.00000000000E+00 -0.11144549860E+04  0.11144549860E+04  0.00000000000E+00 0. -1.
         25    2    1    2    0    0  0.54860455518E+02  0.38757166088E+02 -0.90009071232E+03  0.91122057323E+03  0.12509138731E+03 0.  0.
          5    1    3    3  502    0  0.54340667311E+02  0.70979013996E+02 -0.39171034992E+03  0.40180268689E+03  0.41800000000E+01 0. -1.
         -5    1    3    3    0  502  0.51978820612E+00 -0.32221847908E+02 -0.50838036240E+03  0.50941788635E+03  0.41800000000E+01 0. -1.
        -11    1    1    2    0    0 -0.13445247889E+02 -0.57321197026E+02 -0.63107891188E+02  0.86308170236E+02  0.00000000000E+00 0.  1.
         11    1    1    2    0    0 -0.41415207628E+02  0.18564030938E+02 -0.13025093947E+03  0.13793168562E+03  0.00000000000E+00 0. -1.
</event>
<event>
 7    1  0.2564986E-009  0.9778910E+02  0.7561462E-02  0.1285015E+00
         -1   -1    0    0    0  501 -0.00000000000E+00  0.00000000000E+00  0.77496292832E+02  0.77496292832E+02  0.00000000000E+00 0.  1.
          1   -1    0    0  501    0  0.00000000000E+00 -0.00000000000E+00 -0.19300583350E+03  0.19300583350E+03  0.00000000000E+00 0. -1.
         25    2    1    2    0    0 -0.11003526824E+02  0.33282289323E+02 -0.17264324990E+02  0.13104998521E+03  0.12508898161E+03 0.  0.
          5    1    3    3  502    0 -0.50677842667E+02  0.18153867093E+02  0.34419050259E+02  0.64030852317E+02  0.41800000000E+01 0.  1.
         -5    1    3    3    0  502  0.39674315843E+02  0.15128422230E+02 -0.51683375248E+02  0.67019132894E+02  0.41800000000E+01 0.  1.
        -11    1    1    2    0    0 -0.78001894470E+01 -0.63147282382E+02 -0.61061835928E+02  0.88187130776E+02  0.00000000000E+00 0. -1.
         11    1    1    2    0    0  0.18803716270E+02  0.29864993059E+02 -0.37183379753E+02  0.51265010347E+02  0.00000000000E+00 0.  1.
</event>
<event>
 7    1  0.2564986E-009  0.1948059E+03  0.7561462E-02  0.1154197E+00
         -1   -1    0    0    0  501 -0.00000000000E+00  0.00000000000E+00  0.71675418082E+02  0.71675418082E+02  0.00000000000E+00 0.  1.
          1   -1    0    0  501    0  0.00000000000E+00 -0.00000000000E+00 -0.80364221388E+03  0.80364221388E+03  0.00000000000E+00 0. -1.
         25    2    1    2    0    0  0.15500481258E+03 -0.61024451507E+02 -0.13422973469E+03  0.24782180753E+03  0.12509017150E+03 0.  0.
          5    1    3    3  502    0  0.14629265253E+03 -0.14483310855E+01 -0.80614988100E+02  0.16709244912E+03  0.41800000000E+01 0. -1.
         -5    1    3    3    0  502  0.87121600556E+01 -0.59576120421E+02 -0.53614746587E+02  0.80729358408E+02  0.41800000000E+01 0. -1.
        -11    1    1    2    0    0 -0.11987812576E+02 -0.16363944355E+02 -0.25398890175E+02  0.32505229539E+02  0.00000000000E+00 0.  1.
         11    1    1    2    0    0 -0.14301700001E+03  0.77388395862E+02 -0.57233817094E+03  0.59499059490E+03  0.00000000000E+00 0. -1.
</event>
<event>
 7    1  0.2564986E-009  0.8460930E+02  0.7561462E-02  0.1316457E+00
          2   -1    0    0  501    0  0.00000000000E+00  0.00000000000E+00  0.33715541520E+02  0.33715541520E+02  0.00000000000E+00 0. -1.
         -2   -1    0    0    0  501 -0.00000000000E+00 -0.00000000000E+00 -0.38920790898E+03  0.38920790898E+03  0.00000000000E+00 0.  1.
         25    2    1    2    0    0  0.33715837310E+02  0.60308226047E+01 -0.17136964552E+03  0.21491412911E+03  0.12508956384E+03 0.  0.
          5    1    3    3  502    0 -0.19012051830E+02  0.58750644572E+01  0.12310671139E+02  0.23769718573E+02  0.41800000000E+01 0.  1.
         -5    1    3    3    0  502  0.52727889140E+02  0.15575814743E+00 -0.18368031665E+03  0.19114441054E+03  0.41800000000E+01 0.  1.
        -11    1    1    2    0    0  0.10130706740E+02 -0.39533318427E+02 -0.91618705473E+02  0.10029706714E+03  0.00000000000E+00 0.  1.
         11    1    1    2    0    0 -0.43846544050E+02  0.33502495823E+02 -0.92504016472E+02  0.10771225425E+03  0.00000000000E+00 0. -1.
</event>
<event>
 7    1  0.2564986E-009  0.1309713E+03  0.7561462E-02  0.1226022E+00
          1   -1    0    0  501    0  0.00000000000E+00  0.00000000000E+00  0.84004808493E+02  0.84004808493E+02  0.00000000000E+00 0. -1.
         -1   -1    0    0    0  501 -0.00000000000E+00 -0.00000000000E+00 -0.21984483228E+03  0.21984483228E+03  0.00000000000E+00 0.  1.
         25    2    1    2    0    0  0.60302114427E+02  0.44598526121E+02 -0.11192754437E+03  0.18385006168E+03  0.12509075288E+03 0.  0.
          5    1    3    3  502    0  0.40868628741E+02  0.88542009422E+02 -0.73702491952E+02  0.12230887935E+03  0.41800000000E+01 0. -1.
         -5    1    3    3    0  502  0.19433485685E+02 -0.43943483301E+02 -0.38225052423E+02  0.61541182335E+02  0.41800000000E+01 0. -1.
        -11    1    1    2    0    0 -0.49775598346E+02 -0.71555039748E+02 -0.26070670139E+02  0.90980293172E+02  0.00000000000E+00 0.  1.
         11    1    1    2    0    0 -0.10526516080E+02  0.26956513628E+02  0.21581907292E+01  0.29019285914E+02  0.00000000000E+00 0. -1.
</event>
<event>
 7    1  0.2564986E-009  0.1055497E+03  0.7561462E-02  0.1269040E+00
          3   -1    0    0  501    0  0.00000000000E+00  0.00000000000E+00  0.26190524391E+03  0.26190524391E+03  0.00000000000E+00 0. -1.
         -3   -1    0    0    0  501 -0.00000000000E+00 -0.00000000000E+00 -0.47407911805E+02  0.47407911805E+02  0.00000000000E+00 0.  1.
         25    2    1    2    0    0  0.26224904290E+02 -0.68935119344E-01  0.12527264134E+03  0.17896412797E+03  0.12508866486E+03 0.  0.
          5    1    3    3  502    0  0.13445229473E+02 -0.56923821761E+02  0.26819514527E+02  0.64481427085E+02  0.41800000000E+01 0.  1.
         -5    1    3    3    0  502  0.12779674816E+02  0.56854886641E+02  0.98453126808E+02  0.11448270088E+03  0.41800000000E+01 0.  1.
        -11    1    1    2    0    0 -0.38421659942E+02 -0.38013683089E+02  0.60418255802E+02  0.81065588808E+02  0.00000000000E+00 0.  1.
         11    1    1    2    0    0  0.12196755652E+02  0.38082618208E+02  0.28806434968E+02  0.49283438938E+02  0.00000000000E+00 0. -1.
</event>
<event>
 7    1  0.2564986E-009  0.1257926E+03  0.7561462E-02  0.1233836E+00
          3   -1    0    0  501    0  0.00000000000E+00  0.00000000000E+00  0.34234638524E+03  0.34234638524E+03  0.00000000000E+00 0.  1.
         -3   -1    0    0    0  501 -0.00000000000E+00 -0.00000000000E+00 -0.62979589603E+02  0.62979589603E+02  0.00000000000E+00 0. -1.
         25    2    1    2    0    0 -0.72182674104E+02 -0.40632980629E+02  0.15518940685E+03  0.21584669317E+03  0.12507863686E+03 0.  0.
          5    1    3    3  502    0  0.53076589673E+01  0.14011672458E+02 -0.14597630359E+02  0.21332168687E+02  0.41800000000E+01 0.  1.
         -5    1    3    3    0  502 -0.77490333071E+02 -0.54644653087E+02  0.16978703721E+03  0.19451452448E+03  0.41800000000E+01 0.  1.
        -11    1    1    2    0    0 -0.19669395046E+02 -0.22329906955E+02  0.40143335230E+02  0.49969963072E+02  0.00000000000E+00 0.  1.
         11    1    1    2    0    0  0.91852069150E+02  0.62962887584E+02  0.84034053564E+02  0.13950931861E+03  0.00000000000E+00 0. -1.
</event>
<event>
 7    1  0.2564986E-009  0.8921447E+02  0.7561462E-02  0.1304765E+00
          1   -1    0    0  501    0  0.00000000000E+00  0.00000000000E+00  0.78641957986E+03  0.78641957986E+03  0.00000000000E+00 0. -1.
         -1   -1    0    0    0  501 -0.00000000000E+00 -0.00000000000E+00 -0.46235972326E+02  0.46235972326E+02  0.00000000000E+00 0.  1.
         25    2    1    2    0    0  0.80609636250E+02  0.27379797241E+02  0.67151770812E+03  0.68835363765E+03  0.12508849426E+03 0.  0.
          5    1    3    3  502    0  0.20797504507E+02  0.70793770445E+01  0.55745170449E+03  0.55790010666E+03  0.41800000000E+01 0. -1.
         -5    1    3    3    0  502  0.59812131744E+02  0.20300420196E+02  0.11406600362E+03  0.13045353098E+03  0.41800000000E+01 0. -1.
        -11    1    1    2    0    0 -0.10512277896E+02  0.89548333538E+01 -0.20807668018E+02  0.24973107041E+02  0.00000000000E+00 0.  1.
         11    1    1    2    0    0 -0.70097358355E+02 -0.36334630595E+02  0.89473567433E+02  0.11932880749E+03  0.00000000000E+00 0. -1.
</event>
<event>
 7    1  0.2564986E-009  0.7462179E+02  0.7561462E-02  0.1345046E+00
          1   -1    0    0  501    0  0.00000000000E+00  0.00000000000E+00  0.11716093164E+03  0.11716093164E+03  0.00000000000E+00 0. -1.
         -1   -1    0    0    0  501 -0.00000000000E+00 -0.00000000000E+00 -0.12741274562E+03  0.12741274562E+03  0.00000000000E+00 0.  1.
         25    2    1    2    0    0 -0.53015014895E+00  0.58399742473E+02  0.69717418897E+01  0.13822524807E+03  0.12508718176E+03 0.  0.
          5    1    3    3  502    0  0.33525699583E+02  0.28567937695E+02 -0.49062170776E+02  0.66065638557E+02  0.41800000000E+01 0.  1.
         -5    1    3    3    0  502 -0.34055849732E+02  0.29831804777E+02  0.56033912665E+02  0.72159609518E+02  0.41800000000E+01 0.  1.
        -11    1    1    2    0    0 -0.52464141507E+01 -0.18978565859E+02 -0.50649186456E+02  0.54341981121E+02  0.00000000000E+00 0.  1.
         11    1    1    2    0    0  0.57765642996E+01 -0.39421176613E+02  0.33425630581E+02  0.52006448066E+02  0.00000000000E+00 0. -1.
</event>
<event>
 7    1  0.2564986E-009  0.1021578E+03  0.7561462E-02  0.1275823E+00
          4   -1    0    0  501    0  0.00000000000E+00  0.00000000000E+00  0.14384128264E+03  0.14384128264E+03  0.00000000000E+00 0. -1.
         -4   -1    0    0    0  501 -0.00000000000E+00 -0.00000000000E+00 -0.94525135411E+02  0.94525135411E+02  0.00000000000E+00 0.  1.
         25    2    1    2    0    0 -0.83604004958E+01  0.42612318955E+02  0.19880669132E+02  0.13389745110E+03  0.12509028892E+03 0.  0.
          5    1    3    3  502    0 -0.65405657441E+02  0.15547649074E+02  0.21168973806E+02  0.70606141864E+02  0.41800000000E+01 0.  1.
         -5    1    3    3    0  502  0.57045256945E+02  0.27064669881E+02 -0.12883046739E+01  0.63291309234E+02  0.41800000000E+01 0.  1.
        -11    1    1    2    0    0  0.21733729208E+02  0.65750510162E+01 -0.22310905258E+02  0.31833359461E+02  0.00000000000E+00 0.  1.
         11    1    1    2    0    0 -0.13373328712E+02 -0.49187369971E+02  0.51746383358E+02  0.72635607495E+02  0.00000000000E+00 0. -1.
</event>
<event>
 7    1  0.2564986E-009  0.2416835E+03  0.7561462E-02  0.1118676E+00
         -2   -1    0    0    0  501 -0.00000000000E+00  0.00000000000E+00  0.24151036918E+03  0.24151036918E+03  0.00000000000E+00 0.  1.
          2   -1    0    0  501    0  0.00000000000E+00 -0.00000000000E+00 -0.31937562031E+03  0.31937562031E+03  0.00000000000E+00 0. -1.
         25    2    1    2    0    0 -0.10863183951E+03 -0.20583072026E+03 -0.14649297477E+03  0.30211254441E+03  0.12507851884E+03 0.  0.
          5    1    3    3  502    0 -0.71247888104E+02 -0.94993341628E+02 -0.14176209513E+03  0.18497016119E+03  0.41800000000E+01 0.  1.
         -5    1    3    3    0  502 -0.37383951406E+02 -0.11083737863E+03 -0.47308796330E+01  0.11714238322E+03  0.41800000000E+01 0.  1.
        -11    1    1    2    0    0  0.12127184292E+03  0.16508051537E+03  0.68875797943E+02  0.21610717707E+03  0.00000000000E+00 0.  1.
         11    1    1    2    0    0 -0.12640003405E+02  0.40750204886E+02 -0.24807430367E+00  0.42666268002E+02  0.00000000000E+00 0. -1.
</event>
<event>
 7    1  0.2564986E-009  0.1143121E+03  0.7561462E-02  0.1252787E+00
         -1   -1    0    0    0  501 -0.00000000000E+00  0.00000000000E+00  0.11343191944E+02  0.11343191944E+02  0.00000000000E+00 0.  1.
          1   -1    0    0  501    0  0.00000000000E+00 -0.00000000000E+00 -0.12353074348E+04  0.12353074348E+04  0.00000000000E+00 0. -1.
         25    2    1    2    0    0  0.45217010079E+01 -0.40260386012E+02 -0.85581988309E+03  0.86586216239E+03  0.12509303540E+03 0.  0.
          5    1    3    3  502    0  0.48329075890E+02 -0.64802436360E+02 -0.54769044494E+03  0.55364009177E+03  0.41800000000E+01 0. -1.
         -5    1    3    3    0  502 -0.43807374882E+02  0.24542050348E+02 -0.30812943815E+03  0.31222207062E+03  0.41800000000E+01 0. -1.
        -11    1    1    2    0    0 -0.46525278372E+02  0.22603802925E+02 -0.19980920507E+03  0.20639586203E+03  0.00000000000E+00 0.  1.
         11    1    1    2    0    0  0.42003577364E+02  0.17656583087E+02 -0.16833515474E+03  0.17439260236E+03  0.00000000000E+00 0. -1.
</event>
<event>
 7    1  0.2564986E-009  0.1473230E+03  0.7561462E-02  0.1203802E+00
          2   -1    0    0  501    0  0.00000000000E+00  0.00000000000E+00  0.15104541452E+04  0.15104541452E+04  0.00000000000E+00 0. -1.
         -2   -1    0    0    0  501 -0.00000000000E+00 -0.00000000000E+00 -0.22581289553E+02  0.22581289553E+02  0.00000000000E+00 0.  1.
         25    2    1    2    0    0 -0.95267085707E+02  0.42639013537E+02  0.12188841520E+04  0.12297234725E+04  0.12508932733E+03 0.  0.
          5    1    3    3  502    0 -0.57181621074E+02 -0.41252240020E+02  0.54464418944E+03  0.54920510794E+03  0.41800000000E+01 0. -1.
         -5    1    3    3    0  502 -0.38085464633E+02  0.83891253558E+02  0.67423996255E+03  0.68051836459E+03  0.41800000000E+01 0. -1.
        -11    1    1    2    0    0  0.40027291000E+02  0.22867165923E+02  0.49257916869E+02  0.67464314096E+02  0.00000000000E+00 0.  1.
         11    1    1    2    0    0  0.55239794707E+02 -0.65506179460E+02  0.21973078679E+03  0.23584764813E+03  0.00000000000E+00 0. -1.
</event>
<event>
 7    1  0.2564986E-009  0.1057800E+03  0.7561462E-02  0.1268590E+00
          2   -1    0    0  501    0  0.00000000000E+00  0.00000000000E+00  0.68917809026E+02  0.68917809026E+02  0.00000000000E+00 0. -1.
         -2   -1    0    0    0  501 -0.00000000000E+00 -0.00000000000E+00 -0.22306496429E+03  0.22306496429E+03  0.00000000000E+00 0.  1.
         25    2    1    2    0    0  0.43176815482E+02 -0.32582787315E+02 -0.10381746764E+03  0.17132500794E+03  0.12509323057E+03 0.  0.
          5    1    3    3  502    0  0.81159730254E+02 -0.75540709503E+01 -0.35179888013E+02  0.88876671424E+02  0.41800000000E+01 0.  1.
         -5    1    3    3    0  502 -0.37982914772E+02 -0.25028716365E+02 -0.68637579629E+02  0.82448336519E+02  0.41800000000E+01 0.  1.
        -11    1    1    2    0    0  0.14427641345E+02 -0.52415902630E+01 -0.49409383920E+02  0.51738943965E+02  0.00000000000E+00 0.  1.
         11    1    1    2    0    0 -0.57604456826E+02  0.37824377578E+02 -0.92030370259E+00  0.68918821409E+02  0.00000000000E+00 0. -1.
</event>
<event>
 7    1  0.2564986E-009  0.1280027E+03  0.7561462E-02  0.1230450E+00
          2   -1    0    0  501    0  0.00000000000E+00  0.00000000000E+00  0.83703934263E+02  0.83703934263E+02  0.00000000000E+00 0. -1.
         -2   -1    0    0    0  501 -0.00000000000E+00 -0.00000000000E+00 -0.24870299249E+03  0.24870299249E+03  0.00000000000E+00 0.  1.
         25    2    1    2    0    0  0.76619634613E+02 -0.65550583280E+01 -0.25764820912E+02  0.14908046377E+03  0.12509045320E+03 0.  0.
          5    1    3    3  502    0  0.74436538189E+02  0.46862994655E+02 -0.34823920917E+02  0.94694859172E+02  0.41800000000E+01 0.  1.
         -5    1    3    3    0  502  0.21830964245E+01 -0.53418052983E+02  0.90591000055E+01  0.54385604597E+02  0.41800000000E+01 0.  1.
        -11    1    1    2    0    0 -0.34133574036E+02 -0.39135053531E+02 -0.37761590870E+02  0.64207406398E+02  0.00000000000E+00 0.  1.
         11    1    1    2    0    0 -0.42486060577E+02  0.45690111859E+02 -0.10147264644E+03  0.11911905658E+03  0.00000000000E+00 0. -1.
</event>
<event>
 7    1  0.2564986E-009  0.1011080E+03  0.7561462E-02  0.1277983E+00
          2   -1    0    0  501    0  0.00000000000E+00  0.00000000000E+00  0.48161770892E+03  0.48161770892E+03  0.00000000000E+00 0. -1.
         -2   -1    0    0    0  501 -0.00000000000E+00 -0.00000000000E+00 -0.42317025722E+02  0.42317025722E+02  0.00000000000E+00 0.  1.
         25    2    1    2    0    0 -0.20967895971E+02  0.66036155050E+02  0.35156593682E+03  0.37953367365E+03  0.12508706992E+03 0.  0.
          5    1    3    3  502    0 -0.97594524656E+01  0.77062506288E+02  0.35455836038E+03  0.36299170804E+03  0.41800000000E+01 0. -1.
         -5    1    3    3    0  502 -0.11208443506E+02 -0.11026351238E+02 -0.29924235582E+01  0.16541965609E+02  0.41800000000E+01 0. -1.
        -11    1    1    2    0    0  0.14635744930E+02  0.18384436277E+02  0.14844999629E+01  0.23545620973E+02  0.00000000000E+00 0.  1.
         11    1    1    2    0    0  0.63321510413E+01 -0.84420591326E+02  0.86250246413E+02  0.12085544002E+03  0.00000000000E+00 0. -1.
</event>
<event>
 7    1  0.2564986E-009  0.1168349E+03  0.7561462E-02  0.1248412E+00
          2   -1    0    0  501    0  0.00000000000E+00  0.00000000000E+00  0.13590470827E+03  0.13590470827E+03  0.00000000000E+00 0. -1.
         -2   -1    0    0    0  501 -0.00000000000E+00 -0.00000000000E+00 -0.15091824842E+03  0.15091824842E+03  0.00000000000E+00 0.  1.
         25    2    1    2    0    0  0.12995449415E+01 -0.92681016027E+02 -0.16716033660E+02  0.15658435036E+03  0.12509106062E+03 0.  0.
          5    1    3    3  502    0  0.16585057661E+02  0.93504257780E+01 -0.45409894819E+02  0.49416854891E+02  0.41800000000E+01 0.  1.
         -5    1    3    3    0  502 -0.15285512720E+02 -0.10203144180E+03  0.28693861159E+02  0.10716749546E+03  0.41800000000E+01 0.  1.
        -11    1    1    2    0    0  0.26392972811E+02  0.19910319145E+02  0.32637495059E+02  0.46456602394E+02  0.00000000000E+00 0. -1.
         11    1    1    2    0    0 -0.27692517753E+02  0.72770696881E+02 -0.30935001540E+02  0.83782003941E+02  0.00000000000E+00 0.  1.
</event>
<event>
 7    1  0.2895253E-009  0.9482579E+02  0.7561462E-02  0.1291569E+00
          1   -1    0    0  501    0  0.00000000000E+00  0.00000000000E+00  0.16655903781E+03  0.16655903781E+03  0.00000000000E+00 0. -1.
         -1   -1    0    0    0  501 -0.00000000000E+00 -0.00000000000E+00 -0.11118544929E+03  0.11118544929E+03  0.00000000000E+00 0.  1.
         25    2    1    2    0    0  0.28895578979E+02  0.70365291619E+02  0.61493994211E+02  0.15879637037E+03  0.12509415322E+03 0.  0.
          5    1    3    3  502    0 -0.21767826790E+02 -0.45509717970E+01  0.64353295333E+02  0.68215604136E+02  0.41800000000E+01 0. -1.
         -5    1    3    3    0  502  0.50663405769E+02  0.74916263416E+02 -0.28593011221E+01  0.90580766232E+02  0.41800000000E+01 0. -1.
        -11    1    1    2    0    0 -0.70350109728E+01 -0.95377679540E+01  0.38580820246E+02  0.40360129927E+02  0.00000000000E+00 0. -1.
         11    1    1    2    0    0 -0.21860568006E+02 -0.60827523665E+02 -0.44701225936E+02  0.78587986798E+02  0.00000000000E+00 0.  1.
</event>
<event>
 7    1  0.2564986E-009  0.1188861E+03  0.7561462E-02  0.1244946E+00
         -4   -1    0    0    0  501 -0.00000000000E+00  0.00000000000E+00  0.44607361342E+02  0.44607361342E+02  0.00000000000E+00 0.  1.
          4   -1    0    0  501    0  0.00000000000E+00 -0.00000000000E+00 -0.39842519976E+03  0.39842519976E+03  0.00000000000E+00 0. -1.
         25    2    1    2    0    0 -0.64825378615E+02  0.40419599708E+02 -0.23653113691E+03  0.27826234832E+03  0.12508749741E+03 0.  0.
          5    1    3    3  502    0 -0.41838618086E+02  0.84648877458E+02 -0.17567421977E+03  0.19948635620E+03  0.41800000000E+01 0.  1.
         -5    1    3    3    0  502 -0.22986760529E+02 -0.44229277750E+02 -0.60856917142E+02  0.78775992117E+02  0.41800000000E+01 0.  1.
        -11    1    1    2    0    0  0.17422941918E+02 -0.42349112172E+02 -0.10677135409E+03  0.11617714174E+03  0.00000000000E+00 0.  1.
         11    1    1    2    0    0  0.47402436697E+02  0.19295124645E+01 -0.10515347418E+02  0.48593071055E+02  0.00000000000E+00 0. -1.
</event>
<event>
 7    1  0.2564986E-009  0.1935669E+03  0.7561462E-02  0.1155283E+00
         -1   -1    0    0    0  501 -0.00000000000E+00  0.00000000000E+00  0.17401293736E+02  0.17401293736E+02  0.00000000000E+00 0.  1.
          1   -1    0    0  501    0  0.00000000000E+00 -0.00000000000E+00 -0.31954244482E+04  0.31954244482E+04  0.00000000000E+00 0. -1.
         25    2    1    2    0    0 -0.14470548911E+03  0.10653611526E+03 -0.23009773428E+04  0.23113705838E+04  0.12509045163E+03 0.  0.
          5    1    3    3  502    0 -0.14747091310E+03  0.10581159179E+03 -0.15832480402E+04  0.15936234161E+04  0.41800000000E+01 0. -1.
         -5    1    3    3    0  502  0.27654239900E+01  0.72452347213E+00 -0.71772930258E+03  0.71774716766E+03  0.41800000000E+01 0. -1.
        -11    1    1    2    0    0  0.11434761817E+03 -0.30054831017E+02 -0.63195882211E+03  0.64292349739E+03  0.00000000000E+00 0. -1.
         11    1    1    2    0    0  0.30357870944E+02 -0.76481284241E+02 -0.24508698955E+03  0.25853166076E+03  0.00000000000E+00 0.  1.
</event>
<event>
 7    1  0.3671164E-009  0.2345253E+03  0.7561462E-02  0.1123495E+00
         -2   -1    0    0    0  501 -0.00000000000E+00  0.00000000000E+00  0.32146383857E+03  0.32146383857E+03  0.00000000000E+00 0.  1.
          2   -1    0    0  501    0  0.00000000000E+00 -0.00000000000E+00 -0.19061680608E+03  0.19061680608E+03  0.00000000000E+00 0. -1.
         25    2    1    2    0    0  0.21497621425E+03 -0.53099184879E+02  0.83512845135E+02  0.26768502033E+03  0.12508628493E+03 0.  0.
          5    1    3    3  502    0 -0.72332214521E+00 -0.11020750886E+02 -0.21157680102E+02  0.24230145941E+02  0.41800000000E+01 0.  1.
         -5    1    3    3    0  502  0.21569953640E+03 -0.42078433992E+02  0.10467052524E+03  0.24345487439E+03  0.41800000000E+01 0.  1.
        -11    1    1    2    0    0 -0.94603995458E+02  0.67485352658E+02  0.61797715226E+01  0.11637172490E+03  0.00000000000E+00 0. -1.
         11    1    1    2    0    0 -0.12037221880E+03 -0.14386167780E+02  0.41154415824E+02  0.12802389942E+03  0.00000000000E+00 0.  1.
</event>
<event>
 7    1  0.2564986E-009  0.1948907E+03  0.7561462E-02  0.1154123E+00
         -2   -1    0    0    0  501 -0.00000000000E+00  0.00000000000E+00  0.33293590299E+02  0.33293590299E+02  0.00000000000E+00 0.  1.
          2   -1    0    0  501    0  0.00000000000E+00 -0.00000000000E+00 -0.14049927281E+04  0.14049927281E+04  0.00000000000E+00 0. -1.
         25    2    1    2    0    0 -0.72966129183E+02 -0.16170887906E+03 -0.90530772923E+03  0.93096989655E+03  0.12509614743E+03 0.  0.
          5    1    3    3  502    0 -0.23030046286E+02  0.14150366798E+02 -0.21969003844E+03  0.22138609103E+03  0.41800000000E+01 0.  1.
         -5    1    3    3    0  502 -0.49936082898E+02 -0.17585924586E+03 -0.68561769080E+03  0.70958380552E+03  0.41800000000E+01 0.  1.
        -11    1    1    2    0    0  0.30575273324E+02  0.10099946070E+03 -0.15686333602E+03  0.18905513637E+03  0.00000000000E+00 0.  1.
         11    1    1    2    0    0  0.42390855859E+02  0.60709418355E+02 -0.30952807259E+03  0.31826128551E+03  0.00000000000E+00 0. -1.
</event>
<event>
 7    1  0.2564986E-009  0.1035622E+03  0.7561462E-02  0.1272979E+00
          2   -1    0    0  501    0  0.00000000000E+00  0.00000000000E+00  0.50232810241E+03  0.50232810241E+03  0.00000000000E+00 0. -1.
         -2   -1    0    0    0  501 -0.00000000000E+00 -0.00000000000E+00 -0.31356096126E+02  0.31356096126E+02  0.00000000000E+00 0.  1.
         25    2    1    2    0    0 -0.48386897969E+02  0.11419360643E+02  0.36156468751E+03  0.38580899122E+03  0.12509140961E+03 0.  0.
          5    1    3    3  502    0  0.28874984597E+02 -0.94694280984E+01  0.22792392702E+03  0.22997874621E+03  0.41800000000E+01 0.  1.
         -5    1    3    3    0  502 -0.77261882567E+02  0.20888788742E+02  0.13364076049E+03  0.15583024500E+03  0.41800000000E+01 0.  1.
        -11    1    1    2    0    0 -0.13193164854E+02  0.22439529073E+02  0.14545352325E+02  0.29818774927E+02  0.00000000000E+00 0.  1.
         11    1    1    2    0    0  0.61580062823E+02 -0.33858889717E+02  0.94861966452E+02  0.11805643239E+03  0.00000000000E+00 0. -1.
</event>
<event>
 7    1  0.2564986E-009  0.1383638E+03  0.7561462E-02  0.1215548E+00
          1   -1    0    0  501    0  0.00000000000E+00  0.00000000000E+00  0.55004876966E+03  0.55004876966E+03  0.00000000000E+00 0. -1.
         -1   -1    0    0    0  501 -0.00000000000E+00 -0.00000000000E+00 -0.61422936828E+02  0.61422936828E+02  0.00000000000E+00 0.  1.
         25    2    1    2    0    0 -0.59741417794E+01  0.91893212738E+02  0.44339693263E+03  0.46981787685E+03  0.12509174484E+03 0.  0.
          5    1    3    3  502    0 -0.90390476018E+01 -0.26169595563E+02  0.35885446641E+02  0.45516917669E+02  0.41800000000E+01 0.  1.
         -5    1    3    3    0  502  0.30649058224E+01  0.11806280830E+03  0.40751148598E+03  0.42430095918E+03  0.41800000000E+01 0.  1.
        -11    1    1    2    0    0 -0.39332910161E+02 -0.16633092987E+02  0.30747769385E+02  0.52622836546E+02  0.00000000000E+00 0. -1.
         11    1    1    2    0    0  0.45307051940E+02 -0.75260119751E+02  0.14481130816E+02  0.89030993087E+02  0.00000000000E+00 0.  1.
</event>
<event>
 7    1  0.2564986E-009  0.9777694E+02  0.7561462E-02  0.1285041E+00
          2   -1    0    0  501    0  0.00000000000E+00  0.00000000000E+00  0.23993901435E+03  0.23993901435E+03  0.00000000000E+00 0.  1.
         -2   -1    0    0    0  501 -0.00000000000E+00 -0.00000000000E+00 -0.64986316631E+02  0.64986316631E+02  0.00000000000E+00 0. -1.
         25    2    1    2    0    0  0.33411893448E+02 -0.29873054727E+02  0.45962730349E+02  0.14060254816E+03  0.12509096669E+03 0.  0.
          5    1    3    3  502    0 -0.22204272700E+02  0.37708908304E+02  0.24747059531E+02  0.50446812060E+02  0.41800000000E+01 0.  1.
         -5    1    3    3    0  502  0.55616166148E+02 -0.67581963031E+02  0.21215670818E+02  0.90155736103E+02  0.41800000000E+01 0.  1.
        -11    1    1    2    0    0 -0.19095845191E+02 -0.10034987357E+02 -0.63580403852E+01  0.22489485373E+02  0.00000000000E+00 0. -1.
         11    1    1    2    0    0 -0.14316048257E+02  0.39908042084E+02  0.13534800776E+03  0.14183329745E+03  0.00000000000E+00 0.  1.
</event>
<event>
 7    1  0.2564986E-009  0.1216063E+03  0.7561462E-02  0.1240470E+00
          2   -1    0    0  501    0  0.00000000000E+00  0.00000000000E+00  0.12075825032E+04  0.12075825032E+04  0.00000000000E+00 0. -1.
         -2   -1    0    0    0  501 -0.00000000000E+00 -0.00000000000E+00 -0.16417689339E+02  0.16417689339E+02  0.00000000000E+00 0.  1.
         25    2    1    2    0    0 -0.60006772207E+02  0.53097002720E+02  0.79712234448E+03  0.81084661988E+03  0.12509238380E+03 0.  0.
          5    1    3    3  502    0 -0.70568892385E+02 -0.20582957066E+02  0.36729790642E+03  0.37460492677E+03  0.41800000000E+01 0.  1.
         -5    1    3    3    0  502  0.10562120178E+02  0.73679959787E+02  0.42982443806E+03  0.43624169311E+03  0.41800000000E+01 0.  1.
        -11    1    1    2    0    0  0.21799228954E+02  0.77921878564E+01  0.15532021920E+02  0.27877738063E+02  0.00000000000E+00 0.  1.
         11    1    1    2    0    0  0.38207543253E+02 -0.60889190577E+02  0.37851044748E+03  0.38527583462E+03  0.00000000000E+00 0. -1.
</event>
<event>
 7    1  0.2564986E-009  0.9898250E+02  0.7561462E-02  0.1282450E+00
          1   -1    0    0  501    0  0.00000000000E+00  0.00000000000E+00  0.22802997336E+03  0.22802997336E+03  0.00000000000E+00 0. -1.
         -1   -1    0    0    0  501 -0.00000000000E+00 -0.00000000000E+00 -0.69403341049E+02  0.69403341049E+02  0.00000000000E+00 0.  1.
         25    2    1    2    0    0 -0.44514987717E+02  0.39925979157E+02  0.11456463026E+03  0.17985517325E+03  0.12508861218E+03 0.  0.
          5    1    3    3  502    0  0.10383532767E+02  0.31598853146E+02 -0.16565146164E+02  0.37392268456E+02  0.41800000000E+01 0. -1.
         -5    1    3    3    0  502 -0.54898520484E+02  0.83271260105E+01  0.13112977642E+03  0.14246290480E+03  0.41800000000E+01 0. -1.
        -11    1    1    2    0    0  0.56122836226E+01  0.29039824873E+02  0.15581462115E+02  0.33430392127E+02  0.00000000000E+00 0.  1.
         11    1    1    2    0    0  0.38902704094E+02 -0.68965804030E+02  0.28480539938E+02  0.84147749028E+02  0.00000000000E+00 0. -1.
</event>
<event>
 7    1  0.2564986E-009  0.2326826E+03  0.7561462E-02  0.1124766E+00
         -2   -1    0    0    0  501 -0.00000000000E+00  0.00000000000E+00  0.19644459292E+03  0.19644459292E+03  0.00000000000E+00 0.  1.
          2   -1    0    0  501    0  0.00000000000E+00 -0.00000000000E+00 -0.30020247847E+03  0.30020247847E+03  0.00000000000E+00 0. -1.
         25    2    1    2    0    0  0.20661307354E+03  0.48282768051E+02 -0.75663090423E+01  0.24642379501E+03  0.12508896780E+03 0.  0.
          5    1    3    3  502    0  0.51804287646E+02  0.64033003514E+02  0.27358449501E+02  0.86889970173E+02  0.41800000000E+01 0.  1.
         -5    1    3    3    0  502  0.15480878590E+03 -0.15750235463E+02 -0.34924758543E+02  0.15953382484E+03  0.41800000000E+01 0.  1.
        -11    1    1    2    0    0 -0.18538577983E+03 -0.12729291648E+02 -0.60116655759E+02  0.19530472224E+03  0.00000000000E+00 0. -1.
         11    1    1    2    0    0 -0.21227293715E+02 -0.35553476404E+02 -0.36074920746E+02  0.54918554147E+02  0.00000000000E+00 0.  1.
</event>
<event>
 7    1  0.2564986E-009  0.1978176E+03  0.7561462E-02  0.1151593E+00
         -1   -1    0    0    0  501 -0.00000000000E+00  0.00000000000E+00  0.42533729284E+03  0.42533729284E+03  0.00000000000E+00 0.  1.
          1   -1    0    0  501    0  0.00000000000E+00 -0.00000000000E+00 -0.10249474361E+03  0.10249474361E+03  0.00000000000E+00 0. -1.
         25    2    1    2    0    0 -0.11099035753E+03 -0.13915084246E+03  0.17511043899E+03  0.27927149605E+03  0.12508831376E+03 0.  0.
          5    1    3    3  502    0 -0.25807900572E+02 -0.12895364457E+03  0.10969261085E+03  0.17130391547E+03  0.41800000000E+01 0.  1.
         -5    1    3    3    0  502 -0.85182456957E+02 -0.10197197894E+02  0.65417828145E+02  0.10796758058E+03  0.41800000000E+01 0.  1.
        -11    1    1    2    0    0  0.34000022108E+02  0.36984527484E+02  0.10019845275E+03  0.11208740656E+03  0.00000000000E+00 0. -1.
         11    1    1    2    0    0  0.76990335421E+02  0.10216631498E+03  0.47533657488E+02  0.13647313384E+03  0.00000000000E+00 0.  1.
</event>
<event>
 7    1  0.3358113E-009  0.1281213E+03  0.7561462E-02  0.1230270E+00
         -1   -1    0    0    0  501 -0.00000000000E+00  0.00000000000E+00  0.48528103816E+02  0.48528103816E+02  0.00000000000E+00 0.  1.
          1   -1    0    0  501    0  0.00000000000E+00 -0.00000000000E+00 -0.56629439906E+03  0.56629439906E+03  0.00000000000E+00 0. -1.
         25    2    1    2    0    0  0.14469020240E+02  0.10648914990E+03 -0.39315524914E+03  0.42634231868E+03  0.12508969253E+03 0.  0.
          5    1    3    3  502    0  0.44530728219E+02  0.96521193489E+02 -0.16742757768E+03  0.19836530119E+03  0.41800000000E+01 0. -1.
         -5    1    3    3    0  502 -0.30061707979E+02  0.99679564137E+01 -0.22572767146E+03  0.22797701749E+03  0.41800000000E+01 0. -1.
        -11    1    1    2    0    0  0.16307613672E+02 -0.59894569651E+02 -0.12627944187E+02  0.63346370944E+02  0.00000000000E+00 0.  1.
         11    1    1    2    0    0 -0.30776633912E+02 -0.46594580251E+02 -0.11198310192E+03  0.12513381325E+03  0.00000000000E+00 0. -1.
</event>
<event>
 7    1  0.2564986E-009  0.6514484E+02  0.7561462E-02  0.1377427E+00
         -2   -1    0    0    0  501 -0.00000000000E+00  0.00000000000E+00  0.18262167361E+02  0.18262167361E+02  0.00000000000E+00 0.  1.
          2   -1    0    0  501    0  0.00000000000E+00 -0.00000000000E+00 -0.76693286831E+03  0.76693286831E+03  0.00000000000E+00 0. -1.
         25    2    1    2    0    0 -0.39814812573E+02  0.67998424034E+01 -0.50715667811E+03  0.52391505019E+03  0.12509047328E+03 0.  0.
          5    1    3    3  502    0 -0.15126644854E+02  0.48714261931E+00  0.39578579628E+00  0.15706105146E+02  0.41800000000E+01 0. -1.
         -5    1    3    3    0  502 -0.24688167719E+02  0.63126997841E+01 -0.50755246391E+03  0.50820894505E+03  0.41800000000E+01 0. -1.
        -11    1    1    2    0    0 -0.24271175238E+02  0.41490826279E+00 -0.22972357677E+02  0.33421419981E+02  0.00000000000E+00 0.  1.
         11    1    1    2    0    0  0.64085987811E+02 -0.72147506662E+01 -0.21854166516E+03  0.22785856550E+03  0.00000000000E+00 0. -1.
</event>
<event>
 7    1  0.2564986E-009  0.8307523E+02  0.7561462E-02  0.1320544E+00
          3   -1    0    0  501    0  0.00000000000E+00  0.00000000000E+00  0.27447628950E+03  0.27447628950E+03  0.00000000000E+00 0. -1.
         -3   -1    0    0    0  501 -0.00000000000E+00 -0.00000000000E+00 -0.44476529705E+02  0.44476529705E+02  0.00000000000E+00 0.  1.
         25    2    1    2    0    0  0.87683698819E+01  0.12619515379E+01  0.94229645958E+02  0.15686178884E+03  0.12509163757E+03 0.  0.
          5    1    3    3  502    0  0.27597437724E+02 -0.53219250351E+02  0.74666425533E+02  0.95845994589E+02  0.41800000000E+01 0.  1.
         -5    1    3    3    0  502 -0.18829067842E+02  0.54481201889E+02  0.19563220425E+02  0.61015794254E+02  0.41800000000E+01 0.  1.
        -11    1    1    2    0    0  0.68207700573E+01  0.20435726543E+02 -0.21092769721E+01  0.21646959899E+02  0.00000000000E+00 0.  1.
         11    1    1    2    0    0 -0.15589139939E+02 -0.21697678081E+02  0.13787939081E+03  0.14044407046E+03  0.00000000000E+00 0. -1.
</event>
<event>
 7    1  0.2564986E-009  0.1056855E+03  0.7561462E-02  0.1268775E+00
          1   -1    0    0  501    0  0.00000000000E+00  0.00000000000E+00  0.34755385407E+03  0.34755385407E+03  0.00000000000E+00 0. -1.
         -1   -1    0    0    0  501 -0.00000000000E+00 -0.00000000000E+00 -0.12831692540E+03  0.12831692540E+03  0.00000000000E+00 0.  1.
         25    2    1    2    0    0 -0.12305434364E+02  0.67157699463E+02 -0.74906900854E+02  0.16098983022E+03  0.12508037946E+03 0.  0.
          5    1    3    3  502    0  0.13100787687E+02  0.80443146207E+02 -0.10103338629E+01  0.81616319350E+02  0.41800000000E+01 0.  1.
         -5    1    3    3    0  502 -0.25406222051E+02 -0.13285446744E+02 -0.73896566991E+02  0.79373510866E+02  0.41800000000E+01 0.  1.
        -11    1    1    2    0    0 -0.24375187886E+02 -0.58098854688E+02  0.10880763544E+03  0.12573276514E+03  0.00000000000E+00 0.  1.
         11    1    1    2    0    0  0.36680622250E+02 -0.90588447748E+01  0.18533619408E+03  0.18914818412E+03  0.00000000000E+00 0. -1.
</event>
<event>
 7    1  0.2564986E-009  0.1092153E+03  0.7561462E-02  0.1262030E+00
          1   -1    0    0  501    0  0.00000000000E+00  0.00000000000E+00  0.11368032155E+03  0.11368032155E+03  0.00000000000E+00 0. -1.
         -1   -1    0    0    0  501 -0.00000000000E+00 -0.00000000000E+00 -0.16013583054E+03  0.16013583054E+03  0.00000000000E+00 0.  1.
         25    2    1    2    0    0  0.66230934466E+01 -0.72489195648E+02  0.14482069766E+02  0.14545058653E+03  0.12509034305E+03 0.  0.
          5    1    3    3  502    0 -0.17754835250E+02  0.31321269912E+02 -0.61350904954E+01  0.36760955633E+02  0.41800000000E+01 0. -1.
         -5    1    3    3    0  502  0.24377928696E+02 -0.10381046556E+03  0.20617160262E+02  0.10868963090E+03  0.41800000000E+01 0. -1.
        -11    1    1    2    0    0  0.58707389508E+01  0.88856299186E+01 -0.62625453573E+02  0.63524541951E+02  0.00000000000E+00 0.  1.
         11    1    1    2    0    0 -0.12493832397E+02  0.63603565730E+02  0.16878748212E+01  0.64841023611E+02  0.00000000000E+00 0. -1.
</event>
<event>
 7    1  0.2564986E-009  0.1661059E+03  0.7561462E-02  0.1181971E+00
          2   -1    0    0  501    0  0.00000000000E+00  0.00000000000E+00  0.67525309487E+03  0.67525309487E+03  0.00000000000E+00 0. -1.
         -2   -1    0    0    0  501 -0.00000000000E+00 -0.00000000000E+00 -0.48189465487E+02  0.48189465487E+02  0.00000000000E+00 0.  1.
         25    2    1    2    0    0 -0.13579098031E+03  0.42672936818E+02  0.31176147910E+03  0.36483251482E+03  0.12508946457E+03 0.  0.
          5    1    3    3  502    0  0.11875874369E+02  0.39382232778E+02  0.58907572306E+02  0.71969237356E+02  0.41800000000E+01 0.  1.
         -5    1    3    3    0  502 -0.14766685468E+03  0.32907040401E+01  0.25285390680E+03  0.29286327746E+03  0.41800000000E+01 0.  1.
        -11    1    1    2    0    0  0.66501245557E+02 -0.28644015088E+02  0.25690605071E+03  0.26691499424E+03  0.00000000000E+00 0. -1.
         11    1    1    2    0    0  0.69289734752E+02 -0.14028921730E+02  0.58396099572E+02  0.91695051296E+02  0.00000000000E+00 0.  1.
</event>
<event>
 7    1  0.2564986E-009  0.7882693E+02  0.7561462E-02  0.1332414E+00
         -2   -1    0    0    0  501 -0.00000000000E+00  0.00000000000E+00  0.32885498792E+02  0.32885498792E+02  0.00000000000E+00 0.  1.
          2   -1    0    0  501    0  0.00000000000E+00 -0.00000000000E+00 -0.47732300138E+03  0.47732300138E+03  0.00000000000E+00 0. -1.
         25    2    1    2    0    0  0.28403651145E+02  0.56124009615E+02 -0.21293778549E+03  0.25484547623E+03  0.12508814655E+03 0.  0.
          5    1    3    3  502    0  0.83326567331E+00  0.22874315331E+02  0.11707375839E+02  0.26047335422E+02  0.41800000000E+01 0. -1.
         -5    1    3    3    0  502  0.27570385472E+02  0.33249694283E+02 -0.22464516133E+03  0.22879814080E+03  0.41800000000E+01 0. -1.
        -11    1    1    2    0    0 -0.49946862639E+02 -0.36658212266E+02 -0.21077034861E+03  0.21968762703E+03  0.00000000000E+00 0. -1.
         11    1    1    2    0    0  0.21543211494E+02 -0.19465797349E+02 -0.20729368485E+02  0.35675396924E+02  0.00000000000E+00 0.  1.
</event>
<event>
 7    1  0.2564986E-009  0.1081514E+03  0.7561462E-02  0.1264032E+00
         -2   -1    0    0    0  501 -0.00000000000E+00  0.00000000000E+00  0.48477572828E+03  0.48477572828E+03  0.00000000000E+00 0.  1.
          2   -1    0    0  501    0  0.00000000000E+00 -0.00000000000E+00 -0.27733935079E+02  0.27733935079E+02  0.00000000000E+00 0. -1.
         25    2    1    2    0    0  0.13958648755E+02 -0.39379039459E+02  0.25373809149E+03  0.28596446579E+03  0.12508838475E+03 0.  0.
          5    1    3    3  502    0  0.26308313029E+02  0.33816249831E+02  0.36778533234E+02  0.56619775644E+02  0.41800000000E+01 0.  1.
         -5    1    3    3    0  502 -0.12349664275E+02 -0.73195289290E+02  0.21695955825E+03  0.22934469015E+03  0.41800000000E+01 0.  1.
        -11    1    1    2    0    0 -0.51920795746E+02  0.16028538793E+02  0.95230780188E+02  0.10964298693E+03  0.00000000000E+00 0.  1.
         11    1    1    2    0    0  0.37962146992E+02  0.23350500666E+02  0.10807292153E+03  0.11690221064E+03  0.00000000000E+00 0. -1.
</event>
<event>
 7    1  0.2564986E-009  0.7286329E+02  0.7561462E-02  0.1350618E+00
          2   -1    0    0  501    0  0.00000000000E+00  0.00000000000E+00  0.20147104501E+03  0.20147104501E+03  0.00000000000E+00 0. -1.
         -2   -1    0    0    0  501 -0.00000000000E+00 -0.00000000000E+00 -0.81859061712E+02  0.81859061712E+02  0.00000000000E+00 0.  1.
         25    2    1    2    0    0 -0.15006098093E+00  0.19510194831E+02 -0.47265075124E+01  0.12669444675E+03  0.12509385574E+03 0.  0.
          5    1    3    3  502    0 -0.29646105148E+02 -0.10971020322E+02  0.48786314815E+02  0.58282345102E+02  0.41800000000E+01 0. -1.
         -5    1    3    3    0  502  0.29496044168E+02  0.30481215152E+02 -0.53512822327E+02  0.68412101650E+02  0.41800000000E+01 0. -1.
        -11    1    1    2    0    0  0.15184373660E+02  0.22191896693E+02  0.25260881504E+01  0.27007898912E+02  0.00000000000E+00 0.  1.
         11    1    1    2    0    0 -0.15034312680E+02 -0.41702091524E+02  0.12181240266E+03  0.12962776106E+03  0.00000000000E+00 0. -1.
</event>
<event>
 7    1  0.2564986E-009  0.6583557E+02  0.7561462E-02  0.1374856E+00
          1   -1    0    0  501    0  0.00000000000E+00  0.00000000000E+00  0.65242838284E+02  0.65242838284E+02  0.00000000000E+00 0. -1.
         -1   -1    0    0    0  501 -0.00000000000E+00 -0.00000000000E+00 -0.21530173748E+03  0.21530173748E+03  0.00000000000E+00 0.  1.
         25    2    1    2    0    0  0.46756036847E+02 -0.12198493541E+02 -0.91570382531E+02  0.16238367428E+03  0.12509353496E+03 0.  0.
          5    1    3    3  502    0  0.54976140738E+02 -0.29891303326E+02  0.58057962642E+01  0.62984488053E+02  0.41800000000E+01 0.  1.
         -5    1    3    3    0  502 -0.82201038914E+01  0.17692809785E+02 -0.97376178795E+02  0.99399186228E+02  0.41800000000E+01 0.  1.
        -11    1    1    2    0    0 -0.35363980254E+02  0.55047826142E+01 -0.82959609879E+02  0.90350487560E+02  0.00000000000E+00 0.  1.
         11    1    1    2    0    0 -0.11392056593E+02  0.66937109272E+01  0.24471093215E+02  0.27810413922E+02  0.00000000000E+00 0. -1.
</event>
<event>
 7    1  0.2564986E-009  0.1030646E+03  0.7561462E-02  0.1273980E+00
          2   -1    0    0  501    0  0.00000000000E+00  0.00000000000E+00  0.16896528835E+03  0.16896528835E+03  0.00000000000E+00 0. -1.
         -2   -1    0    0    0  501 -0.00000000000E+00 -0.00000000000E+00 -0.92286506144E+02  0.92286506144E+02  0.00000000000E+00 0.  1.
         25    2    1    2    0    0 -0.26848522283E+02 -0.55265403899E+02  0.37149712147E+02  0.14421689564E+03  0.12507319401E+03 0.  0.
          5    1    3    3  502    0  0.37592235510E+02 -0.63814381787E+02  0.18320640008E+02  0.76410534246E+02  0.41800000000E+01 0.  1.
         -5    1    3    3    0  502 -0.64440757793E+02  0.85489778877E+01  0.18829072139E+02  0.67806361394E+02  0.41800000000E+01 0.  1.
        -11    1    1    2    0    0  0.22010806160E+02  0.15916445024E+02 -0.27821347517E+02  0.38882337735E+02  0.00000000000E+00 0.  1.
         11    1    1    2    0    0  0.48377161231E+01  0.39348958875E+02  0.67350417575E+02  0.78152561118E+02  0.00000000000E+00 0. -1.
</event>
<event>
 7    1  0.2564986E-009  0.1583461E+03  0.7561462E-02  0.1190577E+00
          1   -1    0    0  501    0  0.00000000000E+00  0.00000000000E+00  0.88674936257E+03  0.88674936257E+03  0.00000000000E+00 0. -1.
         -1   -1    0    0    0  501 -0.00000000000E+00 -0.00000000000E+00 -0.88726900164E+02  0.88726900164E+02  0.00000000000E+00 0.  1.
         25    2    1    2    0    0 -0.10496910468E+03  0.74948342464E+02  0.79744561510E+03  0.81743780237E+03  0.12509710120E+03 0.  0.
          5    1    3    3  502    0 -0.77945465861E+02  0.11009683347E+03  0.58305302594E+03  0.59846897317E+03  0.41800000000E+01 0. -1.
         -5    1    3    3    0  502 -0.27023638816E+02 -0.35148491009E+02  0.21439258916E+03  0.21896882920E+03  0.41800000000E+01 0. -1.
        -11    1    1    2    0    0  0.19091104726E+02  0.51409511821E+01  0.30968280445E+02  0.36741448698E+02  0.00000000000E+00 0. -1.
         11    1    1    2    0    0  0.85877999951E+02 -0.80089293646E+02 -0.30391433132E+02  0.12129701167E+03  0.00000000000E+00 0.  1.
</event>
<event>
 7    1  0.2564986E-009  0.1189529E+03  0.7561462E-02  0.1244834E+00
         -2   -1    0    0    0  501 -0.00000000000E+00  0.00000000000E+00  0.11074732395E+03  0.11074732395E+03  0.00000000000E+00 0. -1.
          2   -1    0    0  501    0  0.00000000000E+00 -0.00000000000E+00 -0.20787884926E+03  0.20787884926E+03  0.00000000000E+00 0.  1.
         25    2    1    2    0    0 -0.39803145688E+02 -0.67049137775E+02  0.22633586708E+02  0.14913968353E+03  0.12510191315E+03 0.  0.
          5    1    3    3  502    0 -0.70796460593E+02 -0.35806204258E+02 -0.25833326912E+02  0.83540746197E+02  0.41800000000E+01 0. -1.
         -5    1    3    3    0  502  0.30993314905E+02 -0.31242933517E+02  0.48466913620E+02  0.65598937334E+02  0.41800000000E+01 0. -1.
        -11    1    1    2    0    0 -0.23118870550E+02  0.11625795448E+01 -0.48772118491E+02  0.53986603049E+02  0.00000000000E+00 0.  1.
         11    1    1    2    0    0  0.62922016237E+02  0.65886558230E+02 -0.70992993529E+02  0.11549988664E+03  0.00000000000E+00 0. -1.
</event>
<event>
 7    1  0.2564986E-009  0.1014767E+03  0.7561462E-02  0.1277221E+00
         -1   -1    0    0    0  501 -0.00000000000E+00  0.00000000000E+00  0.60143065595E+02  0.60143065595E+02  0.00000000000E+00 0.  1.
          1   -1    0    0  501    0  0.00000000000E+00 -0.00000000000E+00 -0.21581020237E+03  0.21581020237E+03  0.00000000000E+00 0. -1.
         25    2    1    2    0    0 -0.10271045795E+02  0.77521026881E+01 -0.64735170099E+02  0.14144599875E+03  0.12510291298E+03 0.  0.
          5    1    3    3  502    0 -0.30245259675E+01 -0.52951012067E+02 -0.12562625866E+01  0.53216614247E+02  0.41800000000E+01 0. -1.
         -5    1    3    3    0  502 -0.72465198278E+01  0.60703114755E+02 -0.63478907513E+02  0.88229384502E+02  0.41800000000E+01 0. -1.
        -11    1    1    2    0    0  0.15719959759E+02 -0.46634298405E+02 -0.19379838714E+02  0.52890954531E+02  0.00000000000E+00 0.  1.
         11    1    1    2    0    0 -0.54489139635E+01  0.38882195717E+02 -0.71552127965E+02  0.81616314689E+02  0.00000000000E+00 0. -1.
</event>
<event>
 7    1  0.2564986E-009  0.9229795E+02  0.7561462E-02  0.1297380E+00
          1   -1    0    0  501    0  0.00000000000E+00  0.00000000000E+00  0.72119566374E+03  0.72119566374E+03  0.00000000000E+00 0. -1.
         -1   -1    0    0    0  501 -0.00000000000E+00 -0.00000000000E+00 -0.23921079994E+02  0.23921079994E+02  0.00000000000E+00 0.  1.
         25    2    1    2    0    0 -0.27431222170E+01 -0.67487515282E+02  0.48774805561E+03  0.50804313010E+03  0.12509023483E+03 0.  0.
          5    1    3    3  502    0 -0.15877928533E+02 -0.31918817832E+02  0.45868427771E+03  0.46008657725E+03  0.41800000000E+01 0. -1.
         -5    1    3    3    0  502  0.13134806316E+02 -0.35568697449E+02  0.29063777896E+02  0.47956552845E+02  0.41800000000E+01 0. -1.
        -11    1    1    2    0    0 -0.42409925025E+02  0.33214004556E+02  0.92553592841E+02  0.10708846524E+03  0.00000000000E+00 0.  1.
         11    1    1    2    0    0  0.45153047242E+02  0.34273510726E+02  0.11697293530E+03  0.12998514840E+03  0.00000000000E+00 0. -1.
</event>
<event>
 7    1  0.2564986E-009  0.6971871E+02  0.7561462E-02  0.1361052E+00
          2   -1    0    0  501    0  0.00000000000E+00  0.00000000000E+00  0.12039526067E+03  0.12039526067E+03  0.00000000000E+00 0. -1.
         -2   -1    0    0    0  501 -0.00000000000E+00 -0.00000000000E+00 -0.14165452604E+03  0.14165452604E+03  0.00000000000E+00 0.  1.
         25    2    1    2    0    0  0.25332150668E+02  0.24021997850E+02  0.51379465653E+02  0.13966741216E+03  0.12509341426E+03 0.  0.
          5    1    3    3  502    0  0.78245990414E+01  0.31519214115E+02 -0.36857660787E+02  0.49301569623E+02  0.41800000000E+01 0. -1.
         -5    1    3    3    0  502  0.17507551626E+02 -0.74972162648E+01  0.88237126440E+02  0.90365842541E+02  0.41800000000E+01 0. -1.
        -11    1    1    2    0    0 -0.13014250111E+01 -0.51028420295E+02 -0.69311631815E+02  0.86079589274E+02  0.00000000000E+00 0.  1.
         11    1    1    2    0    0 -0.24030725657E+02  0.27006422445E+02 -0.33270992083E+01  0.36302785265E+02  0.00000000000E+00 0. -1.
</event>
<event>
 7    1  0.2564986E-009  0.1120912E+03  0.7561462E-02  0.1256746E+00
          2   -1    0    0  501    0  0.00000000000E+00  0.00000000000E+00  0.10462193546E+03  0.10462193546E+03  0.00000000000E+00 0. -1.
         -2   -1    0    0    0  501 -0.00000000000E+00 -0.00000000000E+00 -0.18654427001E+03  0.18654427001E+03  0.00000000000E+00 0.  1.
         25    2    1    2    0    0 -0.86508883337E+02 -0.23597385207E+01 -0.67564742021E+02  0.16644128325E+03  0.12509336970E+03 0.  0.
          5    1    3    3  502    0 -0.68541516422E+01  0.17254902718E+02 -0.81003061364E+02  0.83208649868E+02  0.41800000000E+01 0. -1.
         -5    1    3    3    0  502 -0.79654731694E+02 -0.19614641238E+02  0.13438319343E+02  0.83232633378E+02  0.41800000000E+01 0. -1.
        -11    1    1    2    0    0  0.10471187885E+03  0.50084803783E+00 -0.68181024487E+01  0.10493481282E+03  0.00000000000E+00 0. -1.
         11    1    1    2    0    0 -0.18202995512E+02  0.18588904829E+01 -0.75394900806E+01  0.19790109401E+02  0.00000000000E+00 0.  1.
</event>
<event>
 7    1  0.2564986E-009  0.1022716E+03  0.7561462E-02  0.1275590E+00
          2   -1    0    0  501    0  0.00000000000E+00  0.00000000000E+00  0.40046675061E+03  0.40046675061E+03  0.00000000000E+00 0. -1.
         -2   -1    0    0    0  501 -0.00000000000E+00 -0.00000000000E+00 -0.52307435988E+02  0.52307435988E+02  0.00000000000E+00 0.  1.
         25    2    1    2    0    0 -0.47629738359E+02 -0.19973119231E+02  0.31665743524E+03  0.34436555639E+03  0.12509271629E+03 0.  0.
          5    1    3    3  502    0  0.28571993870E+02  0.31921624948E+02  0.10163672895E+03  0.11037593055E+03  0.41800000000E+01 0. -1.
         -5    1    3    3    0  502 -0.76201732229E+02 -0.51894744179E+02  0.21502070629E+03  0.23398962584E+03  0.41800000000E+01 0. -1.
        -11    1    1    2    0    0  0.25420936512E+01  0.23822886822E+02 -0.25921817589E+02  0.35297773355E+02  0.00000000000E+00 0.  1.
         11    1    1    2    0    0  0.45087644708E+02 -0.38497675905E+01  0.57423696970E+02  0.73110856851E+02  0.00000000000E+00 0. -1.
</event>
<event>
 7    1  0.2564986E-009  0.1006830E+03  0.7561462E-02  0.1278866E+00
         -1   -1    0    0    0  501 -0.00000000000E+00  0.00000000000E+00  0.48792666686E+02  0.48792666686E+02  0.00000000000E+00 0.  1.
          1   -1    0    0  501    0  0.00000000000E+00 -0.00000000000E+00 -0.47751204181E+03  0.47751204181E+03  0.00000000000E+00 0. -1.
         25    2    1    2    0    0 -0.83115081458E+02 -0.24511020824E+01 -0.35394617649E+03  0.38449929117E+03  0.12509070466E+03 0.  0.
          5    1    3    3  502    0 -0.21262701669E+02  0.10268082066E+01  0.32593512650E+01  0.21937469955E+02  0.41800000000E+01 0.  1.
         -5    1    3    3    0  502 -0.61852379789E+02 -0.34779102890E+01 -0.35720552775E+03  0.36256182121E+03  0.41800000000E+01 0.  1.
        -11    1    1    2    0    0  0.91166120123E+02 -0.20341847905E+02 -0.71023939353E+02  0.11734330912E+03  0.00000000000E+00 0. -1.
         11    1    1    2    0    0 -0.80510386651E+01  0.22792949987E+02 -0.37492592853E+01  0.24462108206E+02  0.00000000000E+00 0.  1.
</event>
<event>
 7    1  0.2564986E-009  0.9929544E+02  0.7561462E-02  0.1281785E+00
         -2   -1    0    0    0  501 -0.00000000000E+00  0.00000000000E+00  0.38918866874E+03  0.38918866874E+03  0.00000000000E+00 0.  1.
          2   -1    0    0  501    0  0.00000000000E+00 -0.00000000000E+00 -0.35303278225E+02  0.35303278225E+02  0.00000000000E+00 0. -1.
         25    2    1    2    0    0 -0.40351684781E+02  0.30219664383E+01  0.22757158474E+03  0.26281802244E+03  0.12508835275E+03 0.  0.
          5    1    3    3  502    0  0.38369056591E+02  0.28456255537E+02  0.70836340597E+02  0.85540648419E+02  0.41800000000E+01 0. -1.
         -5    1    3    3    0  502 -0.78720741372E+02 -0.25434289098E+02  0.15673524414E+03  0.17727737402E+03  0.41800000000E+01 0. -1.
        -11    1    1    2    0    0  0.46538394605E+02  0.14884251500E+02  0.13291549369E+03  0.14161176356E+03  0.00000000000E+00 0.  1.
         11    1    1    2    0    0 -0.61867098241E+01 -0.17906217938E+02 -0.66016879126E+01  0.20062160965E+02  0.00000000000E+00 0. -1.
</event>
<event>
 7    1  0.2564986E-009  0.1895807E+03  0.7561462E-02  0.1158840E+00
         -2   -1    0    0    0  501 -0.00000000000E+00  0.00000000000E+00  0.66667365872E+02  0.66667365872E+02  0.00000000000E+00 0.  1.
          2   -1    0    0  501    0  0.00000000000E+00 -0.00000000000E+00 -0.60378546663E+03  0.60378546663E+03  0.00000000000E+00 0. -1.
         25    2    1    2    0    0 -0.13791469915E+03  0.97037998091E+02 -0.27649317545E+03  0.34717889753E+03  0.12509146057E+03 0.  0.
          5    1    3    3  502    0  0.80627063628E+01 -0.20128417806E+02 -0.21406273941E+02  0.30754859800E+02  0.41800000000E+01 0. -1.
         -5    1    3    3    0  502 -0.14597740551E+03  0.11716641590E+03 -0.25508690150E+03  0.31642403773E+03  0.41800000000E+01 0. -1.
        -11    1    1    2    0    0  0.10949814257E+03 -0.66379494454E+02 -0.11616840628E+03  0.17289065656E+03  0.00000000000E+00 0.  1.
         11    1    1    2    0    0  0.28416556577E+02 -0.30658503636E+02 -0.14445651904E+03  0.15038327842E+03  0.00000000000E+00 0. -1.
</event>
<event>
 7    1  0.2564986E-009  0.1076597E+03  0.7561462E-02  0.1264966E+00
          2   -1    0    0  501    0  0.00000000000E+00  0.00000000000E+00  0.20997851847E+02  0.20997851847E+02  0.00000000000E+00 0. -1.
         -2   -1    0    0    0  501 -0.00000000000E+00 -0.00000000000E+00 -0.69777460190E+03  0.69777460190E+03  0.00000000000E+00 0.  1.
         25    2    1    2    0    0  0.22828393922E+02  0.19574716151E+02 -0.51548856668E+03  0.53129691493E+03  0.12507455518E+03 0.  0.
          5    1    3    3  502    0  0.48717966081E+02  0.59673390614E+02 -0.37528009622E+03  0.38312788568E+03  0.41800000000E+01 0.  1.
         -5    1    3    3    0  502 -0.25889572158E+02 -0.40098674463E+02 -0.14020847046E+03  0.14816902925E+03  0.41800000000E+01 0.  1.
        -11    1    1    2    0    0  0.30474861200E+02 -0.20875666416E+02 -0.97943101841E+02  0.10467741787E+03  0.00000000000E+00 0.  1.
         11    1    1    2    0    0 -0.53303255123E+02  0.13009502650E+01 -0.63345081534E+02  0.82798120950E+02  0.00000000000E+00 0. -1.
</event>
<event>
 7    1  0.2564986E-009  0.1156751E+03  0.7561462E-02  0.1250407E+00
          2   -1    0    0  501    0  0.00000000000E+00  0.00000000000E+00  0.49855142389E+03  0.49855142389E+03  0.00000000000E+00 0. -1.
         -2   -1    0    0    0  501 -0.00000000000E+00 -0.00000000000E+00 -0.33897123949E+02  0.33897123949E+02  0.00000000000E+00 0.  1.
         25    2    1    2    0    0 -0.62734235039E+02 -0.14337680027E+02  0.32141279730E+03  0.35085047481E+03  0.12509482840E+03 0.  0.
          5    1    3    3  502    0 -0.40285911869E+02 -0.67105097106E+02  0.13882110913E+03  0.15942026689E+03  0.41800000000E+01 0.  1.
         -5    1    3    3    0  502 -0.22448323170E+02  0.52767417079E+02  0.18259168817E+03  0.19143020793E+03  0.41800000000E+01 0.  1.
        -11    1    1    2    0    0  0.77527424328E+02  0.19258103268E+02  0.14536063785E+03  0.16586467707E+03  0.00000000000E+00 0. -1.
         11    1    1    2    0    0 -0.14793189289E+02 -0.49204232407E+01 -0.21191352116E+01  0.15733395954E+02  0.00000000000E+00 0.  1.
</event>
<event>
 7    1  0.2564986E-009  0.1494039E+03  0.7561462E-02  0.1201207E+00
          1   -1    0    0  501    0  0.00000000000E+00  0.00000000000E+00  0.95332713939E+02  0.95332713939E+02  0.00000000000E+00 0. -1.
         -1   -1    0    0    0  501 -0.00000000000E+00 -0.00000000000E+00 -0.28728358058E+03  0.28728358058E+03  0.00000000000E+00 0.  1.
         25    2    1    2    0    0 -0.24360618808E+02 -0.12173980867E+03 -0.10800814194E+03  0.20670504409E+03  0.12508875156E+03 0.  0.
          5    1    3    3  502    0 -0.53074883075E+02 -0.10340833624E+03 -0.12297198476E+03  0.16926254357E+03  0.41800000000E+01 0. -1.
         -5    1    3    3    0  502  0.28714264267E+02 -0.18331472421E+02  0.14963842826E+02  0.37442500526E+02  0.41800000000E+01 0. -1.
        -11    1    1    2    0    0  0.53213851045E+02  0.61111743774E+02 -0.70557593576E+02  0.10744642005E+03  0.00000000000E+00 0.  1.
         11    1    1    2    0    0 -0.28853232237E+02  0.60628064891E+02 -0.13385131126E+02  0.68464830374E+02  0.00000000000E+00 0. -1.
</event>
<event>
 7    1  0.2564986E-009  0.1786693E+03  0.7561462E-02  0.1169097E+00
          2   -1    0    0  501    0  0.00000000000E+00  0.00000000000E+00  0.29870807643E+03  0.29870807643E+03  0.00000000000E+00 0. -1.
         -2   -1    0    0    0  501 -0.00000000000E+00 -0.00000000000E+00 -0.11243990732E+03  0.11243990732E+03  0.00000000000E+00 0.  1.
         25    2    1    2    0    0 -0.91215474317E+02 -0.11481804916E+03  0.11509918458E+03  0.22449744663E+03  0.12509130300E+03 0.  0.
          5    1    3    3  502    0 -0.10097459327E+03 -0.13297003859E+03  0.83984898055E+02  0.18694340093E+03  0.41800000000E+01 0.  1.
         -5    1    3    3    0  502  0.97591189570E+01  0.18151989428E+02  0.31114286521E+02  0.37554045703E+02  0.41800000000E+01 0.  1.
        -11    1    1    2    0    0  0.96205169024E+02  0.58165055271E+02  0.63907386112E+02  0.12931651945E+03  0.00000000000E+00 0.  1.
         11    1    1    2    0    0 -0.49896947076E+01  0.56652993891E+02  0.72615984217E+01  0.57334017666E+02  0.00000000000E+00 0. -1.
</event>
