<event>
 7    1  0.8712071E-006  0.1334880E+03  0.7546771E-02  0.1235822E+00
         -2   -1    0    0    0  501 -0.00000000000E+00  0.00000000000E+00  0.15749522941E+03  0.15749522941E+03  0.00000000000E+00 0.  1.
          2   -1    0    0  501    0  0.00000000000E+00 -0.00000000000E+00 -0.87382576834E+02  0.87382576834E+02  0.00000000000E+00 0. -1.
         23    2    1    2    0    0 -0.10053975932E+02  0.45748176126E+02  0.42816915459E+02  0.14018681407E+03  0.12500030616E+03 0.  0.
          5    1    3    3  502    0 -0.59322826190E+02 -0.43384192332E+01  0.40446754610E+01  0.59803586750E+02  0.47000000000E+01 0. -1.
         -5    1    3    3    0  502  0.49268850258E+02  0.50086595359E+02  0.38772239998E+02  0.80383227323E+02  0.47000000000E+01 0. -1.
        -11    1    1    2    0    0  0.14140449126E+02 -0.59631712571E+02  0.49094831742E+02  0.78525129414E+02  0.00000000000E+00 0.  1.
         11    1    1    2    0    0 -0.40864731941E+01  0.13883536446E+02 -0.21799094625E+02  0.26165862758E+02  0.00000000000E+00 0. -1.
<mgrwt>
<rscale>  0 0.12451949E+03</rscale>
<asrwt>0</asrwt>
<pdfrwt beam="2">  1        2 0.13443473E-01 0.13348803E+03</pdfrwt>
<pdfrwt beam="1">  1       -2 0.24230035E-01 0.13348803E+03</pdfrwt>
<totfact> 0.63268673E+03</totfact>
</mgrwt>
</event>
<event>
 7    1  0.8712071E-006  0.1478896E+03  0.7546771E-02  0.1212587E+00
         -4   -1    0    0    0  501 -0.00000000000E+00  0.00000000000E+00  0.14142229903E+02  0.14142229903E+02  0.00000000000E+00 0.  1.
          4   -1    0    0  501    0  0.00000000000E+00 -0.00000000000E+00 -0.12748795203E+04  0.12748795203E+04  0.00000000000E+00 0. -1.
         23    2    1    2    0    0 -0.77271066793E+02 -0.16619208894E+02 -0.69811101026E+03  0.71360376070E+03  0.12499731508E+03 0.  0.
          5    1    3    3  502    0  0.24498852152E+02  0.16817805789E+02 -0.29307747492E+03  0.29461759733E+03  0.47000000000E+01 0. -1.
         -5    1    3    3    0  502 -0.10176991895E+03 -0.33437014683E+02 -0.40503353533E+03  0.41898616337E+03  0.47000000000E+01 0. -1.
        -11    1    1    2    0    0  0.21250525332E+02  0.50407520598E+02 -0.22961617231E+03  0.23604255876E+03  0.00000000000E+00 0.  1.
         11    1    1    2    0    0  0.56020541462E+02 -0.33788311704E+02 -0.33301010780E+03  0.33937543071E+03  0.00000000000E+00 0. -1.
<mgrwt>
<rscale>  0 0.14055273E+03</rscale>
<asrwt>0</asrwt>
<pdfrwt beam="2">  1        4 0.19613531E+00 0.14788964E+03</pdfrwt>
<pdfrwt beam="1">  1       -4 0.21757277E-02 0.14788964E+03</pdfrwt>
<totfact> 0.23384198E+02</totfact>
</mgrwt>
</event>
<event>
 7    1  0.8712071E-006  0.1320139E+03  0.7546771E-02  0.1242556E+00
         -2   -1    0    0    0  501 -0.00000000000E+00  0.00000000000E+00  0.32848611400E+02  0.32848611400E+02  0.00000000000E+00 0.  1.
          2   -1    0    0  501    0  0.00000000000E+00 -0.00000000000E+00 -0.42477734663E+03  0.42477734663E+03  0.00000000000E+00 0. -1.
         23    2    1    2    0    0 -0.29237102155E+02  0.20825188201E+02 -0.15396333560E+03  0.20281121332E+03  0.12704008396E+03 0.  0.
          5    1    3    3  502    0  0.10824465077E+02  0.26397146979E+02 -0.15915676949E+03  0.16176200323E+03  0.47000000000E+01 0. -1.
         -5    1    3    3    0  502 -0.40061567232E+02 -0.55719587779E+01  0.51934338892E+01  0.41049210093E+02  0.47000000000E+01 0.  1.
        -11    1    1    2    0    0  0.57281419145E+02 -0.41323153543E+01 -0.13238779139E+03  0.14430788031E+03  0.00000000000E+00 0.  1.
         11    1    1    2    0    0 -0.28044316990E+02 -0.16692872847E+02 -0.10557760824E+03  0.11050686441E+03  0.00000000000E+00 0. -1.
<mgrwt>
<rscale>  0 0.12032874E+03</rscale>
<asrwt>0</asrwt>
<pdfrwt beam="2">  1        2 0.65350364E-01 0.13201394E+03</pdfrwt>
<pdfrwt beam="1">  1       -2 0.50536323E-02 0.13201394E+03</pdfrwt>
<totfact> 0.13569435E+04</totfact>
</mgrwt>
</event>
<event>
 7    1  0.8712071E-006  0.1298992E+03  0.7546771E-02  0.1241810E+00
          1   -1    0    0  501    0  0.00000000000E+00  0.00000000000E+00  0.30548345252E+03  0.30548345252E+03  0.00000000000E+00 0. -1.
         -1   -1    0    0    0  501 -0.00000000000E+00 -0.00000000000E+00 -0.48777467100E+02  0.48777467100E+02  0.00000000000E+00 0.  1.
         23    2    1    2    0    0  0.34580332643E+02  0.73332068553E+01  0.79779594319E+02  0.15244210393E+03  0.12499694417E+03 0.  0.
          5    1    3    3  502    0  0.66103199534E+02  0.36432797757E+02  0.78879711786E+02  0.10927525188E+03  0.47000000000E+01 0. -1.
         -5    1    3    3    0  502 -0.31522866891E+02 -0.29099590902E+02  0.89988253240E+00  0.43166852054E+02  0.47000000000E+01 0. -1.
        -11    1    1    2    0    0 -0.21403673000E+01 -0.23954389778E+02  0.31434466720E+01  0.24254385558E+02  0.00000000000E+00 0.  1.
         11    1    1    2    0    0 -0.32439965343E+02  0.16621182923E+02  0.17378294443E+03  0.17756443013E+03  0.00000000000E+00 0. -1.
<mgrwt>
<rscale>  0 0.12078326E+03</rscale>
<asrwt>0</asrwt>
<pdfrwt beam="1">  1        1 0.46997453E-01 0.12989924E+03</pdfrwt>
<pdfrwt beam="2">  1       -1 0.75042259E-02 0.12989924E+03</pdfrwt>
<totfact> 0.77090482E+03</totfact>
</mgrwt>
</event>
<event>
 7    1  0.8712071E-006  0.1916030E+03  0.7546771E-02  0.1160968E+00
         -2   -1    0    0    0  501 -0.00000000000E+00  0.00000000000E+00  0.45388061569E+02  0.45388061569E+02  0.00000000000E+00 0.  1.
          2   -1    0    0  501    0  0.00000000000E+00 -0.00000000000E+00 -0.76703034501E+03  0.76703034501E+03  0.00000000000E+00 0. -1.
         23    2    1    2    0    0 -0.85978951544E+02  0.11701513092E+03 -0.29966749685E+03  0.35568568203E+03  0.12500709882E+03 0.  0.
          5    1    3    3  502    0  0.44529157507E+01  0.84420118293E+02 -0.82813693872E+02  0.11843471925E+03  0.47000000000E+01 0.  1.
         -5    1    3    3    0  502 -0.90431867294E+02  0.32595012631E+02 -0.21685380298E+03  0.23725096278E+03  0.47000000000E+01 0.  1.
        -11    1    1    2    0    0  0.52056998823E+02 -0.12494669720E+03 -0.28673583999E+03  0.31707893371E+03  0.00000000000E+00 0.  1.
         11    1    1    2    0    0  0.33921952721E+02  0.79315662711E+01 -0.13523894660E+03  0.13965379084E+03  0.00000000000E+00 0. -1.
<mgrwt>
<rscale>  0 0.18724661E+03</rscale>
<asrwt>0</asrwt>
<pdfrwt beam="2">  1        2 0.11800467E+00 0.19160296E+03</pdfrwt>
<pdfrwt beam="1">  1       -2 0.69827786E-02 0.19160296E+03</pdfrwt>
<totfact> 0.43181822E+03</totfact>
</mgrwt>
</event>
<event>
 7    1  0.8712071E-006  0.1380896E+03  0.7546771E-02  0.1228052E+00
          2   -1    0    0  501    0  0.00000000000E+00  0.00000000000E+00  0.73253801952E+02  0.73253801952E+02  0.00000000000E+00 0. -1.
         -2   -1    0    0    0  501 -0.00000000000E+00 -0.00000000000E+00 -0.20788146990E+03  0.20788146990E+03  0.00000000000E+00 0.  1.
         23    2    1    2    0    0  0.55759250775E+02  0.18280769544E+02 -0.91464851558E+02  0.16563376340E+03  0.12500177569E+03 0.  0.
          5    1    3    3  502    0  0.89054930788E+02  0.14788785739E+02 -0.95604904207E+02  0.13157460465E+03  0.47000000000E+01 0.  1.
         -5    1    3    3    0  502 -0.33295680014E+02  0.34919838048E+01  0.41400526487E+01  0.34059158745E+02  0.47000000000E+01 0.  1.
        -11    1    1    2    0    0 -0.46439518530E+01 -0.35398001636E+02 -0.49708141074E+02  0.61200360274E+02  0.00000000000E+00 0.  1.
         11    1    1    2    0    0 -0.51115298922E+02  0.17117232093E+02  0.65453246846E+01  0.54301148179E+02  0.00000000000E+00 0. -1.
<mgrwt>
<rscale>  0 0.12959906E+03</rscale>
<asrwt>0</asrwt>
<pdfrwt beam="1">  1        2 0.11269816E-01 0.13808955E+03</pdfrwt>
<pdfrwt beam="2">  1       -2 0.31981765E-01 0.13808955E+03</pdfrwt>
<totfact> 0.47844021E+03</totfact>
</mgrwt>
</event>
<event>
 7    1  0.8712071E-006  0.1277160E+03  0.7546771E-02  0.1246262E+00
          2   -1    0    0  501    0  0.00000000000E+00  0.00000000000E+00  0.28923124791E+03  0.28923124791E+03  0.00000000000E+00 0. -1.
         -2   -1    0    0    0  501 -0.00000000000E+00 -0.00000000000E+00 -0.42488643759E+02  0.42488643759E+02  0.00000000000E+00 0.  1.
         23    2    1    2    0    0 -0.15017136091E+02 -0.21485501435E+02  0.13029515053E+03  0.18245053936E+03  0.12499692762E+03 0.  0.
          5    1    3    3  502    0  0.19931836793E+02 -0.59072977563E+02  0.29261963739E+02  0.69030770805E+02  0.47000000000E+01 0. -1.
         -5    1    3    3    0  502 -0.34948972884E+02  0.37587476128E+02  0.10103318679E+03  0.11341976856E+03  0.47000000000E+01 0. -1.
        -11    1    1    2    0    0  0.50883776562E+02  0.81910152899E+01  0.45880540278E+02  0.69001995804E+02  0.00000000000E+00 0.  1.
         11    1    1    2    0    0 -0.35866640471E+02  0.13294486145E+02  0.70566913344E+02  0.80267356499E+02  0.00000000000E+00 0. -1.
<mgrwt>
<rscale>  0 0.11810187E+03</rscale>
<asrwt>0</asrwt>
<pdfrwt beam="1">  1        2 0.44497114E-01 0.12771599E+03</pdfrwt>
<pdfrwt beam="2">  1       -2 0.65367146E-02 0.12771599E+03</pdfrwt>
<totfact> 0.13796389E+04</totfact>
</mgrwt>
</event>
<event>
 7    1  0.8712071E-006  0.1328485E+03  0.7546771E-02  0.1237554E+00
         -1   -1    0    0    0  501 -0.00000000000E+00  0.00000000000E+00  0.61826106438E+03  0.61826106438E+03  0.00000000000E+00 0.  1.
          1   -1    0    0  501    0  0.00000000000E+00 -0.00000000000E+00 -0.23147334413E+02  0.23147334413E+02  0.00000000000E+00 0. -1.
         23    2    1    2    0    0  0.44942806365E+02  0.21059805131E+01  0.41690960016E+03  0.43756409362E+03  0.12499772126E+03 0.  0.
          5    1    3    3  502    0 -0.88769576161E+01  0.15403179984E+02  0.35026918932E+03  0.35075155498E+03  0.47000000000E+01 0. -1.
         -5    1    3    3    0  502  0.53819763981E+02 -0.13297199471E+02  0.66640410835E+02  0.86812538639E+02  0.47000000000E+01 0. -1.
        -11    1    1    2    0    0  0.10024048768E+02 -0.28508203853E+02  0.10122408245E+03  0.10563860141E+03  0.00000000000E+00 0. -1.
         11    1    1    2    0    0 -0.54966855133E+02  0.26402223340E+02  0.76980047365E+02  0.98205703769E+02  0.00000000000E+00 0.  1.
<mgrwt>
<rscale>  0 0.12342337E+03</rscale>
<asrwt>0</asrwt>
<pdfrwt beam="2">  1        1 0.35611288E-02 0.13284849E+03</pdfrwt>
<pdfrwt beam="1">  1       -1 0.95117074E-01 0.13284849E+03</pdfrwt>
<totfact> 0.29033223E+03</totfact>
</mgrwt>
</event>
<event>
 7    1  0.8712071E-006  0.1492602E+03  0.7546771E-02  0.1210497E+00
          1   -1    0    0  501    0  0.00000000000E+00  0.00000000000E+00  0.41220566097E+03  0.41220566097E+03  0.00000000000E+00 0. -1.
         -1   -1    0    0    0  501 -0.00000000000E+00 -0.00000000000E+00 -0.73148879686E+02  0.73148879686E+02  0.00000000000E+00 0.  1.
         23    2    1    2    0    0 -0.86830951854E+01  0.81096679202E+02  0.29203937293E+02  0.15209038945E+03  0.12500619621E+03 0.  0.
          5    1    3    3  502    0 -0.22887015702E+02 -0.20546855465E+02 -0.21203516481E+02  0.37651930474E+02  0.47000000000E+01 0. -1.
         -5    1    3    3    0  502  0.14203920517E+02  0.10164353467E+03  0.50407453774E+02  0.11443845898E+03  0.47000000000E+01 0. -1.
        -11    1    1    2    0    0 -0.88201934389E+01 -0.94923233306E+02  0.20524318711E+03  0.22630285436E+03  0.00000000000E+00 0.  1.
         11    1    1    2    0    0  0.17503288624E+02  0.13826554103E+02  0.10460965688E+03  0.10696129685E+03  0.00000000000E+00 0. -1.
<mgrwt>
<rscale>  0 0.14212567E+03</rscale>
<asrwt>0</asrwt>
<pdfrwt beam="1">  1        1 0.63416254E-01 0.14926023E+03</pdfrwt>
<pdfrwt beam="2">  1       -1 0.11253674E-01 0.14926023E+03</pdfrwt>
<totfact> 0.28834635E+03</totfact>
</mgrwt>
</event>
<event>
 7    1  0.8712071E-006  0.1298014E+03  0.7546771E-02  0.1240944E+00
         -2   -1    0    0    0  501 -0.00000000000E+00  0.00000000000E+00  0.23459539267E+02  0.23459539267E+02  0.00000000000E+00 0.  1.
          2   -1    0    0  501    0  0.00000000000E+00 -0.00000000000E+00 -0.55885155838E+03  0.55885155838E+03  0.00000000000E+00 0. -1.
         23    2    1    2    0    0  0.27279404693E+02 -0.21908113934E+02 -0.31435843005E+03  0.34010238074E+03  0.12499710183E+03 0.  0.
          5    1    3    3  502    0  0.62234457867E+02  0.27969504205E+02 -0.17794025993E+03  0.19063118059E+03  0.47000000000E+01 0.  1.
         -5    1    3    3    0  502 -0.34955053174E+02 -0.49877618140E+02 -0.13641817012E+03  0.14947120015E+03  0.47000000000E+01 0.  1.
        -11    1    1    2    0    0 -0.42469514371E+02 -0.22588853737E+02 -0.77947365726E+02  0.91595348068E+02  0.00000000000E+00 0.  1.
         11    1    1    2    0    0  0.15190109678E+02  0.44496967671E+02 -0.14308622333E+03  0.15061336883E+03  0.00000000000E+00 0. -1.
<mgrwt>
<rscale>  0 0.12131482E+03</rscale>
<asrwt>0</asrwt>
<pdfrwt beam="2">  1        2 0.85977161E-01 0.12980141E+03</pdfrwt>
<pdfrwt beam="1">  1       -2 0.36091600E-02 0.12980141E+03</pdfrwt>
<totfact> 0.16573534E+04</totfact>
</mgrwt>
</event>
<event>
 7    1  0.8712071E-006  0.1517238E+03  0.7546771E-02  0.1207514E+00
          2   -1    0    0  501    0  0.00000000000E+00  0.00000000000E+00  0.57471296803E+03  0.57471296803E+03  0.00000000000E+00 0.  1.
         -2   -1    0    0    0  501 -0.00000000000E+00 -0.00000000000E+00 -0.38892625346E+02  0.38892625346E+02  0.00000000000E+00 0. -1.
         23    2    1    2    0    0  0.38582014122E+02  0.76857743862E+02  0.17348737195E+03  0.23047337047E+03  0.12499768662E+03 0.  0.
          5    1    3    3  502    0 -0.27807899927E+02  0.18324893486E+02  0.12499769645E+03  0.12944340515E+03  0.47000000000E+01 0.  1.
         -5    1    3    3    0  502  0.66389914049E+02  0.58532850377E+02  0.48489675499E+02  0.10102996531E+03  0.47000000000E+01 0.  1.
        -11    1    1    2    0    0 -0.51570581263E+02 -0.19561754049E+02  0.25374264281E+03  0.25966808786E+03  0.00000000000E+00 0.  1.
         11    1    1    2    0    0  0.12988567141E+02 -0.57295989814E+02  0.10859032792E+03  0.12346413505E+03  0.00000000000E+00 0. -1.
<mgrwt>
<rscale>  0 0.14441079E+03</rscale>
<asrwt>0</asrwt>
<pdfrwt beam="1">  1        2 0.88417374E-01 0.15172378E+03</pdfrwt>
<pdfrwt beam="2">  1       -2 0.59834812E-02 0.15172378E+03</pdfrwt>
<totfact> 0.76129359E+03</totfact>
</mgrwt>
</event>
<event>
 7    1  0.8712071E-006  0.1392951E+03  0.7546771E-02  0.1230067E+00
         -2   -1    0    0    0  501 -0.00000000000E+00  0.00000000000E+00  0.34103544339E+02  0.34103544339E+02  0.00000000000E+00 0.  1.
          2   -1    0    0  501    0  0.00000000000E+00 -0.00000000000E+00 -0.53238874122E+03  0.53238874122E+03  0.00000000000E+00 0. -1.
         23    2    1    2    0    0  0.58965719010E+02 -0.17346330335E+02 -0.15266249046E+03  0.20666148942E+03  0.12500113608E+03 0.  0.
          5    1    3    3  502    0  0.43869340295E+02  0.41245989999E+02 -0.25113111176E+02  0.65410313115E+02  0.47000000000E+01 0.  1.
         -5    1    3    3    0  502  0.15096378714E+02 -0.58592320333E+02 -0.12754937928E+03  0.14125117630E+03  0.47000000000E+01 0.  1.
        -11    1    1    2    0    0 -0.19142470682E+02 -0.30170306625E+02 -0.90865758979E+02  0.97638454209E+02  0.00000000000E+00 0. -1.
         11    1    1    2    0    0 -0.39823248328E+02  0.47516636959E+02 -0.25475694745E+03  0.26219234193E+03  0.00000000000E+00 0.  1.
<mgrwt>
<rscale>  0 0.12825594E+03</rscale>
<asrwt>0</asrwt>
<pdfrwt beam="2">  1        2 0.81905955E-01 0.13929514E+03</pdfrwt>
<pdfrwt beam="1">  1       -2 0.52466994E-02 0.13929514E+03</pdfrwt>
<totfact> 0.10065079E+04</totfact>
</mgrwt>
</event>
<event>
 7    1  0.8712071E-006  0.1604626E+03  0.7546771E-02  0.1195718E+00
          1   -1    0    0  501    0  0.00000000000E+00  0.00000000000E+00  0.23647046175E+03  0.23647046175E+03  0.00000000000E+00 0. -1.
         -1   -1    0    0    0  501 -0.00000000000E+00 -0.00000000000E+00 -0.94570974066E+02  0.94570974066E+02  0.00000000000E+00 0.  1.
         23    2    1    2    0    0 -0.77505740804E+02 -0.64153071118E+02  0.54535238214E+02  0.16947668373E+03  0.12500199091E+03 0.  0.
          5    1    3    3  502    0  0.27240446485E+02  0.11069511799E+02  0.10717816370E+01  0.29796220097E+02  0.47000000000E+01 0.  1.
         -5    1    3    3    0  502 -0.10474618729E+03 -0.75222582917E+02  0.53463456577E+02  0.13968046364E+03  0.47000000000E+01 0.  1.
        -11    1    1    2    0    0  0.49771146921E+02  0.58612660750E+02  0.79963158571E+01  0.77308163433E+02  0.00000000000E+00 0. -1.
         11    1    1    2    0    0  0.27734593882E+02  0.55404103675E+01  0.79367933610E+02  0.84256588646E+02  0.00000000000E+00 0.  1.
<mgrwt>
<rscale>  0 0.15393618E+03</rscale>
<asrwt>0</asrwt>
<pdfrwt beam="1">  1        1 0.36380071E-01 0.16046263E+03</pdfrwt>
<pdfrwt beam="2">  1       -1 0.14549381E-01 0.16046263E+03</pdfrwt>
<totfact> 0.38836506E+03</totfact>
</mgrwt>
</event>
<event>
 6    1  0.8712071E-006  0.1635946E+03  0.7546771E-02  0.1206556E+00
         -1   -1    0    0    0  501 -0.00000000000E+00  0.00000000000E+00  0.83954919495E+03  0.83954919495E+03  0.00000000000E+00 0.  1.
          1   -1    0    0  501    0  0.00000000000E+00 -0.00000000000E+00 -0.50265361531E+03  0.50265361531E+03  0.00000000000E+00 0. -1.
          5    1    1    2  502    0  0.32029630134E+02 -0.11805548783E+02  0.35409378152E+02  0.49408321665E+02  0.47000000000E+01 0. -1.
         -5    1    1    2    0  502 -0.54551930685E+02 -0.15234627450E+02  0.79092438827E+03  0.79296373497E+03  0.47000000000E+01 0.  1.
        -11    1    1    2    0    0 -0.31627235657E+02 -0.11629632172E+02 -0.13072482022E+03  0.13499818147E+03  0.00000000000E+00 0.  1.
         11    1    1    2    0    0  0.54149536208E+02  0.38669808406E+02 -0.35871336656E+03  0.36483257215E+03  0.00000000000E+00 0. -1.
<mgrwt>
<rscale>  0 0.14515478E+03</rscale>
<asrwt>0</asrwt>
<pdfrwt beam="2">  1        1 0.77331326E-01 0.16359459E+03</pdfrwt>
<pdfrwt beam="1">  1       -1 0.12916141E+00 0.16359459E+03</pdfrwt>
<totfact> 0.26206053E+01</totfact>
</mgrwt>
</event>
<event>
 7    1  0.8712071E-006  0.1732393E+03  0.7546771E-02  0.1180579E+00
         -4   -1    0    0    0  501 -0.00000000000E+00  0.00000000000E+00  0.62774180844E+02  0.62774180844E+02  0.00000000000E+00 0. -1.
          4   -1    0    0  501    0  0.00000000000E+00 -0.00000000000E+00 -0.43881718609E+03  0.43881718609E+03  0.00000000000E+00 0.  1.
         23    2    1    2    0    0 -0.63718047542E+01  0.11980227697E+03 -0.14691457770E+03  0.22714698112E+03  0.12497468714E+03 0.  0.
          5    1    3    3  502    0  0.92730927000E+01 -0.24963049098E+02 -0.29669072275E+02  0.40143342140E+02  0.47000000000E+01 0.  1.
         -5    1    3    3    0  502 -0.15644897454E+02  0.14476532607E+03 -0.11724550542E+03  0.18700363898E+03  0.47000000000E+01 0.  1.
        -11    1    1    2    0    0 -0.39660409813E+02 -0.47013208545E+02 -0.67626341801E+02  0.91413959490E+02  0.00000000000E+00 0. -1.
         11    1    1    2    0    0  0.46032214567E+02 -0.72789068428E+02 -0.16150208575E+03  0.18303042633E+03  0.00000000000E+00 0.  1.
<mgrwt>
<rscale>  0 0.16740715E+03</rscale>
<asrwt>0</asrwt>
<pdfrwt beam="2">  1        4 0.67510338E-01 0.17323931E+03</pdfrwt>
<pdfrwt beam="1">  1       -4 0.96575661E-02 0.17323931E+03</pdfrwt>
<totfact> 0.28857277E+02</totfact>
</mgrwt>
</event>
<event>
 7    1  0.8712071E-006  0.1491889E+03  0.7546771E-02  0.1210981E+00
          2   -1    0    0  501    0  0.00000000000E+00  0.00000000000E+00  0.33857856401E+02  0.33857856401E+02  0.00000000000E+00 0. -1.
         -2   -1    0    0    0  501 -0.00000000000E+00 -0.00000000000E+00 -0.78072759805E+03  0.78072759805E+03  0.00000000000E+00 0.  1.
         23    2    1    2    0    0  0.81118879152E+02  0.72657374736E+01 -0.62444627251E+03  0.64202060994E+03  0.12499701133E+03 0.  0.
          5    1    3    3  502    0  0.96138387866E+02  0.33934471206E+02 -0.31712882172E+03  0.33314699087E+03  0.47000000000E+01 0.  1.
         -5    1    3    3    0  502 -0.15019508714E+02 -0.26668733733E+02 -0.30731745079E+03  0.30887361907E+03  0.47000000000E+01 0.  1.
        -11    1    1    2    0    0 -0.71413286988E+02  0.12717171979E+02 -0.13018795742E+03  0.14903183646E+03  0.00000000000E+00 0.  1.
         11    1    1    2    0    0 -0.97055921641E+01 -0.19982909453E+02  0.77644882832E+01  0.23533008047E+02  0.00000000000E+00 0. -1.
<mgrwt>
<rscale>  0 0.14175958E+03</rscale>
<asrwt>0</asrwt>
<pdfrwt beam="1">  1        2 0.52089008E-02 0.14918886E+03</pdfrwt>
<pdfrwt beam="2">  1       -2 0.12011194E+00 0.14918886E+03</pdfrwt>
<totfact> 0.80653312E+02</totfact>
</mgrwt>
</event>
<event>
 7    1  0.8712071E-006  0.1779810E+03  0.7546771E-02  0.1176669E+00
         -1   -1    0    0    0  501 -0.00000000000E+00  0.00000000000E+00  0.93019684250E+02  0.93019684250E+02  0.00000000000E+00 0.  1.
          1   -1    0    0  501    0  0.00000000000E+00 -0.00000000000E+00 -0.29340506425E+03  0.29340506425E+03  0.00000000000E+00 0. -1.
         23    2    1    2    0    0  0.36354545960E+02 -0.12136306697E+03 -0.99942813457E+02  0.20412205676E+03  0.12500640407E+03 0.  0.
          5    1    3    3  502    0 -0.64495508677E+01  0.14843476569E+02  0.13590017167E+02  0.21649574352E+02  0.47000000000E+01 0. -1.
         -5    1    3    3    0  502  0.42804096828E+02 -0.13620654354E+03 -0.11353283062E+03  0.18247248241E+03  0.47000000000E+01 0. -1.
        -11    1    1    2    0    0 -0.12326832143E+02  0.97367326198E+02 -0.27627914592E+02  0.10195905387E+03  0.00000000000E+00 0.  1.
         11    1    1    2    0    0 -0.24027713817E+02  0.23995740772E+02 -0.72814651948E+02  0.80343637861E+02  0.00000000000E+00 0. -1.
<mgrwt>
<rscale>  0 0.17113497E+03</rscale>
<asrwt>0</asrwt>
<pdfrwt beam="2">  1        1 0.45139241E-01 0.17798103E+03</pdfrwt>
<pdfrwt beam="1">  1       -1 0.14310721E-01 0.17798103E+03</pdfrwt>
<totfact> 0.30611526E+03</totfact>
</mgrwt>
</event>
<event>
 7    1  0.8712071E-006  0.1268346E+03  0.7546771E-02  0.1247287E+00
          1   -1    0    0  501    0  0.00000000000E+00  0.00000000000E+00  0.24398984513E+03  0.24398984513E+03  0.00000000000E+00 0. -1.
         -1   -1    0    0    0  501 -0.00000000000E+00 -0.00000000000E+00 -0.54632714189E+02  0.54632714189E+02  0.00000000000E+00 0.  1.
         23    2    1    2    0    0  0.21097102113E+01 -0.21405357637E+02  0.63360667438E+02  0.14178005880E+03  0.12499748271E+03 0.  0.
          5    1    3    3  502    0 -0.42521280690E+02  0.32584647879E+01 -0.17280558716E+02  0.46253482180E+02  0.47000000000E+01 0.  1.
         -5    1    3    3    0  502  0.44630990901E+02 -0.24663822425E+02  0.80641226154E+02  0.95526576622E+02  0.47000000000E+01 0.  1.
        -11    1    1    2    0    0  0.41157703430E+02  0.20199381570E+02  0.41207729353E+02  0.61644533626E+02  0.00000000000E+00 0. -1.
         11    1    1    2    0    0 -0.43267413642E+02  0.12059760667E+01  0.84788734150E+02  0.95197966891E+02  0.00000000000E+00 0.  1.
<mgrwt>
<rscale>  0 0.11749532E+03</rscale>
<asrwt>0</asrwt>
<pdfrwt beam="1">  1        1 0.37536899E-01 0.12683458E+03</pdfrwt>
<pdfrwt beam="2">  1       -1 0.84050330E-02 0.12683458E+03</pdfrwt>
<totfact> 0.85619627E+03</totfact>
</mgrwt>
</event>
<event>
 7    1  0.8712071E-006  0.2022965E+03  0.7546771E-02  0.1152287E+00
          2   -1    0    0  501    0  0.00000000000E+00  0.00000000000E+00  0.48595707651E+03  0.48595707651E+03  0.00000000000E+00 0. -1.
         -2   -1    0    0    0  501 -0.00000000000E+00 -0.00000000000E+00 -0.76034460589E+02  0.76034460589E+02  0.00000000000E+00 0.  1.
         23    2    1    2    0    0 -0.88004121611E+00  0.15905568047E+03  0.22453591888E+03  0.30222547671E+03  0.12499750374E+03 0.  0.
          5    1    3    3  502    0 -0.45430561321E+01 -0.99403578442E+01  0.76688190625E+02  0.77605532370E+02  0.47000000000E+01 0. -1.
         -5    1    3    3    0  502  0.36630149160E+01  0.16899603831E+03  0.14784772825E+03  0.22461994434E+03  0.47000000000E+01 0. -1.
        -11    1    1    2    0    0 -0.30111583059E+02 -0.33010532899E+02  0.18536926337E+02  0.48373756880E+02  0.00000000000E+00 0.  1.
         11    1    1    2    0    0  0.30991624275E+02 -0.12604514757E+03  0.16684977071E+03  0.21139230352E+03  0.00000000000E+00 0. -1.
<mgrwt>
<rscale>  0 0.19700916E+03</rscale>
<asrwt>0</asrwt>
<pdfrwt beam="1">  1        2 0.74762625E-01 0.20229647E+03</pdfrwt>
<pdfrwt beam="2">  1       -2 0.11697610E-01 0.20229647E+03</pdfrwt>
<totfact> 0.32691445E+03</totfact>
</mgrwt>
</event>
<event>
 7    1  0.1554861E-005  0.1268942E+03  0.7546771E-02  0.1263574E+00
         -1   -1    0    0    0  501 -0.00000000000E+00  0.00000000000E+00  0.28989573079E+03  0.28989573079E+03  0.00000000000E+00 0.  1.
          1   -1    0    0  501    0  0.00000000000E+00 -0.00000000000E+00 -0.33934560571E+02  0.33934560571E+02  0.00000000000E+00 0. -1.
         23    2    1    2    0    0  0.49429079390E+01 -0.21261188669E+02  0.19604438483E+03  0.23352847159E+03  0.12500270291E+03 0.  0.
          5    1    3    3  502    0 -0.46203792770E+02  0.29201282094E+02  0.87328263244E+02  0.10313011638E+03  0.47000000000E+01 0. -1.
         -5    1    3    3    0  502  0.51146700709E+02 -0.50462470763E+02  0.10871612159E+03  0.13039835521E+03  0.47000000000E+01 0. -1.
        -11    1    1    2    0    0 -0.11782844170E+02  0.29344595902E+01 -0.11214909328E+02  0.16529387800E+02  0.00000000000E+00 0. -1.
         11    1    1    2    0    0  0.68399362306E+01  0.18326729079E+02  0.71131694717E+02  0.73772431976E+02  0.00000000000E+00 0.  1.
<mgrwt>
<rscale>  0 0.10839378E+03</rscale>
<asrwt>0</asrwt>
<pdfrwt beam="2">  1        1 0.52207018E-02 0.12689423E+03</pdfrwt>
<pdfrwt beam="1">  1       -1 0.44599342E-01 0.12689423E+03</pdfrwt>
<totfact> 0.74815231E+03</totfact>
</mgrwt>
</event>
<event>
 7    1  0.8712071E-006  0.2475219E+03  0.7546771E-02  0.1117358E+00
          1   -1    0    0  501    0  0.00000000000E+00  0.00000000000E+00  0.70053351525E+03  0.70053351525E+03  0.00000000000E+00 0. -1.
         -1   -1    0    0    0  501 -0.00000000000E+00 -0.00000000000E+00 -0.85320959109E+02  0.85320959109E+02  0.00000000000E+00 0.  1.
         23    2    1    2    0    0  0.11457805128E+03 -0.18032017677E+03  0.24232837767E+03  0.34639591011E+03  0.12499435159E+03 0.  0.
          5    1    3    3  502    0  0.20322707638E+02 -0.93947336052E+02  0.34274272569E+02  0.10215640047E+03  0.47000000000E+01 0. -1.
         -5    1    3    3    0  502  0.94255343645E+02 -0.86372840717E+02  0.20805410510E+03  0.24423950964E+03  0.47000000000E+01 0. -1.
        -11    1    1    2    0    0 -0.94401743595E+02  0.82336732694E+02  0.15191569391E+03  0.19689947893E+03  0.00000000000E+00 0.  1.
         11    1    1    2    0    0 -0.20176307688E+02  0.97983444075E+02  0.22096848456E+03  0.24255908532E+03  0.00000000000E+00 0. -1.
<mgrwt>
<rscale>  0 0.24369185E+03</rscale>
<asrwt>0</asrwt>
<pdfrwt beam="1">  1        1 0.10777438E+00 0.24752189E+03</pdfrwt>
<pdfrwt beam="2">  1       -1 0.13126302E-01 0.24752189E+03</pdfrwt>
<totfact> 0.11207116E+03</totfact>
</mgrwt>
</event>
<event>
 7    1  0.8712071E-006  0.1365579E+03  0.7546771E-02  0.1229839E+00
          3   -1    0    0  501    0  0.00000000000E+00  0.00000000000E+00  0.11773733735E+03  0.11773733735E+03  0.00000000000E+00 0. -1.
         -3   -1    0    0    0  501 -0.00000000000E+00 -0.00000000000E+00 -0.13262631732E+03  0.13262631732E+03  0.00000000000E+00 0.  1.
         23    2    1    2    0    0  0.51680064915E+02 -0.18848095695E+02 -0.36692515057E+02  0.14140154165E+03  0.12498790141E+03 0.  0.
          5    1    3    3  502    0  0.77467493401E+02 -0.16654997827E+02  0.17391923918E+02  0.81259894807E+02  0.47000000000E+01 0. -1.
         -5    1    3    3    0  502 -0.25787428486E+02 -0.21930978683E+01 -0.54084438976E+02  0.60141646847E+02  0.47000000000E+01 0. -1.
        -11    1    1    2    0    0 -0.33211560499E+02  0.53889129386E+02 -0.89832161971E+00  0.63307606167E+02  0.00000000000E+00 0.  1.
         11    1    1    2    0    0 -0.18468504416E+02 -0.35041033692E+02  0.22701856712E+02  0.45654506850E+02  0.00000000000E+00 0. -1.
<mgrwt>
<rscale>  0 0.12840681E+03</rscale>
<asrwt>0</asrwt>
<pdfrwt beam="1">  1        3 0.18113437E-01 0.13655788E+03</pdfrwt>
<pdfrwt beam="2">  1       -3 0.20404049E-01 0.13655788E+03</pdfrwt>
<totfact> 0.13331239E+03</totfact>
</mgrwt>
</event>
<event>
 7    1  0.8712071E-006  0.1703026E+03  0.7546771E-02  0.1179159E+00
         -2   -1    0    0    0  501 -0.00000000000E+00  0.00000000000E+00  0.30622140414E+02  0.30622140414E+02  0.00000000000E+00 0.  1.
          2   -1    0    0  501    0  0.00000000000E+00 -0.00000000000E+00 -0.11061047395E+04  0.11061047395E+04  0.00000000000E+00 0. -1.
         23    2    1    2    0    0  0.10273067522E+03  0.27822329519E+02 -0.29236301702E+03  0.33530360535E+03  0.12499880156E+03 0.  0.
          5    1    3    3  502    0  0.11052901229E+03  0.54576418428E+02 -0.17197506271E+03  0.21164300178E+03  0.47000000000E+01 0.  1.
         -5    1    3    3    0  502 -0.77983370741E+01 -0.26754088909E+02 -0.12038795431E+03  0.12366060357E+03  0.47000000000E+01 0.  1.
        -11    1    1    2    0    0 -0.13214505890E+03 -0.28068035049E+02 -0.70753600120E+03  0.72031751622E+03  0.00000000000E+00 0. -1.
         11    1    1    2    0    0  0.29414383688E+02  0.24570552988E+00 -0.75583580867E+02  0.81105758338E+02  0.00000000000E+00 0.  1.
<mgrwt>
<rscale>  0 0.16874878E+03</rscale>
<asrwt>0</asrwt>
<pdfrwt beam="2">  1        2 0.17016997E+00 0.17030263E+03</pdfrwt>
<pdfrwt beam="1">  1       -2 0.47110982E-02 0.17030263E+03</pdfrwt>
<totfact> 0.47916119E+03</totfact>
</mgrwt>
</event>
<event>
 7    1  0.8712071E-006  0.1262809E+03  0.7546771E-02  0.1249377E+00
         -3   -1    0    0    0  501 -0.00000000000E+00  0.00000000000E+00  0.13412023973E+02  0.13412023973E+02  0.00000000000E+00 0.  1.
          3   -1    0    0  501    0  0.00000000000E+00 -0.00000000000E+00 -0.89762943158E+03  0.89762943158E+03  0.00000000000E+00 0. -1.
         23    2    1    2    0    0  0.42228518488E-01 -0.17933972670E+02 -0.44651668515E+03  0.46403019734E+03  0.12500097907E+03 0.  0.
          5    1    3    3  502    0 -0.28540109499E+02 -0.59474137797E+01 -0.42496147246E+03  0.42598621182E+03  0.47000000000E+01 0.  1.
         -5    1    3    3    0  502  0.28582338018E+02 -0.11986558890E+02 -0.21555212685E+02  0.38043985523E+02  0.47000000000E+01 0.  1.
        -11    1    1    2    0    0 -0.24572682215E+02 -0.28126731220E+02 -0.21965322561E+03  0.22280590037E+03  0.00000000000E+00 0. -1.
         11    1    1    2    0    0  0.24530453696E+02  0.46060703889E+02 -0.21804749685E+03  0.22420535784E+03  0.00000000000E+00 0.  1.
<mgrwt>
<rscale>  0 0.11627207E+03</rscale>
<asrwt>0</asrwt>
<pdfrwt beam="2">  1        3 0.13809682E+00 0.12628093E+03</pdfrwt>
<pdfrwt beam="1">  1       -3 0.20633885E-02 0.12628093E+03</pdfrwt>
<totfact> 0.87840259E+02</totfact>
</mgrwt>
</event>
<event>
 7    1  0.8712071E-006  0.1672863E+03  0.7546771E-02  0.1187132E+00
          1   -1    0    0  501    0  0.00000000000E+00  0.00000000000E+00  0.14213565409E+03  0.14213565409E+03  0.00000000000E+00 0. -1.
         -1   -1    0    0    0  501 -0.00000000000E+00 -0.00000000000E+00 -0.27929231612E+03  0.27929231612E+03  0.00000000000E+00 0.  1.
         23    2    1    2    0    0 -0.11004447336E+03  0.15778147344E+02 -0.20231836253E+03  0.26252125689E+03  0.12500381774E+03 0.  0.
          5    1    3    3  502    0 -0.49579987025E+02 -0.54392625967E+02 -0.10239208480E+03  0.12618621914E+03  0.47000000000E+01 0. -1.
         -5    1    3    3    0  502 -0.60464486334E+02  0.70170773311E+02 -0.99926277734E+02  0.13633503774E+03  0.47000000000E+01 0. -1.
        -11    1    1    2    0    0  0.83027610242E+02 -0.46525557222E+02  0.69352118799E+02  0.11776216676E+03  0.00000000000E+00 0. -1.
         11    1    1    2    0    0  0.27016863118E+02  0.30747409879E+02 -0.41904182956E+01  0.41144546570E+02  0.00000000000E+00 0.  1.
<mgrwt>
<rscale>  0 0.16139359E+03</rscale>
<asrwt>0</asrwt>
<pdfrwt beam="1">  1        1 0.21867024E-01 0.16728625E+03</pdfrwt>
<pdfrwt beam="2">  1       -1 0.42968048E-01 0.16728625E+03</pdfrwt>
<totfact> 0.12220941E+03</totfact>
</mgrwt>
</event>
<event>
 7    1  0.8712071E-006  0.1527165E+03  0.7546771E-02  0.1206161E+00
         -1   -1    0    0    0  501 -0.00000000000E+00  0.00000000000E+00  0.39113289825E+03  0.39113289825E+03  0.00000000000E+00 0.  1.
          1   -1    0    0  501    0  0.00000000000E+00 -0.00000000000E+00 -0.18056973279E+03  0.18056973279E+03  0.00000000000E+00 0. -1.
         23    2    1    2    0    0 -0.81965768219E+02  0.31240083542E+02  0.35126452700E+03  0.38302624644E+03  0.12501202963E+03 0.  0.
          5    1    3    3  502    0  0.31127353597E+01 -0.35517585381E+02  0.15266127162E+03  0.15683986051E+03  0.47000000000E+01 0.  1.
         -5    1    3    3    0  502 -0.85078503578E+02  0.66757668923E+02  0.19860325538E+03  0.22618638593E+03  0.47000000000E+01 0.  1.
        -11    1    1    2    0    0  0.67029382474E+00  0.26156082678E+02 -0.27757737816E+02  0.38145536613E+02  0.00000000000E+00 0. -1.
         11    1    1    2    0    0  0.81295474394E+02 -0.57396166220E+02 -0.11294362373E+03  0.15053084798E+03  0.00000000000E+00 0.  1.
<mgrwt>
<rscale>  0 0.14546322E+03</rscale>
<asrwt>0</asrwt>
<pdfrwt beam="2">  1        1 0.27779959E-01 0.15271653E+03</pdfrwt>
<pdfrwt beam="1">  1       -1 0.60174292E-01 0.15271653E+03</pdfrwt>
<totfact> 0.48549603E+02</totfact>
</mgrwt>
</event>
<event>
 6    1  0.8712071E-006  0.2207537E+03  0.7546771E-02  0.1138565E+00
         -2   -1    0    0    0  501 -0.00000000000E+00  0.00000000000E+00  0.73743276721E+02  0.73743276721E+02  0.00000000000E+00 0.  1.
          2   -1    0    0  501    0  0.00000000000E+00 -0.00000000000E+00 -0.61789991812E+03  0.61789991812E+03  0.00000000000E+00 0. -1.
          5    1    1    2  502    0  0.12643539123E+02 -0.35821095821E+02 -0.13711198889E+03  0.14235447828E+03  0.47000000000E+01 0. -1.
         -5    1    1    2    0  502  0.13957792153E+03 -0.36876211722E+02 -0.70670195213E+02  0.16080490558E+03  0.47000000000E+01 0.  1.
        -11    1    1    2    0    0 -0.94502090408E+02  0.60149943350E+02 -0.11986571060E+03  0.16406233375E+03  0.00000000000E+00 0.  1.
         11    1    1    2    0    0 -0.57719370242E+02  0.12547364192E+02 -0.21650874669E+03  0.22442147723E+03  0.00000000000E+00 0. -1.
<mgrwt>
<rscale>  0 0.21383413E+03</rscale>
<asrwt>0</asrwt>
<pdfrwt beam="2">  1        2 0.95061526E-01 0.22075365E+03</pdfrwt>
<pdfrwt beam="1">  1       -2 0.11345120E-01 0.22075365E+03</pdfrwt>
<totfact> 0.26206132E+03</totfact>
</mgrwt>
</event>
<event>
 6    1  0.8712071E-006  0.2129248E+03  0.7546771E-02  0.1144957E+00
         -1   -1    0    0    0  501 -0.00000000000E+00  0.00000000000E+00  0.94931604209E+02  0.94931604209E+02  0.00000000000E+00 0.  1.
          1   -1    0    0  501    0  0.00000000000E+00 -0.00000000000E+00 -0.57966792601E+03  0.57966792601E+03  0.00000000000E+00 0. -1.
          5    1    1    2  502    0 -0.23312015643E+02 -0.34947659510E+02 -0.16358730154E+02  0.45326449572E+02  0.47000000000E+01 0. -1.
         -5    1    1    2    0  502 -0.10490890978E+03  0.13449557713E+03 -0.60404375643E+02  0.18101303327E+03  0.47000000000E+01 0.  1.
        -11    1    1    2    0    0  0.46177125954E+01 -0.39150115351E+02 -0.15892979687E+03  0.16374594692E+03  0.00000000000E+00 0.  1.
         11    1    1    2    0    0  0.12360321282E+03 -0.60397802271E+02 -0.24904341913E+03  0.28451410045E+03  0.00000000000E+00 0. -1.
<mgrwt>
<rscale>  0 0.20577336E+03</rscale>
<asrwt>0</asrwt>
<pdfrwt beam="2">  1        1 0.89179682E-01 0.21292484E+03</pdfrwt>
<pdfrwt beam="1">  1       -1 0.14604862E-01 0.21292484E+03</pdfrwt>
<totfact> 0.12367739E+03</totfact>
</mgrwt>
</event>
<event>
 7    1  0.8712071E-006  0.1349763E+03  0.7546771E-02  0.1233051E+00
         -2   -1    0    0    0  501 -0.00000000000E+00  0.00000000000E+00  0.38496595221E+02  0.38496595221E+02  0.00000000000E+00 0.  1.
          2   -1    0    0  501    0  0.00000000000E+00 -0.00000000000E+00 -0.37561801796E+03  0.37561801796E+03  0.00000000000E+00 0. -1.
         23    2    1    2    0    0 -0.42157323077E+02  0.28597199609E+02 -0.16373548146E+03  0.21219777662E+03  0.12499419506E+03 0.  0.
          5    1    3    3  502    0  0.41403666894E+01  0.13984966138E+02  0.18226359320E+02  0.23812015627E+02  0.47000000000E+01 0. -1.
         -5    1    3    3    0  502 -0.46297689766E+02  0.14612233471E+02 -0.18196184078E+03  0.18838576099E+03  0.47000000000E+01 0. -1.
        -11    1    1    2    0    0  0.58851235527E+02 -0.34487237001E+02 -0.17093883260E+03  0.18404597776E+03  0.00000000000E+00 0. -1.
         11    1    1    2    0    0 -0.16693912450E+02  0.58900373926E+01 -0.24471086763E+01  0.17870858800E+02  0.00000000000E+00 0.  1.
<mgrwt>
<rscale>  0 0.12630053E+03</rscale>
<asrwt>0</asrwt>
<pdfrwt beam="2">  1        2 0.57787387E-01 0.13497625E+03</pdfrwt>
<pdfrwt beam="1">  1       -2 0.59225531E-02 0.13497625E+03</pdfrwt>
<totfact> 0.12203146E+04</totfact>
</mgrwt>
</event>
<event>
 7    1  0.8712071E-006  0.1340629E+03  0.7546771E-02  0.1231182E+00
          2   -1    0    0  501    0  0.00000000000E+00  0.00000000000E+00  0.55164786088E+03  0.55164786088E+03  0.00000000000E+00 0. -1.
         -2   -1    0    0    0  501 -0.00000000000E+00 -0.00000000000E+00 -0.29178967480E+02  0.29178967480E+02  0.00000000000E+00 0.  1.
         23    2    1    2    0    0  0.45922031175E+02  0.39759152003E+02  0.20519236158E+03  0.24510561781E+03  0.11951249106E+03 0.  0.
          5    1    3    3  502    0  0.24624046517E+02  0.70502761446E+02  0.19046526107E+03  0.20463647943E+03  0.47000000000E+01 0. -1.
         -5    1    3    3    0  502  0.21297984658E+02 -0.30743609442E+02  0.14727100504E+02  0.40469138381E+02  0.47000000000E+01 0.  1.
        -11    1    1    2    0    0 -0.32838348638E+02 -0.66099519801E+02  0.27115283341E+03  0.28101843841E+03  0.00000000000E+00 0.  1.
         11    1    1    2    0    0 -0.13083682537E+02  0.26340367798E+02  0.46123698408E+02  0.54702772136E+02  0.00000000000E+00 0. -1.
<mgrwt>
<rscale>  0 0.12752029E+03</rscale>
<asrwt>0</asrwt>
<pdfrwt beam="1">  1        2 0.84868894E-01 0.13406289E+03</pdfrwt>
<pdfrwt beam="2">  1       -2 0.44890723E-02 0.13406289E+03</pdfrwt>
<totfact> 0.12191300E+04</totfact>
</mgrwt>
</event>
<event>
 7    1  0.8712071E-006  0.1429198E+03  0.7546771E-02  0.1218004E+00
         -1   -1    0    0    0  501 -0.00000000000E+00  0.00000000000E+00  0.18241770432E+03  0.18241770432E+03  0.00000000000E+00 0.  1.
          1   -1    0    0  501    0  0.00000000000E+00 -0.00000000000E+00 -0.10963736313E+03  0.10963736313E+03  0.00000000000E+00 0. -1.
         23    2    1    2    0    0  0.59314030261E+02 -0.35835803562E+02  0.93883085306E+02  0.17099736719E+03  0.12499482739E+03 0.  0.
          5    1    3    3  502    0 -0.58015789974E+01 -0.43336714621E+02 -0.12710440806E+02  0.45775260332E+02  0.47000000000E+01 0. -1.
         -5    1    3    3    0  502  0.65115609259E+02  0.75009110583E+01  0.10659352611E+03  0.12522210685E+03  0.47000000000E+01 0. -1.
        -11    1    1    2    0    0 -0.50610050330E+02  0.49317895723E+02  0.22849095710E+02  0.74267847739E+02  0.00000000000E+00 0.  1.
         11    1    1    2    0    0 -0.87039799312E+01 -0.13482092161E+02 -0.43951839823E+02  0.46789852527E+02  0.00000000000E+00 0. -1.
<mgrwt>
<rscale>  0 0.13658159E+03</rscale>
<asrwt>0</asrwt>
<pdfrwt beam="2">  1        1 0.16867287E-01 0.14291979E+03</pdfrwt>
<pdfrwt beam="1">  1       -1 0.28064262E-01 0.14291979E+03</pdfrwt>
<totfact> 0.35255693E+03</totfact>
</mgrwt>
</event>
<event>
 7    1  0.8712071E-006  0.1250980E+03  0.7546771E-02  0.1253147E+00
         -1   -1    0    0    0  501 -0.00000000000E+00  0.00000000000E+00  0.53275156264E+02  0.53275156264E+02  0.00000000000E+00 0.  1.
          1   -1    0    0  501    0  0.00000000000E+00 -0.00000000000E+00 -0.23088455215E+03  0.23088455215E+03  0.00000000000E+00 0. -1.
         23    2    1    2    0    0 -0.57100375642E+00  0.50251546451E+01 -0.61737042600E+02  0.13950259264E+03  0.12499573072E+03 0.  0.
          5    1    3    3  502    0 -0.21988298796E+02  0.51372094620E+02 -0.67673001849E+02  0.87888011520E+02  0.47000000000E+01 0. -1.
         -5    1    3    3    0  502  0.21417295040E+02 -0.46346939975E+02  0.59359592494E+01  0.51614581118E+02  0.47000000000E+01 0. -1.
        -11    1    1    2    0    0 -0.36602215854E+01  0.36101855798E+02 -0.22905690167E+02  0.42911675056E+02  0.00000000000E+00 0.  1.
         11    1    1    2    0    0  0.42312253418E+01 -0.41127010443E+02 -0.92966663117E+02  0.10174544072E+03  0.00000000000E+00 0. -1.
<mgrwt>
<rscale>  0 0.11410777E+03</rscale>
<asrwt>0</asrwt>
<pdfrwt beam="2">  1        1 0.35520700E-01 0.12509801E+03</pdfrwt>
<pdfrwt beam="1">  1       -1 0.81961779E-02 0.12509801E+03</pdfrwt>
<totfact> 0.95103202E+03</totfact>
</mgrwt>
</event>
<event>
 7    1  0.8712071E-006  0.1301929E+03  0.7546771E-02  0.1240844E+00
         -1   -1    0    0    0  501 -0.00000000000E+00  0.00000000000E+00  0.62779252229E+02  0.62779252229E+02  0.00000000000E+00 0.  1.
          1   -1    0    0  501    0  0.00000000000E+00 -0.00000000000E+00 -0.21043133998E+03  0.21043133998E+03  0.00000000000E+00 0. -1.
         23    2    1    2    0    0 -0.15643180241E+02 -0.32844711355E+02 -0.69436940303E+02  0.14755228600E+03  0.12500681691E+03 0.  0.
          5    1    3    3  502    0  0.22140124118E+00  0.22723389464E+02  0.26644324028E+02  0.35332866430E+02  0.47000000000E+01 0. -1.
         -5    1    3    3    0  502 -0.15864581482E+02 -0.55568100820E+02 -0.96081264331E+02  0.11221941957E+03  0.47000000000E+01 0. -1.
        -11    1    1    2    0    0  0.34560082551E+02  0.49491284845E+02 -0.80203956969E+02  0.10038157846E+03  0.00000000000E+00 0. -1.
         11    1    1    2    0    0 -0.18916902310E+02 -0.16646573490E+02  0.19888095213E+01  0.25276727740E+02  0.00000000000E+00 0.  1.
<mgrwt>
<rscale>  0 0.12137584E+03</rscale>
<asrwt>0</asrwt>
<pdfrwt beam="2">  1        1 0.32374052E-01 0.13019289E+03</pdfrwt>
<pdfrwt beam="1">  1       -1 0.96583467E-02 0.13019289E+03</pdfrwt>
<totfact> 0.83447152E+03</totfact>
</mgrwt>
</event>
<event>
 7    1  0.8712071E-006  0.1386616E+03  0.7546771E-02  0.1226369E+00
         -2   -1    0    0    0  501 -0.00000000000E+00  0.00000000000E+00  0.37424306581E+02  0.37424306581E+02  0.00000000000E+00 0.  1.
          2   -1    0    0  501    0  0.00000000000E+00 -0.00000000000E+00 -0.41572141490E+03  0.41572141490E+03  0.00000000000E+00 0. -1.
         23    2    1    2    0    0  0.31177003322E+02 -0.51274187317E+02 -0.18877849205E+03  0.23423141095E+03  0.12500394790E+03 0.  0.
          5    1    3    3  502    0  0.73691193598E+02 -0.44645191566E+02 -0.82096000463E+02  0.11910259626E+03  0.47000000000E+01 0. -1.
         -5    1    3    3    0  502 -0.42514190277E+02 -0.66289957511E+01 -0.10668249159E+03  0.11512881469E+03  0.47000000000E+01 0. -1.
        -11    1    1    2    0    0 -0.58948906184E+02  0.25984499227E+02 -0.15518626210E+03  0.16802661600E+03  0.00000000000E+00 0. -1.
         11    1    1    2    0    0  0.27771902862E+02  0.25289688090E+02 -0.34332354168E+02  0.50887694534E+02  0.00000000000E+00 0.  1.
<mgrwt>
<rscale>  0 0.13073524E+03</rscale>
<asrwt>0</asrwt>
<pdfrwt beam="2">  1        2 0.63957143E-01 0.13866158E+03</pdfrwt>
<pdfrwt beam="1">  1       -2 0.57575855E-02 0.13866158E+03</pdfrwt>
<totfact> 0.11451429E+04</totfact>
</mgrwt>
</event>
<event>
 7    1  0.8712071E-006  0.1575147E+03  0.7546771E-02  0.1198803E+00
          2   -1    0    0  501    0  0.00000000000E+00  0.00000000000E+00  0.39152863851E+03  0.39152863851E+03  0.00000000000E+00 0.  1.
         -2   -1    0    0    0  501 -0.00000000000E+00 -0.00000000000E+00 -0.54556680499E+02  0.54556680499E+02  0.00000000000E+00 0. -1.
         23    2    1    2    0    0  0.87278515733E+02 -0.39611083156E+02  0.19431812805E+03  0.25014082220E+03  0.12499727527E+03 0.  0.
          5    1    3    3  502    0 -0.26349789433E+01  0.49093603614E+01  0.13143749570E+03  0.13163947056E+03  0.47000000000E+01 0. -1.
         -5    1    3    3    0  502  0.89913494677E+02 -0.44520443518E+02  0.62880632354E+02  0.11850135164E+03  0.47000000000E+01 0. -1.
        -11    1    1    2    0    0 -0.39904898567E+02  0.12088628780E+01 -0.94343882460E+00  0.39934350576E+02  0.00000000000E+00 0. -1.
         11    1    1    2    0    0 -0.47373617166E+02  0.38402220278E+02  0.14359726878E+03  0.15601014623E+03  0.00000000000E+00 0.  1.
<mgrwt>
<rscale>  0 0.15136760E+03</rscale>
<asrwt>0</asrwt>
<pdfrwt beam="1">  1        2 0.60235174E-01 0.15751475E+03</pdfrwt>
<pdfrwt beam="2">  1       -2 0.83933357E-02 0.15751475E+03</pdfrwt>
<totfact> 0.69098600E+03</totfact>
</mgrwt>
</event>
<event>
 7    1  0.8712071E-006  0.1356920E+03  0.7546771E-02  0.1229931E+00
         -1   -1    0    0    0  501 -0.00000000000E+00  0.00000000000E+00  0.70401750513E+02  0.70401750513E+02  0.00000000000E+00 0. -1.
          1   -1    0    0  501    0  0.00000000000E+00 -0.00000000000E+00 -0.21195216587E+03  0.21195216587E+03  0.00000000000E+00 0.  1.
         23    2    1    2    0    0 -0.49887622900E+02  0.17267787632E+02 -0.79746335499E+02  0.15739062716E+03  0.12500152033E+03 0.  0.
          5    1    3    3  502    0 -0.51553211058E+02  0.45267873485E+02 -0.10078740895E+03  0.12201272779E+03  0.47000000000E+01 0. -1.
         -5    1    3    3    0  502  0.16655881587E+01 -0.28000085853E+02  0.21041073454E+02  0.35377899370E+02  0.47000000000E+01 0. -1.
        -11    1    1    2    0    0  0.13075361207E+02  0.23040449150E+02  0.15222935274E+02  0.30554297997E+02  0.00000000000E+00 0. -1.
         11    1    1    2    0    0  0.36812261692E+02 -0.40308236782E+02 -0.77027015132E+02  0.94408991222E+02  0.00000000000E+00 0.  1.
<mgrwt>
<rscale>  0 0.12834620E+03</rscale>
<asrwt>0</asrwt>
<pdfrwt beam="2">  1        1 0.32608025E-01 0.13569205E+03</pdfrwt>
<pdfrwt beam="1">  1       -1 0.10831039E-01 0.13569205E+03</pdfrwt>
<totfact> 0.69630605E+03</totfact>
</mgrwt>
</event>
<event>
 7    1  0.8712071E-006  0.1799366E+03  0.7546771E-02  0.1173716E+00
         -2   -1    0    0    0  501 -0.00000000000E+00  0.00000000000E+00  0.60548220751E+02  0.60548220751E+02  0.00000000000E+00 0.  1.
          2   -1    0    0  501    0  0.00000000000E+00 -0.00000000000E+00 -0.49648504225E+03  0.49648504225E+03  0.00000000000E+00 0. -1.
         23    2    1    2    0    0 -0.28973734684E+02  0.12615351488E+03 -0.16745487880E+03  0.24580138599E+03  0.12499199296E+03 0.  0.
          5    1    3    3  502    0 -0.36968517492E+02  0.13451745046E+03 -0.87205002242E+02  0.16458559530E+03  0.47000000000E+01 0.  1.
         -5    1    3    3    0  502  0.79947828083E+01 -0.83639355822E+01 -0.80249876553E+02  0.81215790690E+02  0.47000000000E+01 0.  1.
        -11    1    1    2    0    0 -0.20963254524E+02 -0.35693096889E+02 -0.14199121469E+03  0.14790186021E+03  0.00000000000E+00 0.  1.
         11    1    1    2    0    0  0.49936989208E+02 -0.90460417988E+02 -0.12649072801E+03  0.16333001680E+03  0.00000000000E+00 0. -1.
<mgrwt>
<rscale>  0 0.17402366E+03</rscale>
<asrwt>0</asrwt>
<pdfrwt beam="2">  1        2 0.76382312E-01 0.17993661E+03</pdfrwt>
<pdfrwt beam="1">  1       -2 0.93151111E-02 0.17993661E+03</pdfrwt>
<totfact> 0.45643952E+03</totfact>
</mgrwt>
</event>
<event>
 7    1  0.8712071E-006  0.1792538E+03  0.7546771E-02  0.1173972E+00
         -1   -1    0    0    0  501 -0.00000000000E+00  0.00000000000E+00  0.15130063299E+03  0.15130063299E+03  0.00000000000E+00 0. -1.
          1   -1    0    0  501    0  0.00000000000E+00 -0.00000000000E+00 -0.21778034238E+03  0.21778034238E+03  0.00000000000E+00 0.  1.
         23    2    1    2    0    0  0.11660340437E+03  0.53963494386E+02  0.32783700280E+02  0.18222708956E+03  0.12499411397E+03 0.  0.
          5    1    3    3  502    0 -0.11176642043E+02  0.39916651722E+02 -0.15959541922E+02  0.44666020535E+02  0.47000000000E+01 0. -1.
         -5    1    3    3    0  502  0.12778004642E+03  0.14046842664E+02  0.48743242202E+02  0.13756106903E+03  0.47000000000E+01 0. -1.
        -11    1    1    2    0    0 -0.73396769859E+02 -0.41734061802E+02 -0.11192402256E+03  0.14019916036E+03  0.00000000000E+00 0.  1.
         11    1    1    2    0    0 -0.43206634515E+02 -0.12229432584E+02  0.12660612887E+02  0.46654725443E+02  0.00000000000E+00 0. -1.
<mgrwt>
<rscale>  0 0.17377067E+03</rscale>
<asrwt>0</asrwt>
<pdfrwt beam="2">  1        1 0.33504668E-01 0.17925385E+03</pdfrwt>
<pdfrwt beam="1">  1       -1 0.23277020E-01 0.17925385E+03</pdfrwt>
<totfact> 0.20347511E+03</totfact>
</mgrwt>
</event>
<event>
 7    1  0.8712071E-006  0.1612556E+03  0.7546771E-02  0.1194907E+00
         -2   -1    0    0    0  501 -0.00000000000E+00  0.00000000000E+00  0.13891589408E+03  0.13891589408E+03  0.00000000000E+00 0.  1.
          2   -1    0    0  501    0  0.00000000000E+00 -0.00000000000E+00 -0.16044013589E+03  0.16044013589E+03  0.00000000000E+00 0. -1.
         23    2    1    2    0    0 -0.87716391730E+02  0.51821342126E+02 -0.23942322931E+02  0.16302332384E+03  0.12499500955E+03 0.  0.
          5    1    3    3  502    0 -0.11062922104E+03  0.39014578557E+02  0.12282274435E+02  0.11804196777E+03  0.47000000000E+01 0.  1.
         -5    1    3    3    0  502  0.22912829314E+02  0.12806763568E+02 -0.36224597366E+02  0.44981356078E+02  0.47000000000E+01 0.  1.
        -11    1    1    2    0    0  0.31188972748E+02  0.23312350578E+02  0.14469177662E+02  0.41540038671E+02  0.00000000000E+00 0. -1.
         11    1    1    2    0    0  0.56527418981E+02 -0.75133692703E+02 -0.12051096547E+02  0.94792667458E+02  0.00000000000E+00 0.  1.
<mgrwt>
<rscale>  0 0.15462120E+03</rscale>
<asrwt>0</asrwt>
<pdfrwt beam="2">  1        2 0.24683098E-01 0.16125560E+03</pdfrwt>
<pdfrwt beam="1">  1       -2 0.21371676E-01 0.16125560E+03</pdfrwt>
<totfact> 0.39614918E+03</totfact>
</mgrwt>
</event>
<event>
 7    1  0.8712071E-006  0.1604590E+03  0.7546771E-02  0.1196658E+00
          2   -1    0    0  501    0  0.00000000000E+00  0.00000000000E+00  0.87100562059E+03  0.87100562059E+03  0.00000000000E+00 0. -1.
         -2   -1    0    0    0  501 -0.00000000000E+00 -0.00000000000E+00 -0.25230690667E+02  0.25230690667E+02  0.00000000000E+00 0.  1.
         23    2    1    2    0    0  0.49934254691E+02  0.87350102680E+02  0.39946140811E+03  0.43048402578E+03  0.12499443849E+03 0.  0.
          5    1    3    3  502    0 -0.17279287593E+02  0.44812251942E+02  0.41151856566E+02  0.63421423846E+02  0.47000000000E+01 0. -1.
         -5    1    3    3    0  502  0.67213542284E+02  0.42537850739E+02  0.35830955154E+03  0.36706260193E+03  0.47000000000E+01 0. -1.
        -11    1    1    2    0    0 -0.28115716641E+02 -0.76299524051E+02  0.42676412361E+03  0.43444185813E+03  0.00000000000E+00 0. -1.
         11    1    1    2    0    0 -0.21818538050E+02 -0.11050578630E+02  0.19549398207E+02  0.31310427351E+02  0.00000000000E+00 0.  1.
<mgrwt>
<rscale>  0 0.15314748E+03</rscale>
<asrwt>0</asrwt>
<pdfrwt beam="1">  1        2 0.13400084E+00 0.16045897E+03</pdfrwt>
<pdfrwt beam="2">  1       -2 0.38816454E-02 0.16045897E+03</pdfrwt>
<totfact> 0.88781983E+03</totfact>
</mgrwt>
</event>
<event>
 7    1  0.8712071E-006  0.1614328E+03  0.7546771E-02  0.1194583E+00
          1   -1    0    0  501    0  0.00000000000E+00  0.00000000000E+00  0.16830437478E+02  0.16830437478E+02  0.00000000000E+00 0. -1.
         -1   -1    0    0    0  501 -0.00000000000E+00 -0.00000000000E+00 -0.13244182840E+04  0.13244182840E+04  0.00000000000E+00 0.  1.
         23    2    1    2    0    0  0.88455219859E+02 -0.51102651983E+02 -0.67589781740E+03  0.69490891085E+03  0.12499891141E+03 0.  0.
          5    1    3    3  502    0  0.91249527220E+02 -0.69547474703E+02 -0.34816441776E+03  0.36661134632E+03  0.47000000000E+01 0. -1.
         -5    1    3    3    0  502 -0.27943073610E+01  0.18444822719E+02 -0.32773339964E+03  0.32829756453E+03  0.47000000000E+01 0. -1.
        -11    1    1    2    0    0  0.10953797597E+02  0.20775049516E+02 -0.47641648097E+02  0.53116052165E+02  0.00000000000E+00 0. -1.
         11    1    1    2    0    0 -0.99409017456E+02  0.30327602468E+02 -0.58404838098E+03  0.59322375841E+03  0.00000000000E+00 0.  1.
<mgrwt>
<rscale>  0 0.15489602E+03</rscale>
<asrwt>0</asrwt>
<pdfrwt beam="1">  1        1 0.25892985E-02 0.16143276E+03</pdfrwt>
<pdfrwt beam="2">  1       -1 0.20375663E+00 0.16143276E+03</pdfrwt>
<totfact> 0.65607985E+02</totfact>
</mgrwt>
</event>
<event>
 7    1  0.8712071E-006  0.2641273E+03  0.7546771E-02  0.1106753E+00
          2   -1    0    0  501    0  0.00000000000E+00  0.00000000000E+00  0.14151786563E+04  0.14151786563E+04  0.00000000000E+00 0. -1.
         -2   -1    0    0    0  501 -0.00000000000E+00 -0.00000000000E+00 -0.47574514961E+02  0.47574514961E+02  0.00000000000E+00 0.  1.
         23    2    1    2    0    0  0.23202082575E+03 -0.17455064788E+02  0.60740750677E+03  0.66234968956E+03  0.12499955647E+03 0.  0.
          5    1    3    3  502    0  0.11415643690E+03 -0.70277960854E+02  0.28446391789E+03  0.31450356826E+03  0.47000000000E+01 0.  1.
         -5    1    3    3    0  502  0.11786438885E+03  0.52822896066E+02  0.32294358888E+03  0.34784612130E+03  0.47000000000E+01 0.  1.
        -11    1    1    2    0    0 -0.81317715271E+02 -0.26772082390E+02  0.17995752120E+03  0.19928377919E+03  0.00000000000E+00 0.  1.
         11    1    1    2    0    0 -0.15070311048E+03  0.44227147178E+02  0.58023911338E+03  0.60111970251E+03  0.00000000000E+00 0. -1.
<mgrwt>
<rscale>  0 0.26065072E+03</rscale>
<asrwt>0</asrwt>
<pdfrwt beam="1">  1        2 0.21771976E+00 0.26412730E+03</pdfrwt>
<pdfrwt beam="2">  1       -2 0.73191572E-02 0.26412730E+03</pdfrwt>
<totfact> 0.16495067E+03</totfact>
</mgrwt>
</event>
<event>
 7    1  0.8712071E-006  0.1113107E+03  0.7546771E-02  0.1332218E+00
         -2   -1    0    0    0  501 -0.00000000000E+00  0.00000000000E+00  0.22739981676E+02  0.22739981676E+02  0.00000000000E+00 0.  1.
          2   -1    0    0  501    0  0.00000000000E+00 -0.00000000000E+00 -0.24350628128E+03  0.24350628128E+03  0.00000000000E+00 0. -1.
         23    2    1    2    0    0 -0.56290353129E+01 -0.53144811525E+01 -0.12954820413E+03  0.17080052663E+03  0.11104122187E+03 0.  0.
          5    1    3    3  502    0 -0.52721384760E+01 -0.86542716512E+01 -0.14955746280E+03  0.14997405289E+03  0.47000000000E+01 0. -1.
         -5    1    3    3    0  502 -0.35689683689E+00  0.33397904986E+01  0.20009258668E+02  0.20826473738E+02  0.47000000000E+01 0.  1.
        -11    1    1    2    0    0  0.10276683715E+01  0.16211264805E+02 -0.51016675520E+02  0.53540287541E+02  0.00000000000E+00 0. -1.
         11    1    1    2    0    0  0.46013669414E+01 -0.10896783652E+02 -0.40201419955E+02  0.41905448788E+02  0.00000000000E+00 0.  1.
<mgrwt>
<rscale>  0 0.78894660E+02</rscale>
<asrwt>0</asrwt>
<pdfrwt beam="2">  1        2 0.37462501E-01 0.11131075E+03</pdfrwt>
<pdfrwt beam="1">  1       -2 0.34984590E-02 0.11131075E+03</pdfrwt>
<totfact> 0.41532015E+04</totfact>
</mgrwt>
</event>
<event>
 7    1  0.8712071E-006  0.1380542E+03  0.7546771E-02  0.1227624E+00
         -1   -1    0    0    0  501 -0.00000000000E+00  0.00000000000E+00  0.63314725530E+02  0.63314725530E+02  0.00000000000E+00 0.  1.
          1   -1    0    0  501    0  0.00000000000E+00 -0.00000000000E+00 -0.24235788518E+03  0.24235788518E+03  0.00000000000E+00 0. -1.
         23    2    1    2    0    0 -0.58137358737E+02  0.72947888446E+01 -0.83449234221E+02  0.16131562611E+03  0.12500316040E+03 0.  0.
          5    1    3    3  502    0 -0.61413969155E+02  0.43692866526E+02 -0.62515613364E+01  0.75775419575E+02  0.47000000000E+01 0. -1.
         -5    1    3    3    0  502  0.32766104172E+01 -0.36398077682E+02 -0.77197672885E+02  0.85540206532E+02  0.47000000000E+01 0. -1.
        -11    1    1    2    0    0  0.56182078687E+02  0.22301367480E+02 -0.97410095332E+02  0.11464075902E+03  0.00000000000E+00 0. -1.
         11    1    1    2    0    0  0.19552800508E+01 -0.29596156325E+02  0.18161699075E+01  0.29716225575E+02  0.00000000000E+00 0.  1.
<mgrwt>
<rscale>  0 0.12988645E+03</rscale>
<asrwt>0</asrwt>
<pdfrwt beam="2">  1        1 0.37285829E-01 0.13805418E+03</pdfrwt>
<pdfrwt beam="1">  1       -1 0.97407268E-02 0.13805418E+03</pdfrwt>
<totfact> 0.69441742E+03</totfact>
</mgrwt>
</event>
<event>
 7    1  0.8712071E-006  0.1695392E+03  0.7546771E-02  0.1185730E+00
          2   -1    0    0  501    0  0.00000000000E+00  0.00000000000E+00  0.16807448153E+03  0.16807448153E+03  0.00000000000E+00 0. -1.
         -2   -1    0    0    0  501 -0.00000000000E+00 -0.00000000000E+00 -0.15272087779E+03  0.15272087779E+03  0.00000000000E+00 0.  1.
         23    2    1    2    0    0  0.11588810381E+01  0.11452880226E+03 -0.25533176624E+02  0.17145110245E+03  0.12500139148E+03 0.  0.
          5    1    3    3  502    0 -0.15718053858E+02  0.12085239369E+03 -0.57203674619E+02  0.13470972001E+03  0.47000000000E+01 0. -1.
         -5    1    3    3    0  502  0.16876934896E+02 -0.63235914296E+01  0.31670497995E+02  0.36741382436E+02  0.47000000000E+01 0. -1.
        -11    1    1    2    0    0 -0.26504243361E+02 -0.11216572298E+02  0.31326392976E+02  0.42539737977E+02  0.00000000000E+00 0.  1.
         11    1    1    2    0    0  0.25345362323E+02 -0.10331222996E+03  0.95603873875E+01  0.10680451890E+03  0.00000000000E+00 0. -1.
<mgrwt>
<rscale>  0 0.16265604E+03</rscale>
<asrwt>0</asrwt>
<pdfrwt beam="1">  1        2 0.25857613E-01 0.16953919E+03</pdfrwt>
<pdfrwt beam="2">  1       -2 0.23495520E-01 0.16953919E+03</pdfrwt>
<totfact> 0.32027900E+03</totfact>
</mgrwt>
</event>
<event>
 7    1  0.8712071E-006  0.1271685E+03  0.7546771E-02  0.1246644E+00
          2   -1    0    0  501    0  0.00000000000E+00  0.00000000000E+00  0.17048273932E+03  0.17048273932E+03  0.00000000000E+00 0. -1.
         -2   -1    0    0    0  501 -0.00000000000E+00 -0.00000000000E+00 -0.71649969921E+02  0.71649969921E+02  0.00000000000E+00 0.  1.
         23    2    1    2    0    0  0.14231055805E+02  0.18607506638E+02  0.56645901214E+02  0.13921420576E+03  0.12499229860E+03 0.  0.
          5    1    3    3  502    0  0.26134891120E+02  0.20758947986E+02  0.93899115657E+02  0.99765226289E+02  0.47000000000E+01 0. -1.
         -5    1    3    3    0  502 -0.11903835315E+02 -0.21514413479E+01 -0.37253214443E+02  0.39448979472E+02  0.47000000000E+01 0. -1.
        -11    1    1    2    0    0 -0.36207231626E+02 -0.45319800618E+02  0.18091712410E+02  0.60763130334E+02  0.00000000000E+00 0.  1.
         11    1    1    2    0    0  0.21976175821E+02  0.26712293980E+02  0.24095155780E+02  0.42155373151E+02  0.00000000000E+00 0. -1.
<mgrwt>
<rscale>  0 0.11787510E+03</rscale>
<asrwt>0</asrwt>
<pdfrwt beam="1">  1        2 0.26228114E-01 0.12716854E+03</pdfrwt>
<pdfrwt beam="2">  1       -2 0.11023072E-01 0.12716854E+03</pdfrwt>
<totfact> 0.10816446E+04</totfact>
</mgrwt>
</event>
<event>
 7    1  0.8712071E-006  0.3109574E+03  0.7546771E-02  0.1081422E+00
         -1   -1    0    0    0  501 -0.00000000000E+00  0.00000000000E+00  0.10554660468E+04  0.10554660468E+04  0.00000000000E+00 0.  1.
          1   -1    0    0  501    0  0.00000000000E+00 -0.00000000000E+00 -0.10644501104E+03  0.10644501104E+03  0.00000000000E+00 0. -1.
         23    2    1    2    0    0  0.12226697405E+03  0.25637745010E+03  0.72475072586E+03  0.78864323192E+03  0.12655403099E+03 0.  0.
          5    1    3    3  502    0 -0.17500595809E+02  0.32794775682E+02  0.39716582353E+02  0.54600962258E+02  0.47000000000E+01 0. -1.
         -5    1    3    3    0  502  0.13976756985E+03  0.22358267442E+03  0.68503414350E+03  0.73404226966E+03  0.47000000000E+01 0.  1.
        -11    1    1    2    0    0 -0.10473936025E+03 -0.12675657159E+03  0.15151632235E+03  0.22359507589E+03  0.00000000000E+00 0. -1.
         11    1    1    2    0    0 -0.17527613799E+02 -0.12962087851E+03  0.72753987512E+02  0.14967274999E+03  0.00000000000E+00 0.  1.
<mgrwt>
<rscale>  0 0.30776470E+03</rscale>
<asrwt>0</asrwt>
<pdfrwt beam="2">  1        1 0.16376156E-01 0.31095745E+03</pdfrwt>
<pdfrwt beam="1">  1       -1 0.16237938E+00 0.31095745E+03</pdfrwt>
<totfact> 0.10130535E+02</totfact>
</mgrwt>
</event>
<event>
 7    1  0.8712071E-006  0.1499929E+03  0.7546771E-02  0.1209866E+00
         -3   -1    0    0    0  501 -0.00000000000E+00  0.00000000000E+00  0.72933382100E+03  0.72933382100E+03  0.00000000000E+00 0.  1.
          3   -1    0    0  501    0  0.00000000000E+00 -0.00000000000E+00 -0.26134834865E+02  0.26134834865E+02  0.00000000000E+00 0. -1.
         23    2    1    2    0    0  0.65682340034E+02 -0.50582936442E+02  0.44638268361E+03  0.47090908466E+03  0.12500025015E+03 0.  0.
          5    1    3    3  502    0  0.50960963321E+02 -0.90582688721E+02  0.35562010712E+03  0.37052664393E+03  0.47000000000E+01 0.  1.
         -5    1    3    3    0  502  0.14721376714E+02  0.39999752279E+02  0.90762576490E+02  0.10038244072E+03  0.47000000000E+01 0.  1.
        -11    1    1    2    0    0 -0.24660278341E+02  0.71301769851E+02  0.14013223114E+03  0.15915122970E+03  0.00000000000E+00 0.  1.
         11    1    1    2    0    0 -0.41022061693E+02 -0.20718833408E+02  0.11668407139E+03  0.12540834150E+03  0.00000000000E+00 0. -1.
<mgrwt>
<rscale>  0 0.14260510E+03</rscale>
<asrwt>0</asrwt>
<pdfrwt beam="2">  1        3 0.40207444E-02 0.14999289E+03</pdfrwt>
<pdfrwt beam="1">  1       -3 0.11220519E+00 0.14999289E+03</pdfrwt>
<totfact> 0.52518095E+02</totfact>
</mgrwt>
</event>
<event>
 7    1  0.8712071E-006  0.1392001E+03  0.7546771E-02  0.1224524E+00
         -1   -1    0    0    0  501 -0.00000000000E+00  0.00000000000E+00  0.33205930844E+02  0.33205930844E+02  0.00000000000E+00 0.  1.
          1   -1    0    0  501    0  0.00000000000E+00 -0.00000000000E+00 -0.49184725883E+03  0.49184725883E+03  0.00000000000E+00 0. -1.
         23    2    1    2    0    0 -0.41973754132E+00 -0.61235530045E+02 -0.20771906743E+03  0.25004777626E+03  0.12500685228E+03 0.  0.
          5    1    3    3  502    0 -0.41083942488E+02  0.21257526432E+02 -0.58914459367E+02  0.75051823981E+02  0.47000000000E+01 0.  1.
         -5    1    3    3    0  502  0.40664204947E+02 -0.82493056477E+02 -0.14880460807E+03  0.17499595227E+03  0.47000000000E+01 0.  1.
        -11    1    1    2    0    0 -0.31463492590E+02  0.57813194349E+01 -0.26179858652E+02  0.41337150596E+02  0.00000000000E+00 0.  1.
         11    1    1    2    0    0  0.31883230131E+02  0.55454210610E+02 -0.22474240190E+03  0.23366826282E+03  0.00000000000E+00 0. -1.
<mgrwt>
<rscale>  0 0.13199567E+03</rscale>
<asrwt>0</asrwt>
<pdfrwt beam="2">  1        1 0.75668804E-01 0.13920014E+03</pdfrwt>
<pdfrwt beam="1">  1       -1 0.51086051E-02 0.13920014E+03</pdfrwt>
<totfact> 0.75378357E+03</totfact>
</mgrwt>
</event>
<event>
 7    1  0.8712071E-006  0.1412397E+03  0.7546771E-02  0.1223018E+00
         -1   -1    0    0    0  501 -0.00000000000E+00  0.00000000000E+00  0.19438834402E+03  0.19438834402E+03  0.00000000000E+00 0.  1.
          1   -1    0    0  501    0  0.00000000000E+00 -0.00000000000E+00 -0.82097514143E+02  0.82097514143E+02  0.00000000000E+00 0. -1.
         23    2    1    2    0    0 -0.64100405746E+02 -0.14655347158E+02  0.56847193936E+02  0.15225060201E+03  0.12500000455E+03 0.  0.
          5    1    3    3  502    0 -0.79400414104E+02  0.29807608157E+02  0.96930671415E+01  0.85492483965E+02  0.47000000000E+01 0. -1.
         -5    1    3    3    0  502  0.15300008359E+02 -0.44462955315E+02  0.47154126794E+02  0.66758118044E+02  0.47000000000E+01 0. -1.
        -11    1    1    2    0    0  0.60118365071E+02 -0.12767496667E+01  0.76644631084E+02  0.97417900729E+02  0.00000000000E+00 0.  1.
         11    1    1    2    0    0  0.39820406748E+01  0.15932096825E+02 -0.21200995140E+02  0.26817355427E+02  0.00000000000E+00 0. -1.
<mgrwt>
<rscale>  0 0.13303674E+03</rscale>
<asrwt>0</asrwt>
<pdfrwt beam="2">  1        1 0.12630387E-01 0.14123966E+03</pdfrwt>
<pdfrwt beam="1">  1       -1 0.29905899E-01 0.14123966E+03</pdfrwt>
<totfact> 0.46112126E+03</totfact>
</mgrwt>
</event>
<event>
 7    1  0.8712071E-006  0.1483058E+03  0.7546771E-02  0.1211747E+00
         -4   -1    0    0    0  501 -0.00000000000E+00  0.00000000000E+00  0.86111543490E+02  0.86111543490E+02  0.00000000000E+00 0.  1.
          4   -1    0    0  501    0  0.00000000000E+00 -0.00000000000E+00 -0.23502576860E+03  0.23502576860E+03  0.00000000000E+00 0. -1.
         23    2    1    2    0    0 -0.79060205033E+02  0.11471725497E+02 -0.30794200819E+02  0.15146913445E+03  0.12494998752E+03 0.  0.
          5    1    3    3  502    0 -0.58310092093E+01 -0.12851588432E+02 -0.65183504237E+02  0.66859129655E+02  0.47000000000E+01 0. -1.
         -5    1    3    3    0  502 -0.73229195823E+02  0.24323313929E+02  0.34389303419E+02  0.84610004793E+02  0.47000000000E+01 0. -1.
        -11    1    1    2    0    0  0.37434796881E+02 -0.80435285312E+01  0.59572856891E+01  0.38749859633E+02  0.00000000000E+00 0.  1.
         11    1    1    2    0    0  0.41625408151E+02 -0.34281969658E+01 -0.12407730998E+03  0.13091831801E+03  0.00000000000E+00 0. -1.
<mgrwt>
<rscale>  0 0.14118202E+03</rscale>
<asrwt>0</asrwt>
<pdfrwt beam="2">  1        4 0.36157810E-01 0.14830582E+03</pdfrwt>
<pdfrwt beam="1">  1       -4 0.13247930E-01 0.14830582E+03</pdfrwt>
<totfact> 0.58576680E+02</totfact>
</mgrwt>
</event>
<event>
 7    1  0.8712071E-006  0.1822691E+03  0.7546771E-02  0.1170570E+00
          3   -1    0    0  501    0  0.00000000000E+00  0.00000000000E+00  0.22061969407E+03  0.22061969407E+03  0.00000000000E+00 0. -1.
         -3   -1    0    0    0  501 -0.00000000000E+00 -0.00000000000E+00 -0.15011167236E+03  0.15011167236E+03  0.00000000000E+00 0.  1.
         23    2    1    2    0    0  0.13200094700E+03 -0.13200704865E+02 -0.21944301264E+02  0.18358536773E+03  0.12499410493E+03 0.  0.
          5    1    3    3  502    0  0.15473791356E+03  0.13234523430E+01 -0.16849280643E+02  0.15572912919E+03  0.47000000000E+01 0.  1.
         -5    1    3    3    0  502 -0.22736966556E+02 -0.14524157208E+02 -0.50950206211E+01  0.27856238545E+02  0.47000000000E+01 0.  1.
        -11    1    1    2    0    0 -0.72262210164E+02 -0.21650569994E+01  0.10169581216E+03  0.12477400651E+03  0.00000000000E+00 0. -1.
         11    1    1    2    0    0 -0.59738736840E+02  0.15365761865E+02 -0.92434891873E+01  0.62371992186E+02  0.00000000000E+00 0.  1.
<mgrwt>
<rscale>  0 0.17717065E+03</rscale>
<asrwt>0</asrwt>
<pdfrwt beam="1">  1        3 0.33941491E-01 0.18226913E+03</pdfrwt>
<pdfrwt beam="2">  1       -3 0.23094103E-01 0.18226913E+03</pdfrwt>
<totfact> 0.35665912E+02</totfact>
</mgrwt>
</event>
<event>
 7    1  0.8712071E-006  0.1501973E+03  0.7546771E-02  0.1209184E+00
          1   -1    0    0  501    0  0.00000000000E+00  0.00000000000E+00  0.60672990566E+02  0.60672990566E+02  0.00000000000E+00 0. -1.
         -1   -1    0    0    0  501 -0.00000000000E+00 -0.00000000000E+00 -0.35304672229E+03  0.35304672229E+03  0.00000000000E+00 0.  1.
         23    2    1    2    0    0 -0.83047114631E+02  0.61678260147E+01 -0.23090856438E+03  0.27545959823E+03  0.12499743928E+03 0.  0.
          5    1    3    3  502    0 -0.35643483797E+02 -0.11904385792E+02 -0.22015433499E+03  0.22338798883E+03  0.47000000000E+01 0.  1.
         -5    1    3    3    0  502 -0.47403630835E+02  0.18072211807E+02 -0.10754229389E+02  0.52071609401E+02  0.47000000000E+01 0.  1.
        -11    1    1    2    0    0  0.72902591271E+02  0.25682159563E+02 -0.69429242114E+02  0.10389793450E+03  0.00000000000E+00 0.  1.
         11    1    1    2    0    0  0.10144523361E+02 -0.31849985578E+02  0.79640747718E+01  0.34362180118E+02  0.00000000000E+00 0. -1.
<mgrwt>
<rscale>  0 0.14312559E+03</rscale>
<asrwt>0</asrwt>
<pdfrwt beam="1">  1        1 0.93343061E-02 0.15019729E+03</pdfrwt>
<pdfrwt beam="2">  1       -1 0.54314881E-01 0.15019729E+03</pdfrwt>
<totfact> 0.24109772E+03</totfact>
</mgrwt>
</event>
<event>
 7    1  0.8712071E-006  0.1726317E+03  0.7546771E-02  0.1181563E+00
          1   -1    0    0  501    0  0.00000000000E+00  0.00000000000E+00  0.86019261908E+03  0.86019261908E+03  0.00000000000E+00 0. -1.
         -1   -1    0    0    0  501 -0.00000000000E+00 -0.00000000000E+00 -0.31864737496E+02  0.31864737496E+02  0.00000000000E+00 0.  1.
         23    2    1    2    0    0  0.66520592115E+02 -0.98752939899E+02  0.33859108692E+03  0.38006004644E+03  0.12499832975E+03 0.  0.
          5    1    3    3  502    0  0.62832469204E+02 -0.12765425895E+03  0.29296863351E+03  0.32572417662E+03  0.47000000000E+01 0.  1.
         -5    1    3    3    0  502  0.36881229108E+01  0.28901319049E+02  0.45622453415E+02  0.54335869819E+02  0.47000000000E+01 0.  1.
        -11    1    1    2    0    0  0.20529574451E+02  0.12223431777E+02  0.12200349634E+03  0.12432107154E+03  0.00000000000E+00 0. -1.
         11    1    1    2    0    0 -0.87050166567E+02  0.86529508122E+02  0.36773329832E+03  0.38767623859E+03  0.00000000000E+00 0.  1.
<mgrwt>
<rscale>  0 0.16648551E+03</rscale>
<asrwt>0</asrwt>
<pdfrwt beam="1">  1        1 0.13233731E+00 0.17263173E+03</pdfrwt>
<pdfrwt beam="2">  1       -1 0.49022680E-02 0.17263173E+03</pdfrwt>
<totfact> 0.36745492E+03</totfact>
</mgrwt>
</event>
<event>
 7    1  0.8712071E-006  0.2374226E+03  0.7546771E-02  0.1124390E+00
          1   -1    0    0  501    0  0.00000000000E+00  0.00000000000E+00  0.34376589708E+03  0.34376589708E+03  0.00000000000E+00 0. -1.
         -1   -1    0    0    0  501 -0.00000000000E+00 -0.00000000000E+00 -0.31560488742E+03  0.31560488742E+03  0.00000000000E+00 0.  1.
         23    2    1    2    0    0  0.59983749468E+02  0.19273646616E+03 -0.22233365794E+03  0.32527177398E+03  0.12499630356E+03 0.  0.
          5    1    3    3  502    0 -0.57626734440E+01  0.36404994357E+02 -0.12340281818E+03  0.12887543425E+03  0.47000000000E+01 0.  1.
         -5    1    3    3    0  502  0.65746422912E+02  0.15633147180E+03 -0.98930839767E+02  0.19639633973E+03  0.47000000000E+01 0.  1.
        -11    1    1    2    0    0  0.20744429545E+02 -0.78383171119E+02  0.93857570157E+02  0.12403022352E+03  0.00000000000E+00 0.  1.
         11    1    1    2    0    0 -0.80728179013E+02 -0.11435329504E+03  0.15663709745E+03  0.21006878700E+03  0.00000000000E+00 0. -1.
<mgrwt>
<rscale>  0 0.23322594E+03</rscale>
<asrwt>0</asrwt>
<pdfrwt beam="1">  1        1 0.52887061E-01 0.23742256E+03</pdfrwt>
<pdfrwt beam="2">  1       -1 0.48554598E-01 0.23742256E+03</pdfrwt>
<totfact> 0.32253621E+02</totfact>
</mgrwt>
</event>
<event>
 7    1  0.8712071E-006  0.1641816E+03  0.7546771E-02  0.1191166E+00
          4   -1    0    0  501    0  0.00000000000E+00  0.00000000000E+00  0.31138611074E+02  0.31138611074E+02  0.00000000000E+00 0. -1.
         -4   -1    0    0    0  501 -0.00000000000E+00 -0.00000000000E+00 -0.74725789446E+03  0.74725789446E+03  0.00000000000E+00 0.  1.
         23    2    1    2    0    0  0.89151865366E+02  0.58146255979E+02 -0.41198815558E+03  0.44349727086E+03  0.12500618683E+03 0.  0.
          5    1    3    3  502    0  0.23695225838E+01 -0.31863501569E+02 -0.14629662471E+03  0.14981885653E+03  0.47000000000E+01 0. -1.
         -5    1    3    3    0  502  0.86782342782E+02  0.90009757549E+02 -0.26569153087E+03  0.29367841434E+03  0.47000000000E+01 0. -1.
        -11    1    1    2    0    0 -0.40482086157E+02  0.50226790100E+01 -0.33565252630E+02  0.52826629536E+02  0.00000000000E+00 0. -1.
         11    1    1    2    0    0 -0.48669779209E+02 -0.63168934989E+02 -0.27056587518E+03  0.28207260513E+03  0.00000000000E+00 0.  1.
<mgrwt>
<rscale>  0 0.15783238E+03</rscale>
<asrwt>0</asrwt>
<pdfrwt beam="1">  1        4 0.47905557E-02 0.16418157E+03</pdfrwt>
<pdfrwt beam="2">  1       -4 0.11496275E+00 0.16418157E+03</pdfrwt>
<totfact> 0.27157557E+02</totfact>
</mgrwt>
</event>
<event>
 7    1  0.8712071E-006  0.1865659E+03  0.7546771E-02  0.1166722E+00
          2   -1    0    0  501    0  0.00000000000E+00  0.00000000000E+00  0.44568480329E+03  0.44568480329E+03  0.00000000000E+00 0. -1.
         -2   -1    0    0    0  501 -0.00000000000E+00 -0.00000000000E+00 -0.69752234138E+02  0.69752234138E+02  0.00000000000E+00 0.  1.
         23    2    1    2    0    0 -0.82767324318E+02 -0.11105106213E+03  0.21041065890E+03  0.28121071067E+03  0.12499620010E+03 0.  0.
          5    1    3    3  502    0  0.14138791734E+02 -0.80385728202E+02  0.68898854558E+02  0.10691544739E+03  0.47000000000E+01 0. -1.
         -5    1    3    3    0  502 -0.96906116052E+02 -0.30665333932E+02  0.14151180434E+03  0.17429526328E+03  0.47000000000E+01 0. -1.
        -11    1    1    2    0    0  0.80601032826E+02  0.48049323847E+02  0.13441855213E+03  0.16393172717E+03  0.00000000000E+00 0. -1.
         11    1    1    2    0    0  0.21662914919E+01  0.63001738287E+02  0.31103358119E+02  0.70294599595E+02  0.00000000000E+00 0.  1.
<mgrwt>
<rscale>  0 0.18112172E+03</rscale>
<asrwt>0</asrwt>
<pdfrwt beam="1">  1        2 0.68566891E-01 0.18656586E+03</pdfrwt>
<pdfrwt beam="2">  1       -2 0.10731113E-01 0.18656586E+03</pdfrwt>
<totfact> 0.41150974E+03</totfact>
</mgrwt>
</event>
<event>
 7    1  0.8712071E-006  0.1366543E+03  0.7546771E-02  0.1228852E+00
          3   -1    0    0  501    0  0.00000000000E+00  0.00000000000E+00  0.18231934488E+03  0.18231934488E+03  0.00000000000E+00 0. -1.
         -3   -1    0    0    0  501 -0.00000000000E+00 -0.00000000000E+00 -0.83413337677E+02  0.83413337677E+02  0.00000000000E+00 0.  1.
         23    2    1    2    0    0 -0.21034675008E+01 -0.55155980065E+02  0.41715045141E+02  0.14287946887E+03  0.12501116318E+03 0.  0.
          5    1    3    3  502    0 -0.24369632505E+02 -0.74193080753E+02  0.67684849560E+02  0.10344960648E+03  0.47000000000E+01 0. -1.
         -5    1    3    3    0  502  0.22266165004E+02  0.19037100688E+02 -0.25969804419E+02  0.39429862391E+02  0.47000000000E+01 0. -1.
        -11    1    1    2    0    0  0.31272746169E+02  0.39335903320E+02 -0.68585225079E+01  0.50718214420E+02  0.00000000000E+00 0.  1.
         11    1    1    2    0    0 -0.29169278668E+02  0.15820076745E+02  0.64049484572E+02  0.72134999273E+02  0.00000000000E+00 0. -1.
<mgrwt>
<rscale>  0 0.12906377E+03</rscale>
<asrwt>0</asrwt>
<pdfrwt beam="1">  1        3 0.28049130E-01 0.13665430E+03</pdfrwt>
<pdfrwt beam="2">  1       -3 0.12832821E-01 0.13665430E+03</pdfrwt>
<totfact> 0.13582137E+03</totfact>
</mgrwt>
</event>
<event>
 7    1  0.8712071E-006  0.1408077E+03  0.7546771E-02  0.1223201E+00
          1   -1    0    0  501    0  0.00000000000E+00  0.00000000000E+00  0.74608392275E+03  0.74608392275E+03  0.00000000000E+00 0. -1.
         -1   -1    0    0    0  501 -0.00000000000E+00 -0.00000000000E+00 -0.21670015952E+02  0.21670015952E+02  0.00000000000E+00 0.  1.
         23    2    1    2    0    0 -0.28881209926E+02 -0.58026764347E+02  0.35898865255E+03  0.38561596197E+03  0.12500235118E+03 0.  0.
          5    1    3    3  502    0  0.43733869818E+02  0.53180349530E+01  0.10957514200E+03  0.11819363185E+03  0.47000000000E+01 0. -1.
         -5    1    3    3    0  502 -0.72615079744E+02 -0.63344799300E+02  0.24941351055E+03  0.26742233013E+03  0.47000000000E+01 0. -1.
        -11    1    1    2    0    0 -0.10458847900E+02  0.62459727170E+02  0.29128623184E+03  0.29809104964E+03  0.00000000000E+00 0.  1.
         11    1    1    2    0    0  0.39340057825E+02 -0.44329628232E+01  0.74139022401E+02  0.84046927080E+02  0.00000000000E+00 0. -1.
<mgrwt>
<rscale>  0 0.13290973E+03</rscale>
<asrwt>0</asrwt>
<pdfrwt beam="1">  1        1 0.11478212E+00 0.14080773E+03</pdfrwt>
<pdfrwt beam="2">  1       -1 0.33338492E-02 0.14080773E+03</pdfrwt>
<totfact> 0.79787076E+03</totfact>
</mgrwt>
</event>
<event>
 7    1  0.8712071E-006  0.2031843E+03  0.7546771E-02  0.1150652E+00
         -1   -1    0    0    0  501 -0.00000000000E+00  0.00000000000E+00  0.26688760204E+03  0.26688760204E+03  0.00000000000E+00 0.  1.
          1   -1    0    0  501    0  0.00000000000E+00 -0.00000000000E+00 -0.15325685995E+03  0.15325685995E+03  0.00000000000E+00 0. -1.
         23    2    1    2    0    0  0.15594300094E+03  0.36625426344E+02  0.11500654297E+03  0.23347458146E+03  0.12499693543E+03 0.  0.
          5    1    3    3  502    0  0.60965629960E+02  0.55883238185E+02 -0.22443860000E+00  0.82836493885E+02  0.47000000000E+01 0. -1.
         -5    1    3    3    0  502  0.94977370978E+02 -0.19257811842E+02  0.11523098157E+03  0.15063808758E+03  0.47000000000E+01 0. -1.
        -11    1    1    2    0    0 -0.14629371151E+03 -0.14295260412E+02  0.26834468127E+02  0.14941985536E+03  0.00000000000E+00 0.  1.
         11    1    1    2    0    0 -0.96492894324E+01 -0.22330165932E+02 -0.28210269014E+02  0.37250025167E+02  0.00000000000E+00 0. -1.
<mgrwt>
<rscale>  0 0.19892221E+03</rscale>
<asrwt>0</asrwt>
<pdfrwt beam="2">  1        1 0.23577978E-01 0.20318434E+03</pdfrwt>
<pdfrwt beam="1">  1       -1 0.41059631E-01 0.20318434E+03</pdfrwt>
<totfact> 0.12088660E+03</totfact>
</mgrwt>
</event>
<event>
 7    1  0.8712071E-006  0.1312952E+03  0.7546771E-02  0.1271652E+00
          3   -1    0    0  501    0  0.00000000000E+00  0.00000000000E+00  0.15838488807E+03  0.15838488807E+03  0.00000000000E+00 0. -1.
         -3   -1    0    0    0  501 -0.00000000000E+00 -0.00000000000E+00 -0.76322599308E+02  0.76322599308E+02  0.00000000000E+00 0.  1.
         23    2    1    2    0    0 -0.36895550507E+02  0.15887115830E+02 -0.70265384469E+01  0.13148309046E+03  0.12499899494E+03 0.  0.
          5    1    3    3  502    0 -0.69348448840E+02 -0.17696316382E+02  0.23518106435E+02  0.75482172069E+02  0.47000000000E+01 0.  1.
         -5    1    3    3    0  502  0.32452898333E+02  0.33583432212E+02 -0.30544644882E+02  0.56000918388E+02  0.47000000000E+01 0.  1.
        -11    1    1    2    0    0  0.33590536301E+02 -0.24060412349E+01  0.40398276974E+02  0.52594048579E+02  0.00000000000E+00 0.  1.
         11    1    1    2    0    0  0.33050142056E+01 -0.13481074595E+02  0.48690550232E+02  0.50630348340E+02  0.00000000000E+00 0. -1.
<mgrwt>
<rscale>  0 0.10422621E+03</rscale>
<asrwt>0</asrwt>
<pdfrwt beam="1">  1        3 0.24366906E-01 0.13129520E+03</pdfrwt>
<pdfrwt beam="2">  1       -3 0.11741938E-01 0.13129520E+03</pdfrwt>
<totfact> 0.20221448E+03</totfact>
</mgrwt>
</event>
<event>
 7    1  0.8712071E-006  0.1329898E+03  0.7546771E-02  0.1235852E+00
          3   -1    0    0  501    0  0.00000000000E+00  0.00000000000E+00  0.68204006392E+02  0.68204006392E+02  0.00000000000E+00 0. -1.
         -3   -1    0    0    0  501 -0.00000000000E+00 -0.00000000000E+00 -0.20516279118E+03  0.20516279118E+03  0.00000000000E+00 0.  1.
         23    2    1    2    0    0  0.18577417535E+02  0.41423543241E+02 -0.92312960744E+02  0.16188874061E+03  0.12500100494E+03 0.  0.
          5    1    3    3  502    0  0.59338757318E+02  0.31627274008E+02 -0.98394118627E+02  0.11926803915E+03  0.47000000000E+01 0. -1.
         -5    1    3    3    0  502 -0.40761339783E+02  0.97962692321E+01  0.60811578835E+01  0.42620701461E+02  0.47000000000E+01 0. -1.
        -11    1    1    2    0    0 -0.29079244834E+02  0.11722855444E+02 -0.47852508546E+02  0.57209181029E+02  0.00000000000E+00 0.  1.
         11    1    1    2    0    0  0.10501827300E+02 -0.53146398685E+02  0.32066845029E+01  0.54268875936E+02  0.00000000000E+00 0. -1.
<mgrwt>
<rscale>  0 0.12450036E+03</rscale>
<asrwt>0</asrwt>
<pdfrwt beam="1">  1        3 0.10492924E-01 0.13298978E+03</pdfrwt>
<pdfrwt beam="2">  1       -3 0.31563506E-01 0.13298978E+03</pdfrwt>
<totfact> 0.15221344E+03</totfact>
</mgrwt>
</event>
<event>
 7    1  0.8712071E-006  0.1776739E+03  0.7546771E-02  0.1175852E+00
          2   -1    0    0  501    0  0.00000000000E+00  0.00000000000E+00  0.32360271183E+03  0.32360271183E+03  0.00000000000E+00 0. -1.
         -2   -1    0    0    0  501 -0.00000000000E+00 -0.00000000000E+00 -0.87392638344E+02  0.87392638344E+02  0.00000000000E+00 0.  1.
         23    2    1    2    0    0 -0.10647325122E+03 -0.67822821520E+02  0.98940098629E+02  0.20336458545E+03  0.12502608990E+03 0.  0.
          5    1    3    3  502    0 -0.69505723698E+02  0.27547099510E+02  0.48304405363E+02  0.89136378071E+02  0.47000000000E+01 0.  1.
         -5    1    3    3    0  502 -0.36967527517E+02 -0.95369921030E+02  0.50635693266E+02  0.11422820738E+03  0.47000000000E+01 0.  1.
        -11    1    1    2    0    0  0.87605313604E+02  0.45787698737E+02  0.40878214436E+02  0.10696837263E+03  0.00000000000E+00 0.  1.
         11    1    1    2    0    0  0.18867937611E+02  0.22035122783E+02  0.96391760421E+02  0.10066239210E+03  0.00000000000E+00 0. -1.
<mgrwt>
<rscale>  0 0.17192768E+03</rscale>
<asrwt>0</asrwt>
<pdfrwt beam="1">  1        2 0.49785032E-01 0.17767389E+03</pdfrwt>
<pdfrwt beam="2">  1       -2 0.13445021E-01 0.17767389E+03</pdfrwt>
<totfact> 0.40347760E+03</totfact>
</mgrwt>
</event>
<event>
 7    1  0.8712071E-006  0.1310435E+03  0.7546771E-02  0.1238934E+00
         -2   -1    0    0    0  501 -0.00000000000E+00  0.00000000000E+00  0.86738261657E+02  0.86738261657E+02  0.00000000000E+00 0.  1.
          2   -1    0    0  501    0  0.00000000000E+00 -0.00000000000E+00 -0.21102153685E+03  0.21102153685E+03  0.00000000000E+00 0. -1.
         23    2    1    2    0    0 -0.15387497196E+02  0.36201744339E+02  0.85653034011E+01  0.13132315628E+03  0.12500026236E+03 0.  0.
          5    1    3    3  502    0 -0.42260823527E+01  0.82296608212E+02  0.12592661663E+02  0.83494051423E+02  0.47000000000E+01 0. -1.
         -5    1    3    3    0  502 -0.11161414843E+02 -0.46094863873E+02 -0.40273582623E+01  0.47829104856E+02  0.47000000000E+01 0. -1.
        -11    1    1    2    0    0 -0.30822260253E+02  0.12264897630E+02 -0.40176475087E+02  0.52101713901E+02  0.00000000000E+00 0.  1.
         11    1    1    2    0    0  0.46209757449E+02 -0.48466641969E+02 -0.92672103507E+02  0.11433492833E+03  0.00000000000E+00 0. -1.
<mgrwt>
<rscale>  0 0.12255907E+03</rscale>
<asrwt>0</asrwt>
<pdfrwt beam="2">  1        2 0.32464852E-01 0.13104353E+03</pdfrwt>
<pdfrwt beam="1">  1       -2 0.13344348E-01 0.13104353E+03</pdfrwt>
<totfact> 0.63401844E+03</totfact>
</mgrwt>
</event>
<event>
 7    1  0.8712071E-006  0.1330814E+03  0.7546771E-02  0.1237251E+00
          2   -1    0    0  501    0  0.00000000000E+00  0.00000000000E+00  0.15501286096E+03  0.15501286096E+03  0.00000000000E+00 0.  1.
         -2   -1    0    0    0  501 -0.00000000000E+00 -0.00000000000E+00 -0.89740731850E+02  0.89740731850E+02  0.00000000000E+00 0. -1.
         23    2    1    2    0    0 -0.31257668129E+02 -0.33314492739E+02  0.15780775164E+02  0.13401374469E+03  0.12499501453E+03 0.  0.
          5    1    3    3  502    0 -0.54670161329E+02  0.31352688569E+02 -0.42650302034E+00  0.63198809523E+02  0.47000000000E+01 0.  1.
         -5    1    3    3    0  502  0.23412493201E+02 -0.64667181308E+02  0.16207278184E+02  0.70814935164E+02  0.47000000000E+01 0.  1.
        -11    1    1    2    0    0 -0.57406261134E+00 -0.18955827993E+02  0.45634700271E+02  0.49418405798E+02  0.00000000000E+00 0.  1.
         11    1    1    2    0    0  0.31831730740E+02  0.52270320732E+02  0.38566536760E+01  0.61321442325E+02  0.00000000000E+00 0. -1.
<mgrwt>
<rscale>  0 0.12361417E+03</rscale>
<asrwt>0</asrwt>
<pdfrwt beam="1">  1        2 0.23848132E-01 0.13308137E+03</pdfrwt>
<pdfrwt beam="2">  1       -2 0.13806266E-01 0.13308137E+03</pdfrwt>
<totfact> 0.84097894E+03</totfact>
</mgrwt>
</event>
<event>
 7    1  0.8712071E-006  0.1351663E+03  0.7546771E-02  0.1230945E+00
          1   -1    0    0  501    0  0.00000000000E+00  0.00000000000E+00  0.22008833990E+03  0.22008833990E+03  0.00000000000E+00 0. -1.
         -1   -1    0    0    0  501 -0.00000000000E+00 -0.00000000000E+00 -0.67523588424E+02  0.67523588424E+02  0.00000000000E+00 0.  1.
         23    2    1    2    0    0  0.51127009785E+02  0.58443494335E+01  0.98054555322E+02  0.16698689659E+03  0.12498720040E+03 0.  0.
          5    1    3    3  502    0  0.57830467592E+02 -0.30032346353E+02  0.11030588850E+03  0.12820212107E+03  0.47000000000E+01 0. -1.
         -5    1    3    3    0  502 -0.67034578074E+01  0.35876695787E+02 -0.12251333182E+02  0.38784775516E+02  0.47000000000E+01 0. -1.
        -11    1    1    2    0    0 -0.12732984185E+02  0.19157173553E+02  0.68870566881E+02  0.72610475603E+02  0.00000000000E+00 0. -1.
         11    1    1    2    0    0 -0.38394025600E+02 -0.25001522987E+02 -0.14360370723E+02  0.48014556134E+02  0.00000000000E+00 0.  1.
<mgrwt>
<rscale>  0 0.12767632E+03</rscale>
<asrwt>0</asrwt>
<pdfrwt beam="1">  1        1 0.33859744E-01 0.13516630E+03</pdfrwt>
<pdfrwt beam="2">  1       -1 0.10388244E-01 0.13516630E+03</pdfrwt>
<totfact> 0.70821479E+03</totfact>
</mgrwt>
</event>
<event>
 7    1  0.8712071E-006  0.1524572E+03  0.7546771E-02  0.1204091E+00
          4   -1    0    0  501    0  0.00000000000E+00  0.00000000000E+00  0.12732151647E+03  0.12732151647E+03  0.00000000000E+00 0. -1.
         -4   -1    0    0    0  501 -0.00000000000E+00 -0.00000000000E+00 -0.15951673228E+03  0.15951673228E+03  0.00000000000E+00 0.  1.
         23    2    1    2    0    0 -0.59289224147E+02 -0.64054778594E+02 -0.25388013685E+02  0.15455662033E+03  0.12499988355E+03 0.  0.
          5    1    3    3  502    0 -0.36920235304E+02  0.16494359841E+02 -0.52602635999E+02  0.66515374129E+02  0.47000000000E+01 0.  1.
         -5    1    3    3    0  502 -0.22368988842E+02 -0.80549138435E+02  0.27214622313E+02  0.88041246198E+02  0.47000000000E+01 0.  1.
        -11    1    1    2    0    0  0.28050351830E+02  0.36816804586E+01 -0.45861151842E+02  0.53885269389E+02  0.00000000000E+00 0.  1.
         11    1    1    2    0    0  0.31238872316E+02  0.60373098136E+02  0.39053949711E+02  0.78396359036E+02  0.00000000000E+00 0. -1.
<mgrwt>
<rscale>  0 0.14709296E+03</rscale>
<asrwt>0</asrwt>
<pdfrwt beam="1">  1        4 0.19587926E-01 0.15245720E+03</pdfrwt>
<pdfrwt beam="2">  1       -4 0.24541035E-01 0.15245720E+03</pdfrwt>
<totfact> 0.61551966E+02</totfact>
</mgrwt>
</event>
<event>
 7    1  0.8712071E-006  0.1629029E+03  0.7546771E-02  0.1192882E+00
          2   -1    0    0  501    0  0.00000000000E+00  0.00000000000E+00  0.29291830239E+03  0.29291830239E+03  0.00000000000E+00 0. -1.
         -2   -1    0    0    0  501 -0.00000000000E+00 -0.00000000000E+00 -0.12492409476E+03  0.12492409476E+03  0.00000000000E+00 0.  1.
         23    2    1    2    0    0  0.18207825586E+02 -0.10285993936E+03 -0.40339916525E+02  0.16782332134E+03  0.12500266509E+03 0.  0.
          5    1    3    3  502    0  0.73781585903E+01  0.27534245697E+02  0.48940437666E+01  0.29302108707E+02  0.47000000000E+01 0.  1.
         -5    1    3    3    0  502  0.10829666996E+02 -0.13039418506E+03 -0.45233960292E+02  0.13852121263E+03  0.47000000000E+01 0.  1.
        -11    1    1    2    0    0 -0.19172609587E+02  0.57069837071E+02  0.32700347032E+02  0.68511808892E+02  0.00000000000E+00 0.  1.
         11    1    1    2    0    0  0.96478400069E+00  0.45790102291E+02  0.17563377713E+03  0.18150726692E+03  0.00000000000E+00 0. -1.
<mgrwt>
<rscale>  0 0.15634863E+03</rscale>
<asrwt>0</asrwt>
<pdfrwt beam="1">  1        2 0.45064354E-01 0.16290291E+03</pdfrwt>
<pdfrwt beam="2">  1       -2 0.19219092E-01 0.16290291E+03</pdfrwt>
<totfact> 0.24744510E+03</totfact>
</mgrwt>
</event>
<event>
 7    1  0.8712071E-006  0.1410197E+03  0.7546771E-02  0.1223000E+00
         -1   -1    0    0    0  501 -0.00000000000E+00  0.00000000000E+00  0.17671965438E+03  0.17671965438E+03  0.00000000000E+00 0.  1.
          1   -1    0    0  501    0  0.00000000000E+00 -0.00000000000E+00 -0.10708618497E+03  0.10708618497E+03  0.00000000000E+00 0. -1.
         23    2    1    2    0    0 -0.63091688683E+02 -0.16764111755E+02  0.93950869443E+02  0.16945008682E+03  0.12499987772E+03 0.  0.
          5    1    3    3  502    0 -0.24789316579E+02 -0.41543178802E+02  0.11048233251E+03  0.12070120844E+03  0.47000000000E+01 0.  1.
         -5    1    3    3    0  502 -0.38302372104E+02  0.24779067047E+02 -0.16531463065E+02  0.48748878382E+02  0.47000000000E+01 0.  1.
        -11    1    1    2    0    0  0.49857977216E+02 -0.17753665232E+02  0.20059337907E+02  0.56598476645E+02  0.00000000000E+00 0.  1.
         11    1    1    2    0    0  0.13233711467E+02  0.34517776987E+02 -0.44376737946E+02  0.57757275888E+02  0.00000000000E+00 0. -1.
<mgrwt>
<rscale>  0 0.13304925E+03</rscale>
<asrwt>0</asrwt>
<pdfrwt beam="2">  1        1 0.16474798E-01 0.14101974E+03</pdfrwt>
<pdfrwt beam="1">  1       -1 0.27187639E-01 0.14101974E+03</pdfrwt>
<totfact> 0.38284200E+03</totfact>
</mgrwt>
</event>
<event>
 7    1  0.8712071E-006  0.1590210E+03  0.7546771E-02  0.1196700E+00
         -2   -1    0    0    0  501 -0.00000000000E+00  0.00000000000E+00  0.52527601471E+03  0.52527601471E+03  0.00000000000E+00 0.  1.
          2   -1    0    0  501    0  0.00000000000E+00 -0.00000000000E+00 -0.41736799221E+02  0.41736799221E+02  0.00000000000E+00 0. -1.
         23    2    1    2    0    0  0.38040007857E+01  0.98235703046E+02  0.27536317943E+03  0.31798200134E+03  0.12499179499E+03 0.  0.
          5    1    3    3  502    0  0.11824656344E+02  0.45757990678E+01 -0.10437749859E+02  0.17082068285E+02  0.47000000000E+01 0. -1.
         -5    1    3    3    0  502 -0.80206555588E+01  0.93659903978E+02  0.28580092929E+03  0.30089993305E+03  0.47000000000E+01 0. -1.
        -11    1    1    2    0    0 -0.21967925780E+02  0.92501069711E+00  0.54959453247E+01  0.22663866018E+02  0.00000000000E+00 0. -1.
         11    1    1    2    0    0  0.18163924995E+02 -0.99160713743E+02  0.20268009074E+03  0.22636694658E+03  0.00000000000E+00 0.  1.
<mgrwt>
<rscale>  0 0.15311237E+03</rscale>
<asrwt>0</asrwt>
<pdfrwt beam="2">  1        2 0.64210464E-02 0.15902098E+03</pdfrwt>
<pdfrwt beam="1">  1       -2 0.80811690E-01 0.15902098E+03</pdfrwt>
<totfact> 0.15343877E+03</totfact>
</mgrwt>
</event>
<event>
 6    1  0.8712071E-006  0.1784810E+03  0.7546771E-02  0.1195463E+00
         -1   -1    0    0    0  501 -0.00000000000E+00  0.00000000000E+00  0.14083665394E+03  0.14083665394E+03  0.00000000000E+00 0.  1.
          1   -1    0    0  501    0  0.00000000000E+00 -0.00000000000E+00 -0.13734869103E+03  0.13734869103E+03  0.00000000000E+00 0. -1.
          5    1    1    2  502    0  0.14143385300E+02 -0.61603315264E+02 -0.46074906372E+02  0.78358093369E+02  0.47000000000E+01 0. -1.
         -5    1    1    2    0  502 -0.16345093122E+02  0.89608442138E+02  0.41445102605E+02  0.10018294017E+03  0.47000000000E+01 0.  1.
        -11    1    1    2    0    0 -0.12379382641E+01 -0.58476699907E+02 -0.15991569377E+02  0.60636517169E+02  0.00000000000E+00 0. -1.
         11    1    1    2    0    0  0.34396460861E+01  0.30471573034E+02  0.24109336056E+02  0.39007794265E+02  0.00000000000E+00 0.  1.
<mgrwt>
<rscale>  0 0.15415074E+03</rscale>
<asrwt>0</asrwt>
<pdfrwt beam="2">  1        1 0.21130568E-01 0.17848099E+03</pdfrwt>
<pdfrwt beam="1">  1       -1 0.21667177E-01 0.17848099E+03</pdfrwt>
<totfact> 0.40917634E+03</totfact>
</mgrwt>
</event>
<event>
 7    1  0.8712071E-006  0.2343344E+03  0.7546771E-02  0.1126498E+00
          1   -1    0    0  501    0  0.00000000000E+00  0.00000000000E+00  0.41765402459E+02  0.41765402459E+02  0.00000000000E+00 0. -1.
         -1   -1    0    0    0  501 -0.00000000000E+00 -0.00000000000E+00 -0.13981009063E+04  0.13981009063E+04  0.00000000000E+00 0.  1.
         23    2    1    2    0    0 -0.18449201887E+03  0.72458546523E+02 -0.95176115260E+03  0.98018462194E+03  0.12500022200E+03 0.  0.
          5    1    3    3  502    0  0.72005863573E+01  0.35943522621E+02 -0.10832553951E+03  0.11445653224E+03  0.47000000000E+01 0. -1.
         -5    1    3    3    0  502 -0.19169260523E+03  0.36515023902E+02 -0.84343561309E+03  0.86572808970E+03  0.47000000000E+01 0. -1.
        -11    1    1    2    0    0  0.33157536998E+02 -0.28139572235E+02 -0.18061233866E+03  0.18577425726E+03  0.00000000000E+00 0.  1.
         11    1    1    2    0    0  0.15133448187E+03 -0.44318974288E+02 -0.22396201257E+03  0.27390742955E+03  0.00000000000E+00 0. -1.
<mgrwt>
<rscale>  0 0.23020168E+03</rscale>
<asrwt>0</asrwt>
<pdfrwt beam="1">  1        1 0.64254474E-02 0.23433438E+03</pdfrwt>
<pdfrwt beam="2">  1       -1 0.21509242E+00 0.23433438E+03</pdfrwt>
<totfact> 0.15661925E+02</totfact>
</mgrwt>
</event>
<event>
 7    1  0.8712071E-006  0.1813914E+03  0.7546771E-02  0.1171927E+00
         -3   -1    0    0    0  501 -0.00000000000E+00  0.00000000000E+00  0.61947841727E+02  0.61947841727E+02  0.00000000000E+00 0.  1.
          3   -1    0    0  501    0  0.00000000000E+00 -0.00000000000E+00 -0.49463492508E+03  0.49463492508E+03  0.00000000000E+00 0. -1.
         23    2    1    2    0    0  0.91421132296E+02 -0.94442217061E+02 -0.16784145196E+03  0.24713073148E+03  0.12500275858E+03 0.  0.
          5    1    3    3  502    0  0.11264521130E+03 -0.57722611877E+02 -0.15946122714E+03  0.20364384722E+03  0.47000000000E+01 0. -1.
         -5    1    3    3    0  502 -0.21224079007E+02 -0.36719605185E+02 -0.83802248240E+01  0.43486884261E+02  0.47000000000E+01 0. -1.
        -11    1    1    2    0    0 -0.61138062544E+02  0.10977149850E+03 -0.19843490070E+03  0.23487029269E+03  0.00000000000E+00 0.  1.
         11    1    1    2    0    0 -0.30283069752E+02 -0.15329281435E+02 -0.66410730696E+02  0.74581742635E+02  0.00000000000E+00 0. -1.
<mgrwt>
<rscale>  0 0.17580423E+03</rscale>
<asrwt>0</asrwt>
<pdfrwt beam="2">  1        3 0.76097679E-01 0.18139142E+03</pdfrwt>
<pdfrwt beam="1">  1       -3 0.95304374E-02 0.18139142E+03</pdfrwt>
<totfact> 0.32123746E+02</totfact>
</mgrwt>
</event>
<event>
 7    1  0.8712071E-006  0.1321983E+03  0.7546771E-02  0.1237968E+00
          2   -1    0    0  501    0  0.00000000000E+00  0.00000000000E+00  0.25085995385E+03  0.25085995385E+03  0.00000000000E+00 0. -1.
         -2   -1    0    0    0  501 -0.00000000000E+00 -0.00000000000E+00 -0.54466348242E+02  0.54466348242E+02  0.00000000000E+00 0.  1.
         23    2    1    2    0    0 -0.36422215381E+02 -0.22901523949E+02  0.92115093939E+02  0.16112599270E+03  0.12500134968E+03 0.  0.
          5    1    3    3  502    0 -0.26908165499E+02 -0.19160887566E+01 -0.27744320258E+02  0.38981509376E+02  0.47000000000E+01 0.  1.
         -5    1    3    3    0  502 -0.95140498822E+01 -0.20985435193E+02  0.11985941420E+03  0.12214448333E+03  0.47000000000E+01 0.  1.
        -11    1    1    2    0    0  0.51198144459E+02  0.39309231227E+02  0.39295686382E+02  0.75568621953E+02  0.00000000000E+00 0.  1.
         11    1    1    2    0    0 -0.14775929077E+02 -0.16407707278E+02  0.64982825289E+02  0.68631687440E+02  0.00000000000E+00 0. -1.
<mgrwt>
<rscale>  0 0.12316346E+03</rscale>
<asrwt>0</asrwt>
<pdfrwt beam="1">  1        2 0.38593838E-01 0.13219832E+03</pdfrwt>
<pdfrwt beam="2">  1       -2 0.83794383E-02 0.13219832E+03</pdfrwt>
<totfact> 0.10990600E+04</totfact>
</mgrwt>
</event>
<event>
 7    1  0.8712071E-006  0.1428707E+03  0.7546771E-02  0.1219868E+00
         -2   -1    0    0    0  501 -0.00000000000E+00  0.00000000000E+00  0.37913261852E+02  0.37913261852E+02  0.00000000000E+00 0. -1.
          2   -1    0    0  501    0  0.00000000000E+00 -0.00000000000E+00 -0.52311967551E+03  0.52311967551E+03  0.00000000000E+00 0.  1.
         23    2    1    2    0    0 -0.68455635050E+02 -0.10063457059E+02 -0.15190781828E+03  0.20853781138E+03  0.12499834553E+03 0.  0.
          5    1    3    3  502    0 -0.27786565222E+02  0.15685329504E+01 -0.16229289504E+03  0.16472895096E+03  0.47000000000E+01 0.  1.
         -5    1    3    3    0  502 -0.40669069828E+02 -0.11631990009E+02  0.10385076765E+02  0.43808860424E+02  0.47000000000E+01 0.  1.
        -11    1    1    2    0    0  0.91317752803E+02  0.79673618829E+01 -0.26000702373E+03  0.27569197163E+03  0.00000000000E+00 0. -1.
         11    1    1    2    0    0 -0.22862117754E+02  0.20960951758E+01 -0.73291571644E+02  0.76803154344E+02  0.00000000000E+00 0.  1.
<mgrwt>
<rscale>  0 0.13524910E+03</rscale>
<asrwt>0</asrwt>
<pdfrwt beam="2">  1        2 0.80479955E-01 0.14287069E+03</pdfrwt>
<pdfrwt beam="1">  1       -2 0.58328092E-02 0.14287069E+03</pdfrwt>
<totfact> 0.87602235E+03</totfact>
</mgrwt>
</event>
<event>
 7    1  0.8712071E-006  0.1613791E+03  0.7546771E-02  0.1194519E+00
          2   -1    0    0  501    0  0.00000000000E+00  0.00000000000E+00  0.55138773863E+03  0.55138773863E+03  0.00000000000E+00 0. -1.
         -2   -1    0    0    0  501 -0.00000000000E+00 -0.00000000000E+00 -0.44365082318E+02  0.44365082318E+02  0.00000000000E+00 0.  1.
         23    2    1    2    0    0  0.67361400545E+02  0.76690881274E+02  0.18356864337E+03  0.24441905867E+03  0.12499671939E+03 0.  0.
          5    1    3    3  502    0  0.42930880315E+02 -0.28186913988E+02  0.78275835057E+02  0.93737713641E+02  0.47000000000E+01 0. -1.
         -5    1    3    3    0  502  0.24430520229E+02  0.10487779526E+03  0.10529280831E+03  0.15068134503E+03  0.47000000000E+01 0. -1.
        -11    1    1    2    0    0 -0.10164593455E+02 -0.43887997056E+02  0.39785098252E+02  0.60102656252E+02  0.00000000000E+00 0.  1.
         11    1    1    2    0    0 -0.57196807090E+02 -0.32802884219E+02  0.28366891469E+03  0.29123110602E+03  0.00000000000E+00 0. -1.
<mgrwt>
<rscale>  0 0.15495035E+03</rscale>
<asrwt>0</asrwt>
<pdfrwt beam="1">  1        2 0.84828878E-01 0.16137915E+03</pdfrwt>
<pdfrwt beam="2">  1       -2 0.68253977E-02 0.16137915E+03</pdfrwt>
<totfact> 0.65465839E+03</totfact>
</mgrwt>
</event>
<event>
 7    1  0.8712071E-006  0.1567693E+03  0.7546771E-02  0.1200308E+00
          2   -1    0    0  501    0  0.00000000000E+00  0.00000000000E+00  0.33507046783E+03  0.33507046783E+03  0.00000000000E+00 0. -1.
         -2   -1    0    0    0  501 -0.00000000000E+00 -0.00000000000E+00 -0.68585394635E+02  0.68585394635E+02  0.00000000000E+00 0.  1.
         23    2    1    2    0    0  0.80865214361E+02 -0.49130761555E+02  0.82093331883E+02  0.17696305005E+03  0.12499436515E+03 0.  0.
          5    1    3    3  502    0  0.24884687312E+02 -0.70653511188E+02 -0.16280504308E+00  0.75055198430E+02  0.47000000000E+01 0.  1.
         -5    1    3    3    0  502  0.55980527049E+02  0.21522749633E+02  0.82256136926E+02  0.10190785162E+03  0.47000000000E+01 0.  1.
        -11    1    1    2    0    0 -0.78425509588E+02 -0.33930975265E+00  0.85061259534E+02  0.11569828676E+03  0.00000000000E+00 0.  1.
         11    1    1    2    0    0 -0.24397047727E+01  0.49470071308E+02  0.99330481775E+02  0.11099452565E+03  0.00000000000E+00 0. -1.
<mgrwt>
<rscale>  0 0.15013468E+03</rscale>
<asrwt>0</asrwt>
<pdfrwt beam="1">  1        2 0.51549302E-01 0.15676928E+03</pdfrwt>
<pdfrwt beam="2">  1       -2 0.10551599E-01 0.15676928E+03</pdfrwt>
<totfact> 0.56975814E+03</totfact>
</mgrwt>
</event>
<event>
 6    1  0.8712071E-006  0.1665546E+03  0.7546771E-02  0.1205224E+00
         -3   -1    0    0    0  501 -0.00000000000E+00  0.00000000000E+00  0.22793144741E+03  0.22793144741E+03  0.00000000000E+00 0.  1.
          3   -1    0    0  501    0  0.00000000000E+00 -0.00000000000E+00 -0.78434121567E+02  0.78434121567E+02  0.00000000000E+00 0. -1.
          5    1    1    2  502    0 -0.42852419106E+02  0.38781963357E+02 -0.44519468362E+01  0.58157375592E+02  0.47000000000E+01 0. -1.
         -5    1    1    2    0  502  0.77956943402E+02 -0.26363165611E+02  0.11598747121E+03  0.14229365764E+03  0.47000000000E+01 0.  1.
        -11    1    1    2    0    0 -0.58882744292E+02  0.15165728298E+01 -0.12418541739E+00  0.58902402247E+02  0.00000000000E+00 0. -1.
         11    1    1    2    0    0  0.23778219996E+02 -0.13935370576E+02  0.38085986883E+02  0.47012133499E+02  0.00000000000E+00 0.  1.
<mgrwt>
<rscale>  0 0.14619821E+03</rscale>
<asrwt>0</asrwt>
<pdfrwt beam="2">  1        3 0.12066788E-01 0.16655463E+03</pdfrwt>
<pdfrwt beam="1">  1       -3 0.35066376E-01 0.16655463E+03</pdfrwt>
<totfact> 0.10243495E+03</totfact>
</mgrwt>
</event>
<event>
 7    1  0.8712071E-006  0.1333411E+03  0.7546771E-02  0.1235213E+00
         -1   -1    0    0    0  501 -0.00000000000E+00  0.00000000000E+00  0.73677355640E+02  0.73677355640E+02  0.00000000000E+00 0.  1.
          1   -1    0    0  501    0  0.00000000000E+00 -0.00000000000E+00 -0.18942720304E+03  0.18942720304E+03  0.00000000000E+00 0. -1.
         23    2    1    2    0    0 -0.45525661896E+02  0.90720254170E+01 -0.59285929307E+02  0.14592689665E+03  0.12499980086E+03 0.  0.
          5    1    3    3  502    0 -0.14964913137E+02  0.31338151486E+02  0.31718861330E+02  0.47267372762E+02  0.47000000000E+01 0. -1.
         -5    1    3    3    0  502 -0.30560748759E+02 -0.22266126069E+02 -0.91004790637E+02  0.98659523887E+02  0.47000000000E+01 0. -1.
        -11    1    1    2    0    0 -0.71132025425E+01 -0.34615150388E+02 -0.45564374951E+02  0.57662106721E+02  0.00000000000E+00 0.  1.
         11    1    1    2    0    0  0.52638864439E+02  0.25543124971E+02 -0.10899543138E+02  0.59515555305E+02  0.00000000000E+00 0. -1.
<mgrwt>
<rscale>  0 0.12490808E+03</rscale>
<asrwt>0</asrwt>
<pdfrwt beam="2">  1        1 0.29142647E-01 0.13334106E+03</pdfrwt>
<pdfrwt beam="1">  1       -1 0.11334978E-01 0.13334106E+03</pdfrwt>
<totfact> 0.74573666E+03</totfact>
</mgrwt>
</event>
<event>
 7    1  0.8712071E-006  0.1469564E+03  0.7546771E-02  0.1213875E+00
         -2   -1    0    0    0  501 -0.00000000000E+00  0.00000000000E+00  0.22442846804E+03  0.22442846804E+03  0.00000000000E+00 0.  1.
          2   -1    0    0  501    0  0.00000000000E+00 -0.00000000000E+00 -0.79181777734E+02  0.79181777734E+02  0.00000000000E+00 0. -1.
         23    2    1    2    0    0  0.25789406949E+02 -0.72790053493E+02  0.81012255236E+02  0.16780692205E+03  0.12503076498E+03 0.  0.
          5    1    3    3  502    0  0.43528455914E+02 -0.80405458095E+02  0.10324460173E+03  0.13799022411E+03  0.47000000000E+01 0.  1.
         -5    1    3    3    0  502 -0.17739048965E+02  0.76154046017E+01 -0.22232346490E+02  0.29816697937E+02  0.47000000000E+01 0.  1.
        -11    1    1    2    0    0 -0.40909399094E+02  0.22204049482E+02  0.68517401561E+02  0.82832560411E+02  0.00000000000E+00 0.  1.
         11    1    1    2    0    0  0.15119992144E+02  0.50586004012E+02 -0.42829664874E+01  0.52970763316E+02  0.00000000000E+00 0. -1.
<mgrwt>
<rscale>  0 0.13959532E+03</rscale>
<asrwt>0</asrwt>
<pdfrwt beam="2">  1        2 0.12181812E-01 0.14695638E+03</pdfrwt>
<pdfrwt beam="1">  1       -2 0.34527456E-01 0.14695638E+03</pdfrwt>
<totfact> 0.38004567E+03</totfact>
</mgrwt>
</event>
<event>
 7    1  0.8712071E-006  0.1586844E+03  0.7546771E-02  0.1198855E+00
         -1   -1    0    0    0  501 -0.00000000000E+00  0.00000000000E+00  0.28910243741E+03  0.28910243741E+03  0.00000000000E+00 0.  1.
          1   -1    0    0  501    0  0.00000000000E+00 -0.00000000000E+00 -0.75215138858E+02  0.75215138858E+02  0.00000000000E+00 0. -1.
         23    2    1    2    0    0  0.45533795024E+02 -0.86492674662E+02  0.15001610764E+03  0.21837028046E+03  0.12500575017E+03 0.  0.
          5    1    3    3  502    0  0.34032785839E+02 -0.10967753830E+03  0.71008022263E+02  0.13509856455E+03  0.47000000000E+01 0.  1.
         -5    1    3    3    0  502  0.11501009185E+02  0.23184863635E+02  0.79008085382E+02  0.83271715905E+02  0.47000000000E+01 0.  1.
        -11    1    1    2    0    0 -0.62268502461E+02  0.57523597053E+02  0.72333680900E+02  0.11143828790E+03  0.00000000000E+00 0.  1.
         11    1    1    2    0    0  0.16734707437E+02  0.28969077609E+02 -0.84624899891E+01  0.34509007916E+02  0.00000000000E+00 0. -1.
<mgrwt>
<rscale>  0 0.15132417E+03</rscale>
<asrwt>0</asrwt>
<pdfrwt beam="2">  1        1 0.11571560E-01 0.15868443E+03</pdfrwt>
<pdfrwt beam="1">  1       -1 0.44477297E-01 0.15868443E+03</pdfrwt>
<totfact> 0.26171991E+03</totfact>
</mgrwt>
</event>
<event>
 7    1  0.8712071E-006  0.1279712E+03  0.7546771E-02  0.1244821E+00
          1   -1    0    0  501    0  0.00000000000E+00  0.00000000000E+00  0.33716220121E+02  0.33716220121E+02  0.00000000000E+00 0. -1.
         -1   -1    0    0    0  501 -0.00000000000E+00 -0.00000000000E+00 -0.72302138544E+03  0.72302138544E+03  0.00000000000E+00 0.  1.
         23    2    1    2    0    0  0.20084172415E+02 -0.18643979738E+02 -0.63303523476E+03  0.64584071250E+03  0.12500258202E+03 0.  0.
          5    1    3    3  502    0  0.13875621892E+02  0.51975342820E+02 -0.34333333277E+03  0.34755407714E+03  0.47000000000E+01 0.  1.
         -5    1    3    3    0  502  0.62085505236E+01 -0.70619322558E+02 -0.28970190200E+03  0.29828663537E+03  0.47000000000E+01 0.  1.
        -11    1    1    2    0    0 -0.38401437491E+02 -0.21813709673E+02 -0.48877002905E+02  0.65874651756E+02  0.00000000000E+00 0.  1.
         11    1    1    2    0    0  0.18317265076E+02  0.40457689410E+02 -0.73929276461E+01  0.45022241298E+02  0.00000000000E+00 0. -1.
<mgrwt>
<rscale>  0 0.11896076E+03</rscale>
<asrwt>0</asrwt>
<pdfrwt beam="1">  1        1 0.51871113E-02 0.12797116E+03</pdfrwt>
<pdfrwt beam="2">  1       -1 0.11123405E+00 0.12797116E+03</pdfrwt>
<totfact> 0.12224477E+03</totfact>
</mgrwt>
</event>
<event>
 6    1  0.8712071E-006  0.3223651E+03  0.7546771E-02  0.1106006E+00
         -1   -1    0    0    0  501 -0.00000000000E+00  0.00000000000E+00  0.80014550668E+03  0.80014550668E+03  0.00000000000E+00 0.  1.
          1   -1    0    0  501    0  0.00000000000E+00 -0.00000000000E+00 -0.17215417375E+03  0.17215417375E+03  0.00000000000E+00 0. -1.
          5    1    1    2  502    0 -0.95520561283E+01 -0.14573090654E+03  0.14979091348E+03  0.20925617472E+03  0.47000000000E+01 0. -1.
         -5    1    1    2    0  502  0.77084018927E+02  0.63124762706E+02  0.58067991586E+03  0.58918412769E+03  0.47000000000E+01 0.  1.
        -11    1    1    2    0    0 -0.47718657660E+02  0.72248275896E+02 -0.11820598774E+03  0.14652487569E+03  0.00000000000E+00 0. -1.
         11    1    1    2    0    0 -0.19813305139E+02  0.10357867939E+02  0.15726491330E+02  0.27334502343E+02  0.00000000000E+00 0.  1.
<mgrwt>
<rscale>  0 0.26190168E+03</rscale>
<asrwt>0</asrwt>
<pdfrwt beam="2">  1        1 0.26485258E-01 0.32236514E+03</pdfrwt>
<pdfrwt beam="1">  1       -1 0.12309931E+00 0.32236514E+03</pdfrwt>
<totfact> 0.11052531E+02</totfact>
</mgrwt>
</event>
<event>
 7    1  0.8712071E-006  0.1886432E+03  0.7546771E-02  0.1164701E+00
         -2   -1    0    0    0  501 -0.00000000000E+00  0.00000000000E+00  0.62171869540E+03  0.62171869540E+03  0.00000000000E+00 0.  1.
          2   -1    0    0  501    0  0.00000000000E+00 -0.00000000000E+00 -0.13997809233E+03  0.13997809233E+03  0.00000000000E+00 0. -1.
         23    2    1    2    0    0  0.12135952458E+03  0.72328735151E+02  0.54920586761E+03  0.58070072768E+03  0.12500667971E+03 0.  0.
          5    1    3    3  502    0  0.39760206254E+02 -0.34442246997E+02  0.12516531759E+03  0.13585134930E+03  0.47000000000E+01 0.  1.
         -5    1    3    3    0  502  0.81599318329E+02  0.10677098215E+03  0.42404055002E+03  0.44484937837E+03  0.47000000000E+01 0.  1.
        -11    1    1    2    0    0 -0.69625027024E+02  0.69374890868E+01 -0.46603150736E+02  0.84069178665E+02  0.00000000000E+00 0. -1.
         11    1    1    2    0    0 -0.51734497559E+02 -0.79266224238E+02 -0.20862113807E+02  0.96926881386E+02  0.00000000000E+00 0.  1.
<mgrwt>
<rscale>  0 0.18324300E+03</rscale>
<asrwt>0</asrwt>
<pdfrwt beam="2">  1        2 0.21535092E-01 0.18864318E+03</pdfrwt>
<pdfrwt beam="1">  1       -2 0.95649028E-01 0.18864318E+03</pdfrwt>
<totfact> 0.24364020E+02</totfact>
</mgrwt>
</event>
<event>
 7    1  0.8712071E-006  0.1286868E+03  0.7546771E-02  0.1244778E+00
          3   -1    0    0  501    0  0.00000000000E+00  0.00000000000E+00  0.24301455326E+03  0.24301455326E+03  0.00000000000E+00 0. -1.
         -3   -1    0    0    0  501 -0.00000000000E+00 -0.00000000000E+00 -0.51041813879E+02  0.51041813879E+02  0.00000000000E+00 0.  1.
         23    2    1    2    0    0 -0.39698394094E+01  0.30345349052E+02  0.11032953770E+03  0.16950783988E+03  0.12499480412E+03 0.  0.
          5    1    3    3  502    0 -0.43785609503E+02 -0.49763759419E+01  0.10718211574E+03  0.11598292914E+03  0.47000000000E+01 0.  1.
         -5    1    3    3    0  502  0.39815770094E+02  0.35321724993E+02  0.31474219651E+01  0.53524910740E+02  0.47000000000E+01 0.  1.
        -11    1    1    2    0    0  0.66495924921E+01  0.27579112804E+02  0.55963173967E+01  0.28916142754E+02  0.00000000000E+00 0.  1.
         11    1    1    2    0    0 -0.26797530828E+01 -0.57924461856E+02  0.76046884286E+02  0.95632384512E+02  0.00000000000E+00 0. -1.
<mgrwt>
<rscale>  0 0.11898669E+03</rscale>
<asrwt>0</asrwt>
<pdfrwt beam="1">  1        3 0.37386854E-01 0.12868683E+03</pdfrwt>
<pdfrwt beam="2">  1       -3 0.78525869E-02 0.12868683E+03</pdfrwt>
<totfact> 0.17703545E+03</totfact>
</mgrwt>
</event>
<event>
 7    1  0.8712071E-006  0.1314817E+03  0.7546771E-02  0.1237539E+00
         -2   -1    0    0    0  501 -0.00000000000E+00  0.00000000000E+00  0.42868525526E+02  0.42868525526E+02  0.00000000000E+00 0. -1.
          2   -1    0    0  501    0  0.00000000000E+00 -0.00000000000E+00 -0.50607541921E+03  0.50607541921E+03  0.00000000000E+00 0.  1.
         23    2    1    2    0    0  0.32652410483E+01 -0.40654807873E+02 -0.83526958878E+02  0.15576965825E+03  0.12499583341E+03 0.  0.
          5    1    3    3  502    0  0.19407726309E+02 -0.26659973893E+02 -0.11371273913E+03  0.11849089032E+03  0.47000000000E+01 0. -1.
         -5    1    3    3    0  502 -0.16142485260E+02 -0.13994833980E+02  0.30185780255E+02  0.37278767926E+02  0.47000000000E+01 0. -1.
        -11    1    1    2    0    0  0.45207365730E+02  0.19302505064E+02 -0.18221571534E+03  0.18872959369E+03  0.00000000000E+00 0.  1.
         11    1    1    2    0    0 -0.48472606778E+02  0.21352302809E+02 -0.19746421947E+03  0.20444469280E+03  0.00000000000E+00 0. -1.
<mgrwt>
<rscale>  0 0.12343268E+03</rscale>
<asrwt>0</asrwt>
<pdfrwt beam="2">  1        2 0.77857755E-01 0.13148169E+03</pdfrwt>
<pdfrwt beam="1">  1       -2 0.65951579E-02 0.13148169E+03</pdfrwt>
<totfact> 0.75003862E+03</totfact>
</mgrwt>
</event>
<event>
 7    1  0.8712071E-006  0.1301046E+03  0.7546771E-02  0.1241191E+00
         -2   -1    0    0    0  501 -0.00000000000E+00  0.00000000000E+00  0.46570951053E+02  0.46570951053E+02  0.00000000000E+00 0.  1.
          2   -1    0    0  501    0  0.00000000000E+00 -0.00000000000E+00 -0.28730206560E+03  0.28730206560E+03  0.00000000000E+00 0. -1.
         23    2    1    2    0    0 -0.28508624854E+02  0.22129104209E+02 -0.10874385456E+03  0.16956541425E+03  0.12499905944E+03 0.  0.
          5    1    3    3  502    0 -0.60046888106E+02 -0.25734326611E+02 -0.29965103400E+02  0.72026951616E+02  0.47000000000E+01 0.  1.
         -5    1    3    3    0  502  0.31538263251E+02  0.47863430820E+02 -0.78778751164E+02  0.97538462638E+02  0.47000000000E+01 0.  1.
        -11    1    1    2    0    0  0.37770868525E+01 -0.14573557436E+02  0.11225110063E+02  0.18779192138E+02  0.00000000000E+00 0.  1.
         11    1    1    2    0    0  0.24731538002E+02 -0.75555467732E+01 -0.14321237005E+03  0.14552841026E+03  0.00000000000E+00 0. -1.
<mgrwt>
<rscale>  0 0.12116285E+03</rscale>
<asrwt>0</asrwt>
<pdfrwt beam="2">  1        2 0.44200319E-01 0.13010459E+03</pdfrwt>
<pdfrwt beam="1">  1       -2 0.71647615E-02 0.13010459E+03</pdfrwt>
<totfact> 0.12097640E+04</totfact>
</mgrwt>
</event>
<event>
 7    1  0.8712071E-006  0.1496780E+03  0.7546771E-02  0.1211029E+00
          1   -1    0    0  501    0  0.00000000000E+00  0.00000000000E+00  0.29376039425E+03  0.29376039425E+03  0.00000000000E+00 0. -1.
         -1   -1    0    0    0  501 -0.00000000000E+00 -0.00000000000E+00 -0.63422250785E+02  0.63422250785E+02  0.00000000000E+00 0.  1.
         23    2    1    2    0    0  0.40780995318E+02  0.71531455765E+02  0.10114505087E+03  0.18064832995E+03  0.12499463610E+03 0.  0.
          5    1    3    3  502    0  0.20406139032E+02  0.10603890670E+03  0.62911459019E+02  0.12506239211E+03  0.47000000000E+01 0.  1.
         -5    1    3    3    0  502  0.20374856286E+02 -0.34507450939E+02  0.38233591854E+02  0.55585937835E+02  0.47000000000E+01 0.  1.
        -11    1    1    2    0    0  0.15542158850E+02 -0.10015096818E+02 -0.44339430356E+01  0.19013698137E+02  0.00000000000E+00 0.  1.
         11    1    1    2    0    0 -0.56323154168E+02 -0.61516358947E+02  0.13362703563E+03  0.15752061695E+03  0.00000000000E+00 0. -1.
<mgrwt>
<rscale>  0 0.14172294E+03</rscale>
<asrwt>0</asrwt>
<pdfrwt beam="1">  1        1 0.45193906E-01 0.14967798E+03</pdfrwt>
<pdfrwt beam="2">  1       -1 0.97572695E-02 0.14967798E+03</pdfrwt>
<totfact> 0.54857207E+03</totfact>
</mgrwt>
</event>
<event>
 7    1  0.8712071E-006  0.1314717E+03  0.7546771E-02  0.1238492E+00
          1   -1    0    0  501    0  0.00000000000E+00  0.00000000000E+00  0.16254036298E+03  0.16254036298E+03  0.00000000000E+00 0. -1.
         -1   -1    0    0    0  501 -0.00000000000E+00 -0.00000000000E+00 -0.83912581416E+02  0.83912581416E+02  0.00000000000E+00 0.  1.
         23    2    1    2    0    0 -0.86540510440E+01 -0.39814813143E+02  0.28917529862E+02  0.13461438690E+03  0.12499879072E+03 0.  0.
          5    1    3    3  502    0 -0.22323142768E+01 -0.19398098542E+02 -0.49380172249E+02  0.53308168844E+02  0.47000000000E+01 0.  1.
         -5    1    3    3    0  502 -0.64217367672E+01 -0.20416714601E+02  0.78297702111E+02  0.81306218053E+02  0.47000000000E+01 0.  1.
        -11    1    1    2    0    0  0.23135887599E+02  0.65662647317E+02  0.27691946710E+02  0.74924605173E+02  0.00000000000E+00 0. -1.
         11    1    1    2    0    0 -0.14481836556E+02 -0.25847834174E+02  0.22018304989E+02  0.36913952323E+02  0.00000000000E+00 0.  1.
<mgrwt>
<rscale>  0 0.12283535E+03</rscale>
<asrwt>0</asrwt>
<pdfrwt beam="1">  1        1 0.25006210E-01 0.13147171E+03</pdfrwt>
<pdfrwt beam="2">  1       -1 0.12909628E-01 0.13147171E+03</pdfrwt>
<totfact> 0.73796281E+03</totfact>
</mgrwt>
</event>
<event>
 7    1  0.8712071E-006  0.3891163E+03  0.7546771E-02  0.1048450E+00
          2   -1    0    0  501    0  0.00000000000E+00  0.00000000000E+00  0.87930745721E+03  0.87930745721E+03  0.00000000000E+00 0. -1.
         -2   -1    0    0    0  501 -0.00000000000E+00 -0.00000000000E+00 -0.16853463678E+03  0.16853463678E+03  0.00000000000E+00 0.  1.
         23    2    1    2    0    0 -0.29358362972E+03 -0.22269659340E+03  0.33458929349E+03  0.51318754494E+03  0.12500536235E+03 0.  0.
          5    1    3    3  502    0 -0.70946222618E+02 -0.12887959637E+03  0.13619049794E+03  0.20053243776E+03  0.47000000000E+01 0.  1.
         -5    1    3    3    0  502 -0.22263740710E+03 -0.93816997029E+02  0.19839879554E+03  0.31265510718E+03  0.47000000000E+01 0.  1.
        -11    1    1    2    0    0  0.12785428822E+03  0.41933187641E+02  0.12662926202E+03  0.18477034730E+03  0.00000000000E+00 0.  1.
         11    1    1    2    0    0  0.16572934150E+03  0.18076340576E+03  0.24955426492E+03  0.34988420176E+03  0.00000000000E+00 0. -1.
<mgrwt>
<rscale>  0 0.38679728E+03</rscale>
<asrwt>0</asrwt>
<pdfrwt beam="1">  1        2 0.13527807E+00 0.38911626E+03</pdfrwt>
<pdfrwt beam="2">  1       -2 0.25928406E-01 0.38911626E+03</pdfrwt>
<totfact> 0.41632256E+02</totfact>
</mgrwt>
</event>
<event>
 7    1  0.8712071E-006  0.1323488E+03  0.7546771E-02  0.1237158E+00
          2   -1    0    0  501    0  0.00000000000E+00  0.00000000000E+00  0.29624503158E+03  0.29624503158E+03  0.00000000000E+00 0. -1.
         -2   -1    0    0    0  501 -0.00000000000E+00 -0.00000000000E+00 -0.52774814695E+02  0.52774814695E+02  0.00000000000E+00 0.  1.
         23    2    1    2    0    0 -0.20070779866E+02  0.38589084424E+02  0.73599383703E+02  0.15143668884E+03  0.12499699118E+03 0.  0.
          5    1    3    3  502    0 -0.40995677949E+02  0.28465829718E+02 -0.20674136185E+02  0.54225999106E+02  0.47000000000E+01 0.  1.
         -5    1    3    3    0  502  0.20924898083E+02  0.10123254706E+02  0.94273519888E+02  0.97210689729E+02  0.47000000000E+01 0.  1.
        -11    1    1    2    0    0  0.32373292349E+02  0.16415218345E+02  0.10776907582E+03  0.11371747075E+03  0.00000000000E+00 0. -1.
         11    1    1    2    0    0 -0.12302512483E+02 -0.55004302769E+02  0.62101757363E+02  0.83865686690E+02  0.00000000000E+00 0.  1.
<mgrwt>
<rscale>  0 0.12367288E+03</rscale>
<asrwt>0</asrwt>
<pdfrwt beam="1">  1        2 0.45576158E-01 0.13234879E+03</pdfrwt>
<pdfrwt beam="2">  1       -2 0.81192024E-02 0.13234879E+03</pdfrwt>
<totfact> 0.96755032E+03</totfact>
</mgrwt>
</event>
<event>
 7    1  0.8712071E-006  0.2063656E+03  0.7546771E-02  0.1148524E+00
          2   -1    0    0  501    0  0.00000000000E+00  0.00000000000E+00  0.84305321604E+03  0.84305321604E+03  0.00000000000E+00 0. -1.
         -2   -1    0    0    0  501 -0.00000000000E+00 -0.00000000000E+00 -0.46554268070E+02  0.46554268070E+02  0.00000000000E+00 0.  1.
         23    2    1    2    0    0 -0.27577015944E+02  0.16186998114E+03  0.36765121783E+03  0.42160901689E+03  0.12499745017E+03 0.  0.
          5    1    3    3  502    0  0.85320303266E+01  0.19576273592E+02  0.18931616367E+03  0.19057472513E+03  0.47000000000E+01 0. -1.
         -5    1    3    3    0  502 -0.36109046270E+02  0.14229370755E+03  0.17833505416E+03  0.23103429176E+03  0.47000000000E+01 0. -1.
        -11    1    1    2    0    0  0.54062494160E+02 -0.14567664254E+03  0.37362735229E+03  0.40465026361E+03  0.00000000000E+00 0. -1.
         11    1    1    2    0    0 -0.26485478216E+02 -0.16193338594E+02  0.55220377848E+02  0.63348203611E+02  0.00000000000E+00 0.  1.
<mgrwt>
<rscale>  0 0.20144670E+03</rscale>
<asrwt>0</asrwt>
<pdfrwt beam="1">  1        2 0.12970048E+00 0.20636556E+03</pdfrwt>
<pdfrwt beam="2">  1       -2 0.71621957E-02 0.20636556E+03</pdfrwt>
<totfact> 0.36919020E+03</totfact>
</mgrwt>
</event>
<event>
 7    1  0.8712071E-006  0.1269654E+03  0.7546771E-02  0.1245577E+00
         -1   -1    0    0    0  501 -0.00000000000E+00  0.00000000000E+00  0.28427392127E+03  0.28427392127E+03  0.00000000000E+00 0.  1.
          1   -1    0    0  501    0  0.00000000000E+00 -0.00000000000E+00 -0.55455207198E+02  0.55455207198E+02  0.00000000000E+00 0. -1.
         23    2    1    2    0    0 -0.20487946809E+02  0.87225678506E+01  0.20388225671E+03  0.24018364407E+03  0.12499747646E+03 0.  0.
          5    1    3    3  502    0  0.39494364735E+01  0.58423507595E+02  0.52012617630E+02  0.78462135332E+02  0.47000000000E+01 0.  1.
         -5    1    3    3    0  502 -0.24437383283E+02 -0.49700939744E+02  0.15186963908E+03  0.16172150874E+03  0.47000000000E+01 0.  1.
        -11    1    1    2    0    0 -0.28855045585E+02  0.23524937091E+02  0.12755763887E+02  0.39354108212E+02  0.00000000000E+00 0. -1.
         11    1    1    2    0    0  0.49342992395E+02 -0.32247504941E+02  0.12180693468E+02  0.60191376183E+02  0.00000000000E+00 0.  1.
<mgrwt>
<rscale>  0 0.11850897E+03</rscale>
<asrwt>0</asrwt>
<pdfrwt beam="2">  1        1 0.85315705E-02 0.12696538E+03</pdfrwt>
<pdfrwt beam="1">  1       -1 0.43734449E-01 0.12696538E+03</pdfrwt>
<totfact> 0.39940539E+03</totfact>
</mgrwt>
</event>
<event>
 7    1  0.8712071E-006  0.1294286E+03  0.7546771E-02  0.1241957E+00
          3   -1    0    0  501    0  0.00000000000E+00  0.00000000000E+00  0.30517390801E+02  0.30517390801E+02  0.00000000000E+00 0. -1.
         -3   -1    0    0    0  501 -0.00000000000E+00 -0.00000000000E+00 -0.47177377233E+03  0.47177377233E+03  0.00000000000E+00 0.  1.
         23    2    1    2    0    0 -0.33184879028E+02 -0.50029743001E+01 -0.32796409157E+03  0.35257937432E+03  0.12500201555E+03 0.  0.
          5    1    3    3  502    0  0.43728834992E+02 -0.14562767517E+02 -0.17509455746E+03  0.18112006863E+03  0.47000000000E+01 0. -1.
         -5    1    3    3    0  502 -0.76913714020E+02  0.95597932168E+01 -0.15286953411E+03  0.17145930569E+03  0.47000000000E+01 0. -1.
        -11    1    1    2    0    0  0.48861751824E+02  0.20580946529E+02 -0.24857339300E+02  0.58557095799E+02  0.00000000000E+00 0. -1.
         11    1    1    2    0    0 -0.15676872796E+02 -0.15577972229E+02 -0.88434950661E+02  0.91154693010E+02  0.00000000000E+00 0.  1.
<mgrwt>
<rscale>  0 0.12069376E+03</rscale>
<asrwt>0</asrwt>
<pdfrwt beam="1">  1        3 0.46949831E-02 0.12942863E+03</pdfrwt>
<pdfrwt beam="2">  1       -3 0.72580582E-01 0.12942863E+03</pdfrwt>
<totfact> 0.10617258E+03</totfact>
</mgrwt>
</event>
<event>
 7    1  0.8712071E-006  0.1321983E+03  0.7546771E-02  0.1237196E+00
          1   -1    0    0  501    0  0.00000000000E+00  0.00000000000E+00  0.15057038952E+02  0.15057038952E+02  0.00000000000E+00 0. -1.
         -1   -1    0    0    0  501 -0.00000000000E+00 -0.00000000000E+00 -0.11412125773E+04  0.11412125773E+04  0.00000000000E+00 0.  1.
         23    2    1    2    0    0  0.19439062150E+02 -0.38392482687E+02 -0.88394392751E+03  0.89377471779E+03  0.12499807728E+03 0.  0.
          5    1    3    3  502    0 -0.52656803861E+02 -0.22067091199E+02 -0.43613777369E+03  0.43988401101E+03  0.47000000000E+01 0. -1.
         -5    1    3    3    0  502  0.72095866011E+02 -0.16325391488E+02 -0.44780615382E+03  0.45389070678E+03  0.47000000000E+01 0. -1.
        -11    1    1    2    0    0  0.16919525538E+01 -0.26416872915E+02 -0.11672076718E+03  0.11968480008E+03  0.00000000000E+00 0.  1.
         11    1    1    2    0    0 -0.21131014704E+02  0.64809355601E+02 -0.12549084361E+03  0.14281009833E+03  0.00000000000E+00 0. -1.
<mgrwt>
<rscale>  0 0.12364924E+03</rscale>
<asrwt>0</asrwt>
<pdfrwt beam="1">  1        1 0.23164672E-02 0.13219826E+03</pdfrwt>
<pdfrwt beam="2">  1       -1 0.17557119E+00 0.13219826E+03</pdfrwt>
<totfact> 0.11795011E+03</totfact>
</mgrwt>
</event>
<event>
 7    1  0.8712071E-006  0.1477139E+03  0.7546771E-02  0.1211585E+00
         -2   -1    0    0    0  501 -0.00000000000E+00  0.00000000000E+00  0.23798835075E+02  0.23798835075E+02  0.00000000000E+00 0.  1.
          2   -1    0    0  501    0  0.00000000000E+00 -0.00000000000E+00 -0.80914593408E+03  0.80914593408E+03  0.00000000000E+00 0. -1.
         23    2    1    2    0    0 -0.78705751330E+02 -0.62468542623E-01 -0.51260201417E+03  0.53346060403E+03  0.12499916770E+03 0.  0.
          5    1    3    3  502    0  0.23114429641E+02 -0.32010720345E+01 -0.22137067344E+02  0.32506360460E+02  0.47000000000E+01 0. -1.
         -5    1    3    3    0  502 -0.10182018097E+03  0.31386034919E+01 -0.49046494682E+03  0.50095424357E+03  0.47000000000E+01 0. -1.
        -11    1    1    2    0    0  0.21457692826E+02  0.48134383219E+01 -0.13022845353E+01  0.22029473777E+02  0.00000000000E+00 0.  1.
         11    1    1    2    0    0  0.57248058504E+02 -0.47509697793E+01 -0.27144280030E+03  0.27745469135E+03  0.00000000000E+00 0. -1.
<mgrwt>
<rscale>  0 0.14130436E+03</rscale>
<asrwt>0</asrwt>
<pdfrwt beam="2">  1        2 0.12448397E+00 0.14771388E+03</pdfrwt>
<pdfrwt beam="1">  1       -2 0.36613597E-02 0.14771388E+03</pdfrwt>
<totfact> 0.10588290E+04</totfact>
</mgrwt>
</event>
<event>
 7    1  0.8712071E-006  0.1396871E+03  0.7546771E-02  0.1224544E+00
          3   -1    0    0  501    0  0.00000000000E+00  0.00000000000E+00  0.18090419304E+03  0.18090419304E+03  0.00000000000E+00 0. -1.
         -3   -1    0    0    0  501 -0.00000000000E+00 -0.00000000000E+00 -0.10167080245E+03  0.10167080245E+03  0.00000000000E+00 0.  1.
         23    2    1    2    0    0 -0.57021398994E+02 -0.25253564566E+02 -0.97932874133E+01  0.14002997419E+03  0.12499321073E+03 0.  0.
          5    1    3    3  502    0 -0.18535822353E+01  0.46578104780E+02  0.82136290011E+01  0.47565841875E+02  0.47000000000E+01 0. -1.
         -5    1    3    3    0  502 -0.55167816759E+02 -0.71831669345E+02 -0.18006916414E+02  0.92464132319E+02  0.47000000000E+01 0. -1.
        -11    1    1    2    0    0 -0.37602764707E+00  0.47951433085E+02  0.26957521231E+02  0.55010810598E+02  0.00000000000E+00 0.  1.
         11    1    1    2    0    0  0.57397426641E+02 -0.22697868519E+02  0.62069156767E+02  0.87534210696E+02  0.00000000000E+00 0. -1.
<mgrwt>
<rscale>  0 0.13198231E+03</rscale>
<asrwt>0</asrwt>
<pdfrwt beam="1">  1        3 0.27831414E-01 0.13968710E+03</pdfrwt>
<pdfrwt beam="2">  1       -3 0.15641662E-01 0.13968710E+03</pdfrwt>
<totfact> 0.98709341E+02</totfact>
</mgrwt>
</event>
<event>
 7    1  0.8712071E-006  0.1207486E+03  0.7546771E-02  0.1253250E+00
         -1   -1    0    0    0  501 -0.00000000000E+00  0.00000000000E+00  0.55772347215E+02  0.55772347215E+02  0.00000000000E+00 0.  1.
          1   -1    0    0  501    0  0.00000000000E+00 -0.00000000000E+00 -0.21460943940E+03  0.21460943940E+03  0.00000000000E+00 0. -1.
         23    2    1    2    0    0  0.21097885743E+02 -0.15391712041E+02 -0.70348391211E+02  0.13974662540E+03  0.11789061702E+03 0.  0.
          5    1    3    3  502    0 -0.30277574941E+02  0.36433257979E+02 -0.26551467723E+02  0.54508570606E+02  0.47000000000E+01 0. -1.
         -5    1    3    3    0  502  0.51375460684E+02 -0.51824970020E+02 -0.43796923488E+02  0.85238054794E+02  0.47000000000E+01 0.  1.
        -11    1    1    2    0    0 -0.32732833602E+02  0.64475483703E+01 -0.10403674259E+03  0.10925499112E+03  0.00000000000E+00 0. -1.
         11    1    1    2    0    0  0.11634947859E+02  0.89441636702E+01  0.15548041613E+02  0.21380170098E+02  0.00000000000E+00 0.  1.
<mgrwt>
<rscale>  0 0.11404938E+03</rscale>
<asrwt>0</asrwt>
<pdfrwt beam="2">  1        1 0.33016836E-01 0.12074859E+03</pdfrwt>
<pdfrwt beam="1">  1       -1 0.85803614E-02 0.12074859E+03</pdfrwt>
<totfact> 0.96868231E+03</totfact>
</mgrwt>
</event>
<event>
 6    1  0.8712071E-006  0.1766307E+03  0.7546771E-02  0.1195122E+00
          1   -1    0    0  501    0  0.00000000000E+00  0.00000000000E+00  0.39536509192E+03  0.39536509192E+03  0.00000000000E+00 0. -1.
         -1   -1    0    0    0  501 -0.00000000000E+00 -0.00000000000E+00 -0.49558857661E+02  0.49558857661E+02  0.00000000000E+00 0.  1.
          5    1    1    2  502    0  0.33275519121E+02  0.75417729708E+02  0.91392910104E+02  0.12316593744E+03  0.47000000000E+01 0. -1.
         -5    1    1    2    0  502  0.85387087794E+01 -0.92732234129E+02  0.13225052985E+03  0.16181615939E+03  0.47000000000E+01 0.  1.
        -11    1    1    2    0    0 -0.45203779220E+02 -0.30059674486E+02  0.78391120948E+02  0.95352679718E+02  0.00000000000E+00 0.  1.
         11    1    1    2    0    0  0.33895513203E+01  0.47374178907E+02  0.43771673359E+02  0.64589173039E+02  0.00000000000E+00 0. -1.
<mgrwt>
<rscale>  0 0.15443912E+03</rscale>
<asrwt>0</asrwt>
<pdfrwt beam="1">  1        1 0.60825397E-01 0.17663071E+03</pdfrwt>
<pdfrwt beam="2">  1       -1 0.76244399E-02 0.17663071E+03</pdfrwt>
<totfact> 0.55516057E+03</totfact>
</mgrwt>
</event>
<event>
 7    1  0.8712071E-006  0.2219037E+03  0.7546771E-02  0.1135784E+00
         -2   -1    0    0    0  501 -0.00000000000E+00  0.00000000000E+00  0.61908209081E+02  0.61908209081E+02  0.00000000000E+00 0. -1.
          2   -1    0    0  501    0  0.00000000000E+00 -0.00000000000E+00 -0.89987828513E+03  0.89987828513E+03  0.00000000000E+00 0.  1.
         23    2    1    2    0    0 -0.65310467866E+02 -0.17131898032E+03 -0.22701176641E+03  0.31745169342E+03  0.12500234131E+03 0.  0.
          5    1    3    3  502    0 -0.95093519272E+02 -0.10643644244E+03 -0.10983514289E+03  0.18015921375E+03  0.47000000000E+01 0.  1.
         -5    1    3    3    0  502  0.29783051406E+02 -0.64882537883E+02 -0.11717662352E+03  0.13729247966E+03  0.47000000000E+01 0.  1.
        -11    1    1    2    0    0  0.43478078849E+02  0.16428430308E+03 -0.58725805127E+03  0.61135234878E+03  0.00000000000E+00 0.  1.
         11    1    1    2    0    0  0.21832389018E+02  0.70346772387E+01 -0.23700258366E+02  0.32982452012E+02  0.00000000000E+00 0. -1.
<mgrwt>
<rscale>  0 0.21746861E+03</rscale>
<asrwt>0</asrwt>
<pdfrwt beam="2">  1        2 0.13844281E+00 0.22190366E+03</pdfrwt>
<pdfrwt beam="1">  1       -2 0.95243398E-02 0.22190366E+03</pdfrwt>
<totfact> 0.21724555E+03</totfact>
</mgrwt>
</event>
<event>
 7    1  0.8712071E-006  0.1365820E+03  0.7546771E-02  0.1230053E+00
         -2   -1    0    0    0  501 -0.00000000000E+00  0.00000000000E+00  0.92584360081E+02  0.92584360081E+02  0.00000000000E+00 0. -1.
          2   -1    0    0  501    0  0.00000000000E+00 -0.00000000000E+00 -0.18772529705E+03  0.18772529705E+03  0.00000000000E+00 0.  1.
         23    2    1    2    0    0  0.53450410593E+02 -0.12507546932E+02  0.16570153030E+01  0.13659204361E+03  0.12506500531E+03 0.  0.
          5    1    3    3  502    0  0.42198220837E+02 -0.21430777640E+01  0.61434170102E+02  0.74709637131E+02  0.47000000000E+01 0.  1.
         -5    1    3    3    0  502  0.11252189756E+02 -0.10364469168E+02 -0.59777154799E+02  0.61882406476E+02  0.47000000000E+01 0.  1.
        -11    1    1    2    0    0 -0.79988761613E+01  0.35923291904E+02 -0.30444491806E+01  0.36928763747E+02  0.00000000000E+00 0.  1.
         11    1    1    2    0    0 -0.45451534432E+02 -0.23415744972E+02 -0.93753503091E+02  0.10678884978E+03  0.00000000000E+00 0. -1.
<mgrwt>
<rscale>  0 0.12826476E+03</rscale>
<asrwt>0</asrwt>
<pdfrwt beam="2">  1        2 0.28880815E-01 0.13658199E+03</pdfrwt>
<pdfrwt beam="1">  1       -2 0.14243748E-01 0.13658199E+03</pdfrwt>
<totfact> 0.64916686E+03</totfact>
</mgrwt>
</event>
<event>
 7    1  0.8712071E-006  0.1324627E+03  0.7546771E-02  0.1231742E+00
         -2   -1    0    0    0  501 -0.00000000000E+00  0.00000000000E+00  0.20842514288E+03  0.20842514288E+03  0.00000000000E+00 0.  1.
          2   -1    0    0  501    0  0.00000000000E+00 -0.00000000000E+00 -0.73934186129E+02  0.73934186129E+02  0.00000000000E+00 0. -1.
         23    2    1    2    0    0 -0.59553120984E+01 -0.43464643164E+02  0.95600942091E+02  0.16335822117E+03  0.12498690870E+03 0.  0.
          5    1    3    3  502    0  0.11528762428E+02  0.16976058209E+02  0.97983155833E+02  0.10021919847E+03  0.47000000000E+01 0. -1.
         -5    1    3    3    0  502 -0.17484074526E+02 -0.60440701373E+02 -0.23822137420E+01  0.63139022694E+02  0.47000000000E+01 0. -1.
        -11    1    1    2    0    0 -0.89251833660E+01  0.43406818993E+02  0.70952099524E+02  0.83654116815E+02  0.00000000000E+00 0.  1.
         11    1    1    2    0    0  0.14880495464E+02  0.57824171217E-01 -0.32062084864E+02  0.35346991028E+02  0.00000000000E+00 0. -1.
<mgrwt>
<rscale>  0 0.12715297E+03</rscale>
<asrwt>0</asrwt>
<pdfrwt beam="2">  1        2 0.11374490E-01 0.13246271E+03</pdfrwt>
<pdfrwt beam="1">  1       -2 0.32065406E-01 0.13246271E+03</pdfrwt>
<totfact> 0.46957511E+03</totfact>
</mgrwt>
</event>
<event>
 7    1  0.8712071E-006  0.2367725E+03  0.7546771E-02  0.1125051E+00
          2   -1    0    0  501    0  0.00000000000E+00  0.00000000000E+00  0.37500022577E+03  0.37500022577E+03  0.00000000000E+00 0. -1.
         -2   -1    0    0    0  501 -0.00000000000E+00 -0.00000000000E+00 -0.14364520077E+03  0.14364520077E+03  0.00000000000E+00 0.  1.
         23    2    1    2    0    0  0.12661161798E+03  0.15622319164E+03  0.16827373793E+03  0.29047766419E+03  0.12500014042E+03 0.  0.
          5    1    3    3  502    0 -0.10511811106E+01 -0.18384549496E+02  0.23195212079E+02  0.29986738824E+02  0.47000000000E+01 0.  1.
         -5    1    3    3    0  502  0.12766279909E+03  0.17460774114E+03  0.14507852586E+03  0.26049092537E+03  0.47000000000E+01 0.  1.
        -11    1    1    2    0    0 -0.94789468917E+02 -0.14866164059E+03  0.25171605853E+02  0.17809810931E+03  0.00000000000E+00 0. -1.
         11    1    1    2    0    0 -0.31822149061E+02 -0.75615510534E+01  0.37909681211E+02  0.50069653031E+02  0.00000000000E+00 0.  1.
<mgrwt>
<rscale>  0 0.23227125E+03</rscale>
<asrwt>0</asrwt>
<pdfrwt beam="1">  1        2 0.57692342E-01 0.23677251E+03</pdfrwt>
<pdfrwt beam="2">  1       -2 0.22099262E-01 0.23677251E+03</pdfrwt>
<totfact> 0.15097059E+03</totfact>
</mgrwt>
</event>
<event>
 7    1  0.8712071E-006  0.1335375E+03  0.7546771E-02  0.1235323E+00
         -1   -1    0    0    0  501 -0.00000000000E+00  0.00000000000E+00  0.77517492125E+02  0.77517492125E+02  0.00000000000E+00 0.  1.
          1   -1    0    0  501    0  0.00000000000E+00 -0.00000000000E+00 -0.21460921758E+03  0.21460921758E+03  0.00000000000E+00 0. -1.
         23    2    1    2    0    0 -0.46249756304E+02 -0.82828713239E+01 -0.17075571522E+02  0.13462479485E+03  0.12499845731E+03 0.  0.
          5    1    3    3  502    0 -0.26499092381E+02 -0.10392311752E+02 -0.71176768835E+02  0.76801200917E+02  0.47000000000E+01 0.  1.
         -5    1    3    3    0  502 -0.19750663923E+02  0.21094404285E+01  0.54101197313E+02  0.57823593930E+02  0.47000000000E+01 0.  1.
        -11    1    1    2    0    0  0.71694568703E+02 -0.71087658804E+01 -0.89454849259E+02  0.11485998341E+03  0.00000000000E+00 0.  1.
         11    1    1    2    0    0 -0.25444812400E+02  0.15391637204E+02 -0.30561304679E+02  0.42641931447E+02  0.00000000000E+00 0. -1.
<mgrwt>
<rscale>  0 0.12483808E+03</rscale>
<asrwt>0</asrwt>
<pdfrwt beam="2">  1        1 0.33016803E-01 0.13353749E+03</pdfrwt>
<pdfrwt beam="1">  1       -1 0.11925768E-01 0.13353749E+03</pdfrwt>
<totfact> 0.59068495E+03</totfact>
</mgrwt>
</event>
<event>
 7    1  0.8712071E-006  0.2336683E+03  0.7546771E-02  0.1126984E+00
         -2   -1    0    0    0  501 -0.00000000000E+00  0.00000000000E+00  0.14150719593E+03  0.14150719593E+03  0.00000000000E+00 0.  1.
          2   -1    0    0  501    0  0.00000000000E+00 -0.00000000000E+00 -0.36835557220E+03  0.36835557220E+03  0.00000000000E+00 0. -1.
         23    2    1    2    0    0  0.13380298708E+03 -0.14516980066E+03 -0.78085537806E+02  0.24637008242E+03  0.12499342351E+03 0.  0.
          5    1    3    3  502    0  0.12758430165E+03 -0.77739185952E+02 -0.94096373276E+02  0.17662772297E+03  0.47000000000E+01 0. -1.
         -5    1    3    3    0  502  0.62186854363E+01 -0.67430614708E+02  0.16010835470E+02  0.69742359444E+02  0.47000000000E+01 0. -1.
        -11    1    1    2    0    0 -0.71430090406E+02  0.16352902441E+02 -0.38193037373E+02  0.82634032562E+02  0.00000000000E+00 0. -1.
         11    1    1    2    0    0 -0.62372896677E+02  0.12881689822E+03 -0.11056980109E+03  0.18085865315E+03  0.00000000000E+00 0.  1.
<mgrwt>
<rscale>  0 0.22951189E+03</rscale>
<asrwt>0</asrwt>
<pdfrwt beam="2">  1        2 0.56670088E-01 0.23366828E+03</pdfrwt>
<pdfrwt beam="1">  1       -2 0.21770338E-01 0.23366828E+03</pdfrwt>
<totfact> 0.15794256E+03</totfact>
</mgrwt>
</event>
<event>
 7    1  0.8712071E-006  0.1474287E+03  0.7546771E-02  0.1212915E+00
         -2   -1    0    0    0  501 -0.00000000000E+00  0.00000000000E+00  0.40632674846E+02  0.40632674846E+02  0.00000000000E+00 0. -1.
          2   -1    0    0  501    0  0.00000000000E+00 -0.00000000000E+00 -0.48307768026E+03  0.48307768026E+03  0.00000000000E+00 0.  1.
         23    2    1    2    0    0 -0.66735768190E+02  0.40766313616E+02 -0.16629819651E+03  0.22223932860E+03  0.12497869391E+03 0.  0.
          5    1    3    3  502    0 -0.32159101764E+02  0.44935542842E+02 -0.33649269150E+01  0.55559189788E+02  0.47000000000E+01 0. -1.
         -5    1    3    3    0  502 -0.34576666426E+02 -0.41692292260E+01 -0.16293326959E+03  0.16668013881E+03  0.47000000000E+01 0. -1.
        -11    1    1    2    0    0  0.69375048189E+02 -0.30271114769E+02 -0.27994852557E+03  0.29000071494E+03  0.00000000000E+00 0.  1.
         11    1    1    2    0    0 -0.26392799990E+01 -0.10495198847E+02  0.38017166630E+01  0.11470311563E+02  0.00000000000E+00 0. -1.
<mgrwt>
<rscale>  0 0.14030840E+03</rscale>
<asrwt>0</asrwt>
<pdfrwt beam="2">  1        2 0.74319638E-01 0.14742873E+03</pdfrwt>
<pdfrwt beam="1">  1       -2 0.62511812E-02 0.14742873E+03</pdfrwt>
<totfact> 0.86255163E+03</totfact>
</mgrwt>
</event>
<event>
 7    1  0.8712071E-006  0.1655642E+03  0.7546771E-02  0.1190459E+00
         -2   -1    0    0    0  501 -0.00000000000E+00  0.00000000000E+00  0.16758269955E+03  0.16758269955E+03  0.00000000000E+00 0.  1.
          2   -1    0    0  501    0  0.00000000000E+00 -0.00000000000E+00 -0.14842203903E+03  0.14842203903E+03  0.00000000000E+00 0. -1.
         23    2    1    2    0    0  0.10835793245E+03  0.66409064075E+01  0.51524670405E+02  0.17339637455E+03  0.12500387148E+03 0.  0.
          5    1    3    3  502    0 -0.88707732049E+01  0.38966890032E+02 -0.23536530379E+01  0.40308049055E+02  0.47000000000E+01 0. -1.
         -5    1    3    3    0  502  0.11722870565E+03 -0.32325983625E+02  0.53878323442E+02  0.13308832550E+03  0.47000000000E+01 0. -1.
        -11    1    1    2    0    0 -0.56988729169E+02  0.29761234238E+02 -0.44892702167E+02  0.78414290940E+02  0.00000000000E+00 0. -1.
         11    1    1    2    0    0 -0.51369203278E+02 -0.36402140646E+02  0.12528692277E+02  0.64194073085E+02  0.00000000000E+00 0.  1.
<mgrwt>
<rscale>  0 0.15844940E+03</rscale>
<asrwt>0</asrwt>
<pdfrwt beam="2">  1        2 0.22834160E-01 0.16556422E+03</pdfrwt>
<pdfrwt beam="1">  1       -2 0.25781954E-01 0.16556422E+03</pdfrwt>
<totfact> 0.31230305E+03</totfact>
</mgrwt>
</event>
<event>
 7    1  0.8712071E-006  0.1885045E+03  0.7546771E-02  0.1164723E+00
          1   -1    0    0  501    0  0.00000000000E+00  0.00000000000E+00  0.20569691186E+03  0.20569691186E+03  0.00000000000E+00 0. -1.
         -1   -1    0    0    0  501 -0.00000000000E+00 -0.00000000000E+00 -0.16744802246E+03  0.16744802246E+03  0.00000000000E+00 0.  1.
         23    2    1    2    0    0  0.66303397704E+01 -0.14094407945E+03 -0.31323136926E+02  0.19108921907E+03  0.12499902319E+03 0.  0.
          5    1    3    3  502    0  0.64377263728E+01  0.21410398250E+02  0.75835352219E+01  0.24071756906E+02  0.47000000000E+01 0.  1.
         -5    1    3    3    0  502  0.19261339760E+00 -0.16235447770E+03 -0.38906672148E+02  0.16701746217E+03  0.47000000000E+01 0.  1.
        -11    1    1    2    0    0 -0.28190062904E+01  0.11939035220E+02 -0.21044693769E+02  0.24359115220E+02  0.00000000000E+00 0.  1.
         11    1    1    2    0    0 -0.38113334799E+01  0.12900504423E+03  0.90616720088E+02  0.15769660003E+03  0.00000000000E+00 0. -1.
<mgrwt>
<rscale>  0 0.18321976E+03</rscale>
<asrwt>0</asrwt>
<pdfrwt beam="1">  1        1 0.31645679E-01 0.18850451E+03</pdfrwt>
<pdfrwt beam="2">  1       -1 0.25761234E-01 0.18850451E+03</pdfrwt>
<totfact> 0.18513881E+03</totfact>
</mgrwt>
</event>
<event>
 7    1  0.8712071E-006  0.1910404E+03  0.7546771E-02  0.1162309E+00
          2   -1    0    0  501    0  0.00000000000E+00  0.00000000000E+00  0.56147841326E+03  0.56147841326E+03  0.00000000000E+00 0. -1.
         -2   -1    0    0    0  501 -0.00000000000E+00 -0.00000000000E+00 -0.75536035740E+02  0.75536035740E+02  0.00000000000E+00 0.  1.
         23    2    1    2    0    0  0.12647187711E+03  0.69658862551E+02  0.10158239108E+03  0.21636873597E+03  0.12509578289E+03 0.  0.
          5    1    3    3  502    0  0.39722984252E+02  0.46113093904E+02  0.11016780213E+03  0.12594986119E+03  0.47000000000E+01 0. -1.
         -5    1    3    3    0  502  0.86748892861E+02  0.23545768647E+02 -0.85854110522E+01  0.90418874781E+02  0.47000000000E+01 0. -1.
        -11    1    1    2    0    0 -0.55515212227E+02 -0.14227550788E+02  0.26503415979E+03  0.27115948784E+03  0.00000000000E+00 0.  1.
         11    1    1    2    0    0 -0.70956664885E+02 -0.55431311763E+02  0.11932582665E+03  0.14948622519E+03  0.00000000000E+00 0. -1.
<mgrwt>
<rscale>  0 0.18579577E+03</rscale>
<asrwt>0</asrwt>
<pdfrwt beam="1">  1        2 0.86381292E-01 0.19104043E+03</pdfrwt>
<pdfrwt beam="2">  1       -2 0.11620929E-01 0.19104043E+03</pdfrwt>
<totfact> 0.28045808E+03</totfact>
</mgrwt>
</event>
<event>
 7    1  0.8712071E-006  0.1349548E+03  0.7546771E-02  0.1230765E+00
         -1   -1    0    0    0  501 -0.00000000000E+00  0.00000000000E+00  0.84380172563E+02  0.84380172563E+02  0.00000000000E+00 0.  1.
          1   -1    0    0  501    0  0.00000000000E+00 -0.00000000000E+00 -0.37575082815E+03  0.37575082815E+03  0.00000000000E+00 0. -1.
         23    2    1    2    0    0  0.47336770570E+02 -0.18633243214E+02  0.14357429909E+02  0.13571640773E+03  0.12499935973E+03 0.  0.
          5    1    3    3  502    0  0.15584969152E+02 -0.60445577529E+02 -0.27532770851E+02  0.68386420998E+02  0.47000000000E+01 0.  1.
         -5    1    3    3    0  502  0.31751801418E+02  0.41812334315E+02  0.41890200760E+02  0.67329986736E+02  0.47000000000E+01 0.  1.
        -11    1    1    2    0    0 -0.66778321987E+02 -0.10341740093E+02 -0.14542831148E+03  0.16036112264E+03  0.00000000000E+00 0.  1.
         11    1    1    2    0    0  0.19441551417E+02  0.28974983306E+02 -0.16029977402E+03  0.16405347034E+03  0.00000000000E+00 0. -1.
<mgrwt>
<rscale>  0 0.12779452E+03</rscale>
<asrwt>0</asrwt>
<pdfrwt beam="2">  1        1 0.57807819E-01 0.13495484E+03</pdfrwt>
<pdfrwt beam="1">  1       -1 0.12981565E-01 0.13495484E+03</pdfrwt>
<totfact> 0.25886914E+03</totfact>
</mgrwt>
</event>
<event>
 7    1  0.8712071E-006  0.1297339E+03  0.7546771E-02  0.1242773E+00
          1   -1    0    0  501    0  0.00000000000E+00  0.00000000000E+00  0.21202119569E+03  0.21202119569E+03  0.00000000000E+00 0. -1.
         -1   -1    0    0    0  501 -0.00000000000E+00 -0.00000000000E+00 -0.64142594612E+02  0.64142594612E+02  0.00000000000E+00 0.  1.
         23    2    1    2    0    0 -0.24368519523E+01 -0.34655092695E+02  0.49121480378E+02  0.13872205977E+03  0.12499590527E+03 0.  0.
          5    1    3    3  502    0 -0.70419798495E+01  0.88310574360E+01 -0.38654263461E+02  0.40544039505E+02  0.47000000000E+01 0. -1.
         -5    1    3    3    0  502  0.46051278972E+01 -0.43486150131E+02  0.87775743839E+02  0.98178020262E+02  0.47000000000E+01 0. -1.
        -11    1    1    2    0    0  0.45650695972E+02  0.19688085989E+02  0.55166399746E+02  0.74262631475E+02  0.00000000000E+00 0.  1.
         11    1    1    2    0    0 -0.43213844020E+02  0.14967006705E+02  0.43590720954E+02  0.63179099059E+02  0.00000000000E+00 0. -1.
<mgrwt>
<rscale>  0 0.12019659E+03</rscale>
<asrwt>0</asrwt>
<pdfrwt beam="1">  1        1 0.32618645E-01 0.12973392E+03</pdfrwt>
<pdfrwt beam="2">  1       -1 0.98680916E-02 0.12973392E+03</pdfrwt>
<totfact> 0.79991005E+03</totfact>
</mgrwt>
</event>
<event>
 7    1  0.8712071E-006  0.1809642E+03  0.7546771E-02  0.1171820E+00
          1   -1    0    0  501    0  0.00000000000E+00  0.00000000000E+00  0.18015317520E+03  0.18015317520E+03  0.00000000000E+00 0. -1.
         -1   -1    0    0    0  501 -0.00000000000E+00 -0.00000000000E+00 -0.19692691191E+03  0.19692691191E+03  0.00000000000E+00 0.  1.
         23    2    1    2    0    0 -0.13295937719E+03  0.83873561276E+01 -0.87125307033E+02  0.20084537472E+03  0.12247245280E+03 0.  0.
          5    1    3    3  502    0 -0.23268290001E+02 -0.45431086536E+02 -0.97032216965E+00  0.51268201339E+02  0.47000000000E+01 0. -1.
         -5    1    3    3    0  502 -0.10969108719E+03  0.53818442664E+02 -0.86154984863E+02  0.14957717338E+03  0.47000000000E+01 0.  1.
        -11    1    1    2    0    0  0.29621258280E+01  0.24320044971E+02 -0.72036463923E+00  0.24510359076E+02  0.00000000000E+00 0.  1.
         11    1    1    2    0    0  0.12999725137E+03 -0.32707401099E+02  0.71071934956E+02  0.15172435331E+03  0.00000000000E+00 0. -1.
<mgrwt>
<rscale>  0 0.17591140E+03</rscale>
<asrwt>0</asrwt>
<pdfrwt beam="1">  1        1 0.27715873E-01 0.18096421E+03</pdfrwt>
<pdfrwt beam="2">  1       -1 0.30296448E-01 0.18096421E+03</pdfrwt>
<totfact> 0.16640161E+03</totfact>
</mgrwt>
</event>
<event>
 7    1  0.8712071E-006  0.1687497E+03  0.7546771E-02  0.1185869E+00
         -1   -1    0    0    0  501 -0.00000000000E+00  0.00000000000E+00  0.67914324773E+03  0.67914324773E+03  0.00000000000E+00 0.  1.
          1   -1    0    0  501    0  0.00000000000E+00 -0.00000000000E+00 -0.37245549612E+02  0.37245549612E+02  0.00000000000E+00 0. -1.
         23    2    1    2    0    0  0.10789792846E+03  0.34824973636E+02  0.40172597333E+03  0.43572952471E+03  0.12498687650E+03 0.  0.
          5    1    3    3  502    0  0.47055392447E+02  0.79761674856E+02  0.20946607636E+03  0.22907261268E+03  0.47000000000E+01 0. -1.
         -5    1    3    3    0  502  0.60842536012E+02 -0.44936701220E+02  0.19225989697E+03  0.20665691203E+03  0.47000000000E+01 0. -1.
        -11    1    1    2    0    0 -0.84851373338E+02 -0.19682091776E+02  0.80442244219E+02  0.11856683748E+03  0.00000000000E+00 0. -1.
         11    1    1    2    0    0 -0.23046555120E+02 -0.15142881860E+02  0.15972948056E+03  0.16209243516E+03  0.00000000000E+00 0.  1.
<mgrwt>
<rscale>  0 0.16253038E+03</rscale>
<asrwt>0</asrwt>
<pdfrwt beam="2">  1        1 0.57300851E-02 0.16874970E+03</pdfrwt>
<pdfrwt beam="1">  1       -1 0.10448357E+00 0.16874970E+03</pdfrwt>
<totfact> 0.12406077E+03</totfact>
</mgrwt>
</event>
<event>
 7    1  0.8712071E-006  0.1478472E+03  0.7546771E-02  0.1212842E+00
         -1   -1    0    0    0  501 -0.00000000000E+00  0.00000000000E+00  0.18676832632E+03  0.18676832632E+03  0.00000000000E+00 0.  1.
          1   -1    0    0  501    0  0.00000000000E+00 -0.00000000000E+00 -0.98774697969E+02  0.98774697969E+02  0.00000000000E+00 0. -1.
         23    2    1    2    0    0 -0.19961246179E+02 -0.76384534873E+02  0.71770571392E+02  0.16434659368E+03  0.12500295764E+03 0.  0.
          5    1    3    3  502    0 -0.64585029840E+00 -0.10830426299E+03  0.64188507277E+02  0.12598605070E+03  0.47000000000E+01 0.  1.
         -5    1    3    3    0  502 -0.19315395880E+02  0.31919728121E+02  0.75820641156E+01  0.38360542978E+02  0.47000000000E+01 0.  1.
        -11    1    1    2    0    0 -0.27316659057E+02 -0.10506409892E+01  0.13353409795E+02  0.30423958679E+02  0.00000000000E+00 0.  1.
         11    1    1    2    0    0  0.47277905236E+02  0.77435175863E+02  0.28696471590E+01  0.90772471924E+02  0.00000000000E+00 0. -1.
<mgrwt>
<rscale>  0 0.14036238E+03</rscale>
<asrwt>0</asrwt>
<pdfrwt beam="2">  1        1 0.15196107E-01 0.14784718E+03</pdfrwt>
<pdfrwt beam="1">  1       -1 0.28733589E-01 0.14784718E+03</pdfrwt>
<totfact> 0.38855537E+03</totfact>
</mgrwt>
</event>
<event>
 7    1  0.8712071E-006  0.1578250E+03  0.7546771E-02  0.1196152E+00
          1   -1    0    0  501    0  0.00000000000E+00  0.00000000000E+00  0.72709620547E+03  0.72709620547E+03  0.00000000000E+00 0. -1.
         -1   -1    0    0    0  501 -0.00000000000E+00 -0.00000000000E+00 -0.31058949669E+02  0.31058949669E+02  0.00000000000E+00 0.  1.
         23    2    1    2    0    0  0.72184023792E+02 -0.63824464833E+02  0.40121828046E+03  0.43114365852E+03  0.12499860040E+03 0.  0.
          5    1    3    3  502    0  0.66188676000E+02  0.12918297629E+02  0.27536087802E+03  0.28353752201E+03  0.47000000000E+01 0. -1.
         -5    1    3    3    0  502  0.59953477921E+01 -0.76742762462E+02  0.12585740245E+03  0.14760613651E+03  0.47000000000E+01 0. -1.
        -11    1    1    2    0    0  0.31266437160E+01 -0.21066300987E+02  0.18181286036E+02  0.28002215986E+02  0.00000000000E+00 0.  1.
         11    1    1    2    0    0 -0.75310667508E+02  0.84890765820E+02  0.27663768930E+03  0.29900928063E+03  0.00000000000E+00 0. -1.
<mgrwt>
<rscale>  0 0.15357139E+03</rscale>
<asrwt>0</asrwt>
<pdfrwt beam="1">  1        1 0.11186094E+00 0.15782505E+03</pdfrwt>
<pdfrwt beam="2">  1       -1 0.47783005E-02 0.15782505E+03</pdfrwt>
<totfact> 0.49053787E+03</totfact>
</mgrwt>
</event>
<event>
 7    1  0.8712071E-006  0.2258882E+03  0.7546771E-02  0.1132742E+00
          2   -1    0    0  501    0  0.00000000000E+00  0.00000000000E+00  0.74538112944E+03  0.74538112944E+03  0.00000000000E+00 0.  1.
         -2   -1    0    0    0  501 -0.00000000000E+00 -0.00000000000E+00 -0.71831872017E+02  0.71831872017E+02  0.00000000000E+00 0. -1.
         23    2    1    2    0    0 -0.18100790779E+03 -0.51102827923E+02  0.20866420710E+03  0.30751619556E+03  0.12510034974E+03 0.  0.
          5    1    3    3  502    0 -0.88877168781E+02 -0.73906774638E+01  0.18086999160E+03  0.20171717107E+03  0.47000000000E+01 0. -1.
         -5    1    3    3    0  502 -0.92130739007E+02 -0.43712150459E+02  0.27794215499E+02  0.10579902449E+03  0.47000000000E+01 0. -1.
        -11    1    1    2    0    0  0.82394351443E+02  0.29766038921E+02  0.10930902995E+03  0.14008322616E+03  0.00000000000E+00 0. -1.
         11    1    1    2    0    0  0.98613556346E+02  0.21336789002E+02  0.35557602037E+03  0.36961357973E+03  0.00000000000E+00 0.  1.
<mgrwt>
<rscale>  0 0.22153706E+03</rscale>
<asrwt>0</asrwt>
<pdfrwt beam="1">  1        2 0.11467401E+00 0.22588816E+03</pdfrwt>
<pdfrwt beam="2">  1       -2 0.11051058E-01 0.22588816E+03</pdfrwt>
<totfact> 0.21833663E+03</totfact>
</mgrwt>
</event>
<event>
 7    1  0.8712071E-006  0.1349457E+03  0.7546771E-02  0.1232465E+00
          1   -1    0    0  501    0  0.00000000000E+00  0.00000000000E+00  0.11933566082E+03  0.11933566082E+03  0.00000000000E+00 0. -1.
         -1   -1    0    0    0  501 -0.00000000000E+00 -0.00000000000E+00 -0.17647236635E+03  0.17647236635E+03  0.00000000000E+00 0.  1.
         23    2    1    2    0    0  0.33004621986E+02 -0.38674141684E+02 -0.11392901159E+03  0.17660736487E+03  0.12500138933E+03 0.  0.
          5    1    3    3  502    0  0.40981139740E+02  0.16827173028E+01 -0.12671683655E+03  0.13327239781E+03  0.47000000000E+01 0.  1.
         -5    1    3    3    0  502 -0.79765177538E+01 -0.40356858987E+02  0.12787824958E+02  0.43334967058E+02  0.47000000000E+01 0.  1.
        -11    1    1    2    0    0  0.27956146517E+02  0.17975210634E+02  0.41246964683E+02  0.52971373599E+02  0.00000000000E+00 0.  1.
         11    1    1    2    0    0 -0.60960768503E+02  0.20698931050E+02  0.15545341378E+02  0.66229288700E+02  0.00000000000E+00 0. -1.
<mgrwt>
<rscale>  0 0.12668102E+03</rscale>
<asrwt>0</asrwt>
<pdfrwt beam="1">  1        1 0.18359332E-01 0.13494570E+03</pdfrwt>
<pdfrwt beam="2">  1       -1 0.27149595E-01 0.13494570E+03</pdfrwt>
<totfact> 0.33316406E+03</totfact>
</mgrwt>
</event>
<event>
 7    1  0.8712071E-006  0.1499578E+03  0.7546771E-02  0.1209106E+00
          1   -1    0    0  501    0  0.00000000000E+00  0.00000000000E+00  0.71043226841E+02  0.71043226841E+02  0.00000000000E+00 0. -1.
         -1   -1    0    0    0  501 -0.00000000000E+00 -0.00000000000E+00 -0.44847379930E+03  0.44847379930E+03  0.00000000000E+00 0.  1.
         23    2    1    2    0    0 -0.45957967335E+02  0.68926491296E+02 -0.36457216852E+03  0.39420833333E+03  0.12499739212E+03 0.  0.
          5    1    3    3  502    0  0.17714280072E+02  0.61913398116E+02 -0.81694612311E+02  0.10413051553E+03  0.47000000000E+01 0.  1.
         -5    1    3    3    0  502 -0.63672247407E+02  0.70130931793E+01 -0.28287755621E+03  0.29007781779E+03  0.47000000000E+01 0.  1.
        -11    1    1    2    0    0  0.37068732831E+02 -0.43636809162E+02 -0.52348442023E+02  0.77579774747E+02  0.00000000000E+00 0.  1.
         11    1    1    2    0    0  0.88892345046E+01 -0.25289682134E+02  0.39490038084E+02  0.47728918072E+02  0.00000000000E+00 0. -1.
<mgrwt>
<rscale>  0 0.14318498E+03</rscale>
<asrwt>0</asrwt>
<pdfrwt beam="1">  1        1 0.10929727E-01 0.14995781E+03</pdfrwt>
<pdfrwt beam="2">  1       -1 0.68995968E-01 0.14995781E+03</pdfrwt>
<totfact> 0.12365955E+03</totfact>
</mgrwt>
</event>
<event>
 7    1  0.8712071E-006  0.1271659E+03  0.7546771E-02  0.1244713E+00
         -2   -1    0    0    0  501 -0.00000000000E+00  0.00000000000E+00  0.10780067334E+03  0.10780067334E+03  0.00000000000E+00 0.  1.
          2   -1    0    0  501    0  0.00000000000E+00 -0.00000000000E+00 -0.11972894808E+03  0.11972894808E+03  0.00000000000E+00 0. -1.
         23    2    1    2    0    0 -0.18746291815E+02  0.13948901490E+02  0.97882727246E+01  0.12754204595E+03  0.12500067157E+03 0.  0.
          5    1    3    3  502    0  0.33485479921E+02  0.51810340625E+02  0.11053305296E+02  0.62847866465E+02  0.47000000000E+01 0. -1.
         -5    1    3    3    0  502 -0.52231771736E+02 -0.37861439135E+02 -0.12650325709E+01  0.64694179487E+02  0.47000000000E+01 0. -1.
        -11    1    1    2    0    0  0.25603146557E+02 -0.30727868406E+00  0.33803599492E+02  0.42406354152E+02  0.00000000000E+00 0.  1.
         11    1    1    2    0    0 -0.68568547425E+01 -0.13641622806E+02 -0.55520146962E+02  0.57581221317E+02  0.00000000000E+00 0. -1.
<mgrwt>
<rscale>  0 0.11902584E+03</rscale>
<asrwt>0</asrwt>
<pdfrwt beam="2">  1        2 0.18419838E-01 0.12716589E+03</pdfrwt>
<pdfrwt beam="1">  1       -2 0.16584719E-01 0.12716589E+03</pdfrwt>
<totfact> 0.83007350E+03</totfact>
</mgrwt>
</event>
<event>
 7    1  0.8712071E-006  0.2321269E+03  0.7546771E-02  0.1128075E+00
          2   -1    0    0  501    0  0.00000000000E+00  0.00000000000E+00  0.12561514480E+04  0.12561514480E+04  0.00000000000E+00 0. -1.
         -2   -1    0    0    0  501 -0.00000000000E+00 -0.00000000000E+00 -0.40222253636E+02  0.40222253636E+02  0.00000000000E+00 0.  1.
         23    2    1    2    0    0  0.81205178540E+01 -0.19542219045E+03  0.68228857558E+03  0.72069453968E+03  0.12500857498E+03 0.  0.
          5    1    3    3  502    0 -0.32587785993E+02 -0.91220933982E+01  0.52386494210E+02  0.62542874571E+02  0.47000000000E+01 0. -1.
         -5    1    3    3    0  502  0.40708303847E+02 -0.18630009705E+03  0.62990208137E+03  0.65815166510E+03  0.47000000000E+01 0. -1.
        -11    1    1    2    0    0  0.35269266073E+02  0.14521372917E+03  0.37944858577E+03  0.40781390059E+03  0.00000000000E+00 0. -1.
         11    1    1    2    0    0 -0.43389783927E+02  0.50208461278E+02  0.15419203302E+03  0.16786526139E+03  0.00000000000E+00 0.  1.
<mgrwt>
<rscale>  0 0.22797237E+03</rscale>
<asrwt>0</asrwt>
<pdfrwt beam="1">  1        2 0.19325404E+00 0.23212695E+03</pdfrwt>
<pdfrwt beam="2">  1       -2 0.61880400E-02 0.23212695E+03</pdfrwt>
<totfact> 0.26163765E+03</totfact>
</mgrwt>
</event>
<event>
 7    1  0.8712071E-006  0.1739735E+03  0.7546771E-02  0.1179812E+00
          2   -1    0    0  501    0  0.00000000000E+00  0.00000000000E+00  0.33771901600E+02  0.33771901600E+02  0.00000000000E+00 0. -1.
         -2   -1    0    0    0  501 -0.00000000000E+00 -0.00000000000E+00 -0.90774295396E+03  0.90774295396E+03  0.00000000000E+00 0.  1.
         23    2    1    2    0    0 -0.11792262065E+03  0.27195821234E+02 -0.63526745543E+03  0.65865889121E+03  0.12498575078E+03 0.  0.
          5    1    3    3  502    0 -0.38610081570E+02  0.67838254226E+02 -0.38744265540E+03  0.39525519397E+03  0.47000000000E+01 0. -1.
         -5    1    3    3    0  502 -0.79312539080E+02 -0.40642432992E+02 -0.24782480003E+03  0.26340369725E+03  0.47000000000E+01 0. -1.
        -11    1    1    2    0    0  0.90791745908E+02  0.46293557426E+01 -0.21799067161E+03  0.23618743610E+03  0.00000000000E+00 0.  1.
         11    1    1    2    0    0  0.27130874743E+02 -0.31825176977E+02 -0.20712925327E+02  0.46668528255E+02  0.00000000000E+00 0. -1.
<mgrwt>
<rscale>  0 0.16812978E+03</rscale>
<asrwt>0</asrwt>
<pdfrwt beam="1">  1        2 0.51956784E-02 0.17397355E+03</pdfrwt>
<pdfrwt beam="2">  1       -2 0.13965273E+00 0.17397355E+03</pdfrwt>
<totfact> 0.56171317E+02</totfact>
</mgrwt>
</event>
<event>
 7    1  0.8712071E-006  0.1289930E+03  0.7546771E-02  0.1243145E+00
         -1   -1    0    0    0  501 -0.00000000000E+00  0.00000000000E+00  0.22668149804E+03  0.22668149804E+03  0.00000000000E+00 0.  1.
          1   -1    0    0  501    0  0.00000000000E+00 -0.00000000000E+00 -0.13105107394E+03  0.13105107394E+03  0.00000000000E+00 0. -1.
         23    2    1    2    0    0  0.21987539785E+02  0.23078590275E+02  0.18544164847E+03  0.22589331512E+03  0.12499244614E+03 0.  0.
          5    1    3    3  502    0  0.58177230030E+02 -0.28764989799E+02  0.83755652262E+02  0.10606184054E+03  0.47000000000E+01 0.  1.
         -5    1    3    3    0  502 -0.36189690246E+02  0.51843580074E+02  0.10168599621E+03  0.11983147458E+03  0.47000000000E+01 0.  1.
        -11    1    1    2    0    0 -0.38759869487E+02 -0.47187388647E+02 -0.80477194392E+02  0.10102255168E+03  0.00000000000E+00 0.  1.
         11    1    1    2    0    0  0.16772329703E+02  0.24108798371E+02 -0.93340299862E+01  0.30816705183E+02  0.00000000000E+00 0. -1.
<mgrwt>
<rscale>  0 0.11997078E+03</rscale>
<asrwt>0</asrwt>
<pdfrwt beam="2">  1        1 0.20161704E-01 0.12899296E+03</pdfrwt>
<pdfrwt beam="1">  1       -1 0.34874077E-01 0.12899296E+03</pdfrwt>
<totfact> 0.19354391E+03</totfact>
</mgrwt>
</event>
<event>
 7    1  0.8712071E-006  0.1413490E+03  0.7546771E-02  0.1222354E+00
          1   -1    0    0  501    0  0.00000000000E+00  0.00000000000E+00  0.19664409609E+02  0.19664409609E+02  0.00000000000E+00 0. -1.
         -1   -1    0    0    0  501 -0.00000000000E+00 -0.00000000000E+00 -0.85476537315E+03  0.85476537315E+03  0.00000000000E+00 0.  1.
         23    2    1    2    0    0 -0.59018945135E+02  0.29622348622E+02 -0.55188832304E+03  0.56970191363E+03  0.12497531701E+03 0.  0.
          5    1    3    3  502    0 -0.49077304855E+02  0.64959670285E+02 -0.20168212865E+03  0.21754565414E+03  0.47000000000E+01 0.  1.
         -5    1    3    3    0  502 -0.99416402803E+01 -0.35337321664E+02 -0.35020619439E+03  0.35215625950E+03  0.47000000000E+01 0.  1.
        -11    1    1    2    0    0  0.82760225473E+02 -0.16838226058E+02 -0.23117129780E+03  0.24611572421E+03  0.00000000000E+00 0.  1.
         11    1    1    2    0    0 -0.23741280338E+02 -0.12784122564E+02 -0.52041342706E+02  0.58612144922E+02  0.00000000000E+00 0. -1.
<mgrwt>
<rscale>  0 0.13349947E+03</rscale>
<asrwt>0</asrwt>
<pdfrwt beam="1">  1        1 0.30252946E-02 0.14134903E+03</pdfrwt>
<pdfrwt beam="2">  1       -1 0.13150233E+00 0.14134903E+03</pdfrwt>
<totfact> 0.17364594E+03</totfact>
</mgrwt>
</event>
<event>
 7    1  0.8712071E-006  0.1382124E+03  0.7546771E-02  0.1227608E+00
         -3   -1    0    0    0  501 -0.00000000000E+00  0.00000000000E+00  0.46895194784E+03  0.46895194784E+03  0.00000000000E+00 0. -1.
          3   -1    0    0  501    0  0.00000000000E+00 -0.00000000000E+00 -0.32533972669E+02  0.32533972669E+02  0.00000000000E+00 0.  1.
         23    2    1    2    0    0 -0.52578674368E+02 -0.26648302946E+02  0.26718871922E+03  0.30081969227E+03  0.12501210553E+03 0.  0.
          5    1    3    3  502    0 -0.76778990365E+02  0.16931770890E+02  0.21272329385E+03  0.22683691934E+03  0.47000000000E+01 0. -1.
         -5    1    3    3    0  502  0.24200315997E+02 -0.43580073836E+02  0.54465425366E+02  0.73982772929E+02  0.47000000000E+01 0. -1.
        -11    1    1    2    0    0  0.10580754018E+02 -0.14770700654E+02 -0.31801581923E+01  0.18445578319E+02  0.00000000000E+00 0.  1.
         11    1    1    2    0    0  0.41997920350E+02  0.41419003600E+02  0.17240941415E+03  0.18222064993E+03  0.00000000000E+00 0. -1.
<mgrwt>
<rscale>  0 0.12989735E+03</rscale>
<asrwt>0</asrwt>
<pdfrwt beam="2">  1        3 0.50052269E-02 0.13821243E+03</pdfrwt>
<pdfrwt beam="1">  1       -3 0.72146448E-01 0.13821243E+03</pdfrwt>
<totfact> 0.98226943E+02</totfact>
</mgrwt>
</event>
<event>
 7    1  0.8712071E-006  0.3578036E+03  0.7546771E-02  0.1060545E+00
          2   -1    0    0  501    0  0.00000000000E+00  0.00000000000E+00  0.82395723968E+03  0.82395723968E+03  0.00000000000E+00 0.  1.
         -2   -1    0    0    0  501 -0.00000000000E+00 -0.00000000000E+00 -0.21476069256E+03  0.21476069256E+03  0.00000000000E+00 0. -1.
         23    2    1    2    0    0  0.33522062876E+03  0.49430919154E+01  0.24335154732E+02  0.35863017896E+03  0.12500440553E+03 0.  0.
          5    1    3    3  502    0  0.25918963597E+03  0.60492493555E+01  0.71560673786E+02  0.26899606102E+03  0.47000000000E+01 0. -1.
         -5    1    3    3    0  502  0.76030992791E+02 -0.11061574400E+01 -0.47225519055E+02  0.89634117941E+02  0.47000000000E+01 0. -1.
        -11    1    1    2    0    0 -0.22056657035E+03 -0.31799658214E+02  0.44158243772E+03  0.49462701051E+03  0.00000000000E+00 0.  1.
         11    1    1    2    0    0 -0.11465405840E+03  0.26856566299E+02  0.14327895466E+03  0.18546074278E+03  0.00000000000E+00 0. -1.
<mgrwt>
<rscale>  0 0.35508906E+03</rscale>
<asrwt>0</asrwt>
<pdfrwt beam="1">  1        2 0.12676265E+00 0.35780359E+03</pdfrwt>
<pdfrwt beam="2">  1       -2 0.33040107E-01 0.35780359E+03</pdfrwt>
<totfact> 0.29215258E+02</totfact>
</mgrwt>
</event>
<event>
 7    1  0.8712071E-006  0.1322666E+03  0.7546771E-02  0.1241204E+00
          1   -1    0    0  501    0  0.00000000000E+00  0.00000000000E+00  0.30555931751E+03  0.30555931751E+03  0.00000000000E+00 0. -1.
         -1   -1    0    0    0  501 -0.00000000000E+00 -0.00000000000E+00 -0.43774206817E+02  0.43774206817E+02  0.00000000000E+00 0.  1.
         23    2    1    2    0    0 -0.16932815588E+01 -0.43206276048E+02  0.11376577588E+03  0.17446234505E+03  0.12499923435E+03 0.  0.
          5    1    3    3  502    0  0.49581026133E+02 -0.51335493395E+01  0.95570681102E+02  0.10789104026E+03  0.47000000000E+01 0. -1.
         -5    1    3    3    0  502 -0.51274307692E+02 -0.38072726708E+02  0.18195094781E+02  0.66571304797E+02  0.47000000000E+01 0. -1.
        -11    1    1    2    0    0 -0.23367750003E+02  0.58471317247E+02  0.89826116379E+02  0.10969812152E+03  0.00000000000E+00 0.  1.
         11    1    1    2    0    0  0.25061031562E+02 -0.15265041199E+02  0.58193218426E+02  0.65173057751E+02  0.00000000000E+00 0. -1.
<mgrwt>
<rscale>  0 0.12115501E+03</rscale>
<asrwt>0</asrwt>
<pdfrwt beam="1">  1        1 0.47009125E-01 0.13226662E+03</pdfrwt>
<pdfrwt beam="2">  1       -1 0.67344935E-02 0.13226662E+03</pdfrwt>
<totfact> 0.90759987E+03</totfact>
</mgrwt>
</event>
<event>
 7    1  0.8712071E-006  0.2064040E+03  0.7546771E-02  0.1148017E+00
          2   -1    0    0  501    0  0.00000000000E+00  0.00000000000E+00  0.32449954034E+03  0.32449954034E+03  0.00000000000E+00 0. -1.
         -2   -1    0    0    0  501 -0.00000000000E+00 -0.00000000000E+00 -0.14141627493E+03  0.14141627493E+03  0.00000000000E+00 0.  1.
         23    2    1    2    0    0  0.39863767185E+02 -0.16080949984E+03  0.59600499111E+01  0.20649000821E+03  0.12310071536E+03 0.  0.
          5    1    3    3  502    0  0.48307259220E+02 -0.39140642460E+01 -0.48028829442E+01  0.48929223138E+02  0.47000000000E+01 0. -1.
         -5    1    3    3    0  502 -0.84434920352E+01 -0.15689543559E+03  0.10762932855E+02  0.15756078507E+03  0.47000000000E+01 0.  1.
        -11    1    1    2    0    0 -0.19091335855E+02 -0.62328185879E+01  0.28557245393E+02  0.34911937739E+02  0.00000000000E+00 0.  1.
         11    1    1    2    0    0 -0.20772431330E+02  0.16704231843E+03  0.14856597010E+03  0.22451386933E+03  0.00000000000E+00 0. -1.
<mgrwt>
<rscale>  0 0.20205489E+03</rscale>
<asrwt>0</asrwt>
<pdfrwt beam="1">  1        2 0.49923006E-01 0.20640398E+03</pdfrwt>
<pdfrwt beam="2">  1       -2 0.21756350E-01 0.20640398E+03</pdfrwt>
<totfact> 0.18077227E+03</totfact>
</mgrwt>
</event>
<event>
 6    1  0.8712071E-006  0.2783452E+03  0.7546771E-02  0.1109548E+00
         -2   -1    0    0    0  501 -0.00000000000E+00  0.00000000000E+00  0.42039099161E+02  0.42039099161E+02  0.00000000000E+00 0.  1.
          2   -1    0    0  501    0  0.00000000000E+00 -0.00000000000E+00 -0.14094798554E+04  0.14094798554E+04  0.00000000000E+00 0. -1.
          5    1    1    2  502    0  0.17308974251E+03 -0.86265923762E+02 -0.33923296978E+03  0.39051628180E+03  0.47000000000E+01 0. -1.
         -5    1    1    2    0  502 -0.45981308761E+02 -0.36719629851E+02 -0.31473173060E+03  0.32021986856E+03  0.47000000000E+01 0.  1.
        -11    1    1    2    0    0 -0.92187602780E+02  0.25391505566E+02 -0.34057625133E+03  0.35374491605E+03  0.00000000000E+00 0. -1.
         11    1    1    2    0    0 -0.34920830968E+02  0.97594048047E+02 -0.37289980449E+03  0.38703788812E+03  0.00000000000E+00 0.  1.
<mgrwt>
<rscale>  0 0.25603643E+03</rscale>
<asrwt>0</asrwt>
<pdfrwt beam="2">  1        2 0.21684304E+00 0.27834519E+03</pdfrwt>
<pdfrwt beam="1">  1       -2 0.64675540E-02 0.27834519E+03</pdfrwt>
<totfact> 0.20126682E+03</totfact>
</mgrwt>
</event>
<event>
 7    1  0.8712071E-006  0.1423331E+03  0.7546771E-02  0.1221192E+00
         -1   -1    0    0    0  501 -0.00000000000E+00  0.00000000000E+00  0.20165051164E+03  0.20165051164E+03  0.00000000000E+00 0.  1.
          1   -1    0    0  501    0  0.00000000000E+00 -0.00000000000E+00 -0.80741216661E+02  0.80741216661E+02  0.00000000000E+00 0. -1.
         23    2    1    2    0    0  0.54549591127E+02  0.40660633936E+02  0.67582195740E+02  0.15756291254E+03  0.12501909127E+03 0.  0.
          5    1    3    3  502    0  0.62782683013E+02  0.21606253048E+02  0.99192355436E+02  0.11945588656E+03  0.47000000000E+01 0. -1.
         -5    1    3    3    0  502 -0.82330918858E+01  0.19054380887E+02 -0.31610159696E+02  0.38107025980E+02  0.47000000000E+01 0. -1.
        -11    1    1    2    0    0 -0.71233998842E+02 -0.54607547335E+02  0.34821580987E+02  0.96274655644E+02  0.00000000000E+00 0. -1.
         11    1    1    2    0    0  0.16684407715E+02  0.13946913399E+02  0.18505518252E+02  0.28554160116E+02  0.00000000000E+00 0.  1.
<mgrwt>
<rscale>  0 0.13431332E+03</rscale>
<asrwt>0</asrwt>
<pdfrwt beam="2">  1        1 0.12421726E-01 0.14233312E+03</pdfrwt>
<pdfrwt beam="1">  1       -1 0.31023156E-01 0.14233312E+03</pdfrwt>
<totfact> 0.44325953E+03</totfact>
</mgrwt>
</event>
<event>
 7    1  0.8712071E-006  0.3800009E+03  0.7546771E-02  0.1051895E+00
          2   -1    0    0  501    0  0.00000000000E+00  0.00000000000E+00  0.29160280831E+03  0.29160280831E+03  0.00000000000E+00 0. -1.
         -2   -1    0    0    0  501 -0.00000000000E+00 -0.00000000000E+00 -0.63836556117E+03  0.63836556117E+03  0.00000000000E+00 0.  1.
         23    2    1    2    0    0 -0.19567120577E+03 -0.30081381058E+03 -0.40534477089E+03  0.55561232188E+03  0.12499799813E+03 0.  0.
          5    1    3    3  502    0  0.10413504144E+02 -0.60838340706E+02 -0.47843557011E+02  0.78235802009E+02  0.47000000000E+01 0. -1.
         -5    1    3    3    0  502 -0.20608470991E+03 -0.23997546987E+03 -0.35750121388E+03  0.47737651987E+03  0.47000000000E+01 0. -1.
        -11    1    1    2    0    0  0.71501307657E+02  0.42694406137E+02  0.15286279544E+02  0.84669472978E+02  0.00000000000E+00 0. -1.
         11    1    1    2    0    0  0.12416989811E+03  0.25811940444E+03  0.43295738488E+02  0.28968657462E+03  0.00000000000E+00 0.  1.
<mgrwt>
<rscale>  0 0.37741028E+03</rscale>
<asrwt>0</asrwt>
<pdfrwt beam="1">  1        2 0.44861971E-01 0.38000088E+03</pdfrwt>
<pdfrwt beam="2">  1       -2 0.98210086E-01 0.38000088E+03</pdfrwt>
<totfact> 0.10076393E+02</totfact>
</mgrwt>
</event>
<event>
 7    1  0.8712071E-006  0.1617686E+03  0.7546771E-02  0.1196073E+00
          2   -1    0    0  501    0  0.00000000000E+00  0.00000000000E+00  0.20915037879E+03  0.20915037879E+03  0.00000000000E+00 0. -1.
         -2   -1    0    0    0  501 -0.00000000000E+00 -0.00000000000E+00 -0.10652933739E+03  0.10652933739E+03  0.00000000000E+00 0.  1.
         23    2    1    2    0    0  0.10126764463E+03 -0.17032749082E+02  0.27360098101E+02  0.16406600015E+03  0.12499530810E+03 0.  0.
          5    1    3    3  502    0  0.84431583633E+02  0.19850861934E+02 -0.31536491614E+02  0.92408816341E+02  0.47000000000E+01 0.  1.
         -5    1    3    3    0  502  0.16836060994E+02 -0.36883611016E+02  0.58896589715E+02  0.71657183809E+02  0.47000000000E+01 0.  1.
        -11    1    1    2    0    0 -0.61588784265E+02  0.27137800561E+02  0.86075686349E+02  0.10926418602E+03  0.00000000000E+00 0. -1.
         11    1    1    2    0    0 -0.39678860362E+02 -0.10105051479E+02 -0.10814743049E+02  0.42349530012E+02  0.00000000000E+00 0.  1.
<mgrwt>
<rscale>  0 0.15363742E+03</rscale>
<asrwt>0</asrwt>
<pdfrwt beam="1">  1        2 0.32176981E-01 0.16176859E+03</pdfrwt>
<pdfrwt beam="2">  1       -2 0.16389129E-01 0.16176859E+03</pdfrwt>
<totfact> 0.46342307E+03</totfact>
</mgrwt>
</event>
<event>
 7    1  0.8712071E-006  0.1260337E+03  0.7546771E-02  0.1248923E+00
          2   -1    0    0  501    0  0.00000000000E+00  0.00000000000E+00  0.45127690876E+02  0.45127690876E+02  0.00000000000E+00 0. -1.
         -2   -1    0    0    0  501 -0.00000000000E+00 -0.00000000000E+00 -0.27286995335E+03  0.27286995335E+03  0.00000000000E+00 0.  1.
         23    2    1    2    0    0  0.18765322457E+01 -0.16048110851E+02 -0.15983478621E+03  0.20354765745E+03  0.12499370679E+03 0.  0.
          5    1    3    3  502    0  0.52212607678E+02  0.56941951578E+01 -0.13143708473E+03  0.14162054053E+03  0.47000000000E+01 0.  1.
         -5    1    3    3    0  502 -0.50336075432E+02 -0.21742306009E+02 -0.28397701479E+02  0.61927116918E+02  0.47000000000E+01 0.  1.
        -11    1    1    2    0    0 -0.15319276419E+02 -0.21621558474E+02  0.88164648860E+01  0.27926726874E+02  0.00000000000E+00 0. -1.
         11    1    1    2    0    0  0.13442744173E+02  0.37669669324E+02 -0.76723941159E+02  0.86523259907E+02  0.00000000000E+00 0.  1.
<mgrwt>
<rscale>  0 0.11653641E+03</rscale>
<asrwt>0</asrwt>
<pdfrwt beam="1">  1        2 0.69427216E-02 0.12603369E+03</pdfrwt>
<pdfrwt beam="2">  1       -2 0.41979993E-01 0.12603369E+03</pdfrwt>
<totfact> 0.52262505E+03</totfact>
</mgrwt>
</event>
<event>
 7    1  0.8712071E-006  0.2076231E+03  0.7546771E-02  0.1147329E+00
         -2   -1    0    0    0  501 -0.00000000000E+00  0.00000000000E+00  0.13504146833E+03  0.13504146833E+03  0.00000000000E+00 0.  1.
          2   -1    0    0  501    0  0.00000000000E+00 -0.00000000000E+00 -0.29255669335E+03  0.29255669335E+03  0.00000000000E+00 0. -1.
         23    2    1    2    0    0  0.72389061237E+02  0.14913848487E+03 -0.70637063539E+02  0.21931012841E+03  0.12499949528E+03 0.  0.
          5    1    3    3  502    0  0.42729065399E+02  0.14996812483E+03 -0.15828435277E+02  0.15680829333E+03  0.47000000000E+01 0. -1.
         -5    1    3    3    0  502  0.29659995838E+02 -0.82963996365E+00 -0.54808628262E+02  0.62501835073E+02  0.47000000000E+01 0. -1.
        -11    1    1    2    0    0 -0.39949813949E+02 -0.14987448644E+03 -0.82083721388E+02  0.17548813817E+03  0.00000000000E+00 0. -1.
         11    1    1    2    0    0 -0.32439247288E+02  0.73600157866E+00 -0.47944400876E+01  0.32799895102E+02  0.00000000000E+00 0.  1.
<mgrwt>
<rscale>  0 0.20288352E+03</rscale>
<asrwt>0</asrwt>
<pdfrwt beam="2">  1        2 0.45008721E-01 0.20762307E+03</pdfrwt>
<pdfrwt beam="1">  1       -2 0.20775611E-01 0.20762307E+03</pdfrwt>
<totfact> 0.21879254E+03</totfact>
</mgrwt>
</event>
<event>
 6    1  0.8712071E-006  0.1423826E+03  0.7546771E-02  0.1224927E+00
          2   -1    0    0  501    0  0.00000000000E+00  0.00000000000E+00  0.83550740658E+02  0.83550740658E+02  0.00000000000E+00 0. -1.
         -2   -1    0    0    0  501 -0.00000000000E+00 -0.00000000000E+00 -0.26470834377E+03  0.26470834377E+03  0.00000000000E+00 0.  1.
          5    1    1    2  502    0 -0.37222264815E+02 -0.24430659762E+02 -0.52368313483E+02  0.68897637053E+02  0.47000000000E+01 0. -1.
         -5    1    1    2    0  502  0.95165136524E+02  0.18450362913E+02 -0.14432845318E+03  0.17392415444E+03  0.47000000000E+01 0.  1.
        -11    1    1    2    0    0 -0.22302190413E+02 -0.20871863782E+02 -0.29193480743E+02  0.42252594155E+02  0.00000000000E+00 0.  1.
         11    1    1    2    0    0 -0.35640681296E+02  0.26852160631E+02  0.44732644294E+02  0.63184698776E+02  0.00000000000E+00 0. -1.
<mgrwt>
<rscale>  0 0.13171921E+03</rscale>
<asrwt>0</asrwt>
<pdfrwt beam="1">  1        2 0.12853960E-01 0.14238260E+03</pdfrwt>
<pdfrwt beam="2">  1       -2 0.40724360E-01 0.14238260E+03</pdfrwt>
<totfact> 0.26114359E+03</totfact>
</mgrwt>
</event>
<event>
 6    1  0.8712071E-006  0.2153701E+03  0.7546771E-02  0.1142038E+00
          1   -1    0    0  501    0  0.00000000000E+00  0.00000000000E+00  0.11087303075E+03  0.11087303075E+03  0.00000000000E+00 0. -1.
         -1   -1    0    0    0  501 -0.00000000000E+00 -0.00000000000E+00 -0.49068830171E+03  0.49068830171E+03  0.00000000000E+00 0.  1.
          5    1    1    2  502    0 -0.31936009579E+02  0.31510977824E+02 -0.49080338926E+01  0.45376527280E+02  0.47000000000E+01 0. -1.
         -5    1    1    2    0  502 -0.41262281052E+02  0.11509550992E+03 -0.33896509289E+03  0.36037338476E+03  0.47000000000E+01 0.  1.
        -11    1    1    2    0    0 -0.23631085537E+02 -0.18888165089E+02 -0.16225795149E+02  0.34328813150E+02  0.00000000000E+00 0.  1.
         11    1    1    2    0    0  0.96829376168E+02 -0.12771832265E+03 -0.19716349028E+02  0.16148260727E+03  0.00000000000E+00 0. -1.
<mgrwt>
<rscale>  0 0.20940543E+03</rscale>
<asrwt>0</asrwt>
<pdfrwt beam="1">  1        1 0.17057389E-01 0.21537006E+03</pdfrwt>
<pdfrwt beam="2">  1       -1 0.75490510E-01 0.21537006E+03</pdfrwt>
<totfact> 0.57916371E+02</totfact>
</mgrwt>
</event>
<event>
 7    1  0.8712071E-006  0.1253527E+03  0.7546771E-02  0.1246072E+00
         -2   -1    0    0    0  501 -0.00000000000E+00  0.00000000000E+00  0.60008951587E+02  0.60008951587E+02  0.00000000000E+00 0. -1.
          2   -1    0    0  501    0  0.00000000000E+00 -0.00000000000E+00 -0.29440877899E+03  0.29440877899E+03  0.00000000000E+00 0.  1.
         23    2    1    2    0    0 -0.97226319563E+01 -0.89054836764E-01 -0.32515460232E+02  0.12950115845E+03  0.12497502704E+03 0.  0.
          5    1    3    3  502    0 -0.43582572826E+02 -0.25540247486E+02  0.26081549135E+02  0.57044562414E+02  0.47000000000E+01 0.  1.
         -5    1    3    3    0  502  0.33859940869E+02  0.25451192649E+02 -0.58597009367E+02  0.72456596040E+02  0.47000000000E+01 0.  1.
        -11    1    1    2    0    0 -0.24546499659E+02 -0.16551562053E+02 -0.13182667245E+02  0.32407831887E+02  0.00000000000E+00 0. -1.
         11    1    1    2    0    0  0.34269131615E+02  0.16640616889E+02 -0.18870169993E+03  0.19250874024E+03  0.00000000000E+00 0.  1.
<mgrwt>
<rscale>  0 0.11821439E+03</rscale>
<asrwt>0</asrwt>
<pdfrwt beam="2">  1        2 0.45293658E-01 0.12535268E+03</pdfrwt>
<pdfrwt beam="1">  1       -2 0.92321464E-02 0.12535268E+03</pdfrwt>
<totfact> 0.79476328E+03</totfact>
</mgrwt>
</event>
<event>
 7    1  0.8712071E-006  0.2819270E+03  0.7546771E-02  0.1096492E+00
         -1   -1    0    0    0  501 -0.00000000000E+00  0.00000000000E+00  0.89270016293E+02  0.89270016293E+02  0.00000000000E+00 0.  1.
          1   -1    0    0  501    0  0.00000000000E+00 -0.00000000000E+00 -0.86496894116E+03  0.86496894116E+03  0.00000000000E+00 0. -1.
         23    2    1    2    0    0 -0.20513893216E+03 -0.14756509460E+03 -0.33181640156E+03  0.43541351784E+03  0.12500147415E+03 0.  0.
          5    1    3    3  502    0 -0.16175002564E+03 -0.16774985037E+03 -0.28657107187E+03  0.36938889037E+03  0.47000000000E+01 0. -1.
         -5    1    3    3    0  502 -0.43388906514E+02  0.20184755766E+02 -0.45245329695E+02  0.66024627473E+02  0.47000000000E+01 0. -1.
        -11    1    1    2    0    0  0.18649670080E+03  0.88067902749E+02 -0.33897140995E+03  0.39678532189E+03  0.00000000000E+00 0.  1.
         11    1    1    2    0    0  0.18642231354E+02  0.59497191855E+02 -0.10491111335E+03  0.12204011772E+03  0.00000000000E+00 0. -1.
<mgrwt>
<rscale>  0 0.27853552E+03</rscale>
<asrwt>0</asrwt>
<pdfrwt beam="2">  1        1 0.13307214E+00 0.28192695E+03</pdfrwt>
<pdfrwt beam="1">  1       -1 0.13733849E-01 0.28192695E+03</pdfrwt>
<totfact> 0.75546160E+02</totfact>
</mgrwt>
</event>
<event>
 7    1  0.8712071E-006  0.1655348E+03  0.7546771E-02  0.1189619E+00
          2   -1    0    0  501    0  0.00000000000E+00  0.00000000000E+00  0.41399157491E+02  0.41399157491E+02  0.00000000000E+00 0. -1.
         -2   -1    0    0    0  501 -0.00000000000E+00 -0.00000000000E+00 -0.57506278316E+03  0.57506278316E+03  0.00000000000E+00 0.  1.
         23    2    1    2    0    0  0.10278767604E+03  0.34818901684E+02 -0.31764535376E+03  0.35819038696E+03  0.12499648108E+03 0.  0.
          5    1    3    3  502    0  0.61698437587E+02  0.19241186718E+02 -0.38094456036E+02  0.75167799274E+02  0.47000000000E+01 0. -1.
         -5    1    3    3    0  502  0.41089238455E+02  0.15577714966E+02 -0.27955089772E+03  0.28302258768E+03  0.47000000000E+01 0. -1.
        -11    1    1    2    0    0 -0.48458821118E+01  0.24030483031E+02 -0.60602545416E+02  0.65372893458E+02  0.00000000000E+00 0.  1.
         11    1    1    2    0    0 -0.97941793930E+02 -0.58849384715E+02 -0.15541572649E+03  0.19289866023E+03  0.00000000000E+00 0. -1.
<mgrwt>
<rscale>  0 0.15918608E+03</rscale>
<asrwt>0</asrwt>
<pdfrwt beam="1">  1        2 0.63691015E-02 0.16553484E+03</pdfrwt>
<pdfrwt beam="2">  1       -2 0.88471192E-01 0.16553484E+03</pdfrwt>
<totfact> 0.12704687E+03</totfact>
</mgrwt>
</event>
<event>
 7    1  0.8712071E-006  0.1335230E+03  0.7546771E-02  0.1234791E+00
          2   -1    0    0  501    0  0.00000000000E+00  0.00000000000E+00  0.66729157740E+02  0.66729157740E+02  0.00000000000E+00 0. -1.
         -2   -1    0    0    0  501 -0.00000000000E+00 -0.00000000000E+00 -0.21963379924E+03  0.21963379924E+03  0.00000000000E+00 0.  1.
         23    2    1    2    0    0  0.19303477789E+02 -0.42793380239E+02 -0.11581365407E+03  0.17675176700E+03  0.12499794807E+03 0.  0.
          5    1    3    3  502    0 -0.13445703875E+01  0.41263006999E+02 -0.62286178482E+02  0.74873904973E+02  0.47000000000E+01 0.  1.
         -5    1    3    3    0  502  0.20648048177E+02 -0.84056387238E+02 -0.53527475590E+02  0.10187786203E+03  0.47000000000E+01 0.  1.
        -11    1    1    2    0    0 -0.26135377105E+02  0.56871527292E+02 -0.56748597853E+02  0.84485690570E+02  0.00000000000E+00 0. -1.
         11    1    1    2    0    0  0.68318993155E+01 -0.14078147052E+02  0.19657610424E+02  0.25125499404E+02  0.00000000000E+00 0.  1.
<mgrwt>
<rscale>  0 0.12517827E+03</rscale>
<asrwt>0</asrwt>
<pdfrwt beam="1">  1        2 0.10266024E-01 0.13352297E+03</pdfrwt>
<pdfrwt beam="2">  1       -2 0.33789815E-01 0.13352297E+03</pdfrwt>
<totfact> 0.48365631E+03</totfact>
</mgrwt>
</event>
<event>
 7    1  0.8712071E-006  0.1273617E+03  0.7546771E-02  0.1246074E+00
         -3   -1    0    0    0  501 -0.00000000000E+00  0.00000000000E+00  0.84661205892E+03  0.84661205892E+03  0.00000000000E+00 0.  1.
          3   -1    0    0  501    0  0.00000000000E+00 -0.00000000000E+00 -0.15738854738E+02  0.15738854738E+02  0.00000000000E+00 0. -1.
         23    2    1    2    0    0  0.24175286045E+02 -0.33969778356E+01  0.59009795005E+03  0.60368584286E+03  0.12500008919E+03 0.  0.
          5    1    3    3  502    0 -0.32297319468E+01  0.43568847020E+02  0.46660599270E+03  0.46867037246E+03  0.47000000000E+01 0.  1.
         -5    1    3    3    0  502  0.27405017992E+02 -0.46965824856E+02  0.12349195735E+03  0.13501547039E+03  0.47000000000E+01 0.  1.
        -11    1    1    2    0    0 -0.33346493518E+02  0.29692406762E+02  0.21846640845E+03  0.22298250889E+03  0.00000000000E+00 0.  1.
         11    1    1    2    0    0  0.91712074729E+01 -0.26295428927E+02  0.22308845677E+02  0.35682561909E+02  0.00000000000E+00 0. -1.
<mgrwt>
<rscale>  0 0.11821303E+03</rscale>
<asrwt>0</asrwt>
<pdfrwt beam="2">  1        3 0.24213629E-02 0.12736171E+03</pdfrwt>
<pdfrwt beam="1">  1       -3 0.13024797E+00 0.12736171E+03</pdfrwt>
<totfact> 0.79070304E+02</totfact>
</mgrwt>
</event>
<event>
 7    1  0.8712071E-006  0.1933807E+03  0.7546771E-02  0.1157842E+00
          1   -1    0    0  501    0  0.00000000000E+00  0.00000000000E+00  0.23735394941E+03  0.23735394941E+03  0.00000000000E+00 0. -1.
         -1   -1    0    0    0  501 -0.00000000000E+00 -0.00000000000E+00 -0.24300471920E+03  0.24300471920E+03  0.00000000000E+00 0.  1.
         23    2    1    2    0    0 -0.99971408085E+02 -0.98680799660E+02 -0.15206170421E+03  0.23780506140E+03  0.11703120389E+03 0.  0.
          5    1    3    3  502    0 -0.43338012180E+02 -0.86908329919E+02 -0.28541868495E+02  0.10133098917E+03  0.47000000000E+01 0. -1.
         -5    1    3    3    0  502 -0.56633395905E+02 -0.11772469741E+02 -0.12351983572E+03  0.13647407223E+03  0.47000000000E+01 0.  1.
        -11    1    1    2    0    0 -0.91686669915E+01 -0.15371656438E+02 -0.98538132163E+01  0.20431591004E+02  0.00000000000E+00 0.  1.
         11    1    1    2    0    0  0.10914007508E+03  0.11405245610E+03  0.15626474764E+03  0.22212201621E+03  0.00000000000E+00 0. -1.
<mgrwt>
<rscale>  0 0.19068846E+03</rscale>
<asrwt>0</asrwt>
<pdfrwt beam="1">  1        1 0.36515992E-01 0.19338069E+03</pdfrwt>
<pdfrwt beam="2">  1       -1 0.37385341E-01 0.19338069E+03</pdfrwt>
<totfact> 0.82130857E+02</totfact>
</mgrwt>
</event>
<event>
 7    1  0.8712071E-006  0.1521734E+03  0.7546771E-02  0.1205631E+00
         -1   -1    0    0    0  501 -0.00000000000E+00  0.00000000000E+00  0.17435188497E+03  0.17435188497E+03  0.00000000000E+00 0.  1.
          1   -1    0    0  501    0  0.00000000000E+00 -0.00000000000E+00 -0.15425356976E+03  0.15425356976E+03  0.00000000000E+00 0. -1.
         23    2    1    2    0    0 -0.58750019842E+01  0.86591439364E+02  0.95448239131E+02  0.17963045859E+03  0.12499656907E+03 0.  0.
          5    1    3    3  502    0 -0.38284265647E+02  0.10622186267E+03  0.62160205073E+02  0.12897577369E+03  0.47000000000E+01 0.  1.
         -5    1    3    3    0  502  0.32409263663E+02 -0.19630423304E+02  0.33288034059E+02  0.50654684895E+02  0.47000000000E+01 0.  1.
        -11    1    1    2    0    0  0.41095351483E+02 -0.78985804401E+01 -0.18857585915E+02  0.45900152865E+02  0.00000000000E+00 0. -1.
         11    1    1    2    0    0 -0.35220349499E+02 -0.78692858923E+02 -0.56492338007E+02  0.10307484328E+03  0.00000000000E+00 0.  1.
<mgrwt>
<rscale>  0 0.14587871E+03</rscale>
<asrwt>0</asrwt>
<pdfrwt beam="2">  1        1 0.23731318E-01 0.15217337E+03</pdfrwt>
<pdfrwt beam="1">  1       -1 0.26823367E-01 0.15217337E+03</pdfrwt>
<totfact> 0.24674614E+03</totfact>
</mgrwt>
</event>
<event>
 7    1  0.8712071E-006  0.3382903E+03  0.7546771E-02  0.1068698E+00
         -2   -1    0    0    0  501 -0.00000000000E+00  0.00000000000E+00  0.32676960590E+03  0.32676960590E+03  0.00000000000E+00 0.  1.
          2   -1    0    0  501    0  0.00000000000E+00 -0.00000000000E+00 -0.38837557889E+03  0.38837557889E+03  0.00000000000E+00 0. -1.
         23    2    1    2    0    0 -0.30596863776E+03 -0.72118730317E+02  0.96013585105E+02  0.35165174753E+03  0.12498969743E+03 0.  0.
          5    1    3    3  502    0 -0.56237811834E+02 -0.27496920956E+02  0.73894222726E+02  0.96959879817E+02  0.47000000000E+01 0. -1.
         -5    1    3    3    0  502 -0.24973082592E+03 -0.44621809361E+02  0.22119362379E+02  0.25469186771E+03  0.47000000000E+01 0. -1.
        -11    1    1    2    0    0  0.21666795924E+03  0.10825329481E+02 -0.84517400717E+02  0.23282049597E+03  0.00000000000E+00 0.  1.
         11    1    1    2    0    0  0.89300678521E+02  0.61293400836E+02 -0.73102157380E+02  0.13067294129E+03  0.00000000000E+00 0. -1.
<mgrwt>
<rscale>  0 0.33557054E+03</rscale>
<asrwt>0</asrwt>
<pdfrwt beam="2">  1        2 0.59750089E-01 0.33829032E+03</pdfrwt>
<pdfrwt beam="1">  1       -2 0.50272247E-01 0.33829032E+03</pdfrwt>
<totfact> 0.31447827E+02</totfact>
</mgrwt>
</event>
<event>
 7    1  0.8712071E-006  0.1384920E+03  0.7546771E-02  0.1227726E+00
          2   -1    0    0  501    0  0.00000000000E+00  0.00000000000E+00  0.13170088755E+03  0.13170088755E+03  0.00000000000E+00 0. -1.
         -2   -1    0    0    0  501 -0.00000000000E+00 -0.00000000000E+00 -0.17557230982E+03  0.17557230982E+03  0.00000000000E+00 0.  1.
         23    2    1    2    0    0 -0.59529144852E+02  0.32778176814E+01 -0.11402365600E+03  0.17939184515E+03  0.12500230719E+03 0.  0.
          5    1    3    3  502    0 -0.70900560779E+02  0.50983146309E+02 -0.86275778298E+02  0.12284856795E+03  0.47000000000E+01 0. -1.
         -5    1    3    3    0  502  0.11371415927E+02 -0.47705328628E+02 -0.27747877701E+02  0.56543277200E+02  0.47000000000E+01 0. -1.
        -11    1    1    2    0    0  0.79034370071E+02  0.14264801386E+02  0.57382374192E+02  0.98704878699E+02  0.00000000000E+00 0. -1.
         11    1    1    2    0    0 -0.19505225218E+02 -0.17542619067E+02  0.12769859530E+02  0.29176473518E+02  0.00000000000E+00 0.  1.
<mgrwt>
<rscale>  0 0.12981811E+03</rscale>
<asrwt>0</asrwt>
<pdfrwt beam="1">  1        2 0.20261675E-01 0.13849202E+03</pdfrwt>
<pdfrwt beam="2">  1       -2 0.27011124E-01 0.13849202E+03</pdfrwt>
<totfact> 0.32604934E+03</totfact>
</mgrwt>
</event>
<event>
 7    1  0.8712071E-006  0.1394942E+03  0.7546771E-02  0.1225316E+00
         -1   -1    0    0    0  501 -0.00000000000E+00  0.00000000000E+00  0.92953521398E+02  0.92953521398E+02  0.00000000000E+00 0.  1.
          1   -1    0    0  501    0  0.00000000000E+00 -0.00000000000E+00 -0.17625571544E+03  0.17625571544E+03  0.00000000000E+00 0. -1.
         23    2    1    2    0    0  0.51596142710E+02 -0.34197203284E+02 -0.16393044821E+02  0.14045414696E+03  0.12500809903E+03 0.  0.
          5    1    3    3  502    0  0.58667320739E+02 -0.67256627548E+02  0.18907877426E+02  0.91350458677E+02  0.47000000000E+01 0.  1.
         -5    1    3    3    0  502 -0.70711780289E+01  0.33059424264E+02 -0.35300922246E+02  0.49103688281E+02  0.47000000000E+01 0.  1.
        -11    1    1    2    0    0 -0.19176362065E+02  0.33813237077E+02 -0.83668429956E+02  0.92257650278E+02  0.00000000000E+00 0. -1.
         11    1    1    2    0    0 -0.32419780645E+02  0.38396620758E+00  0.16759280730E+02  0.36497439605E+02  0.00000000000E+00 0.  1.
<mgrwt>
<rscale>  0 0.13145284E+03</rscale>
<asrwt>0</asrwt>
<pdfrwt beam="2">  1        1 0.27116263E-01 0.13949421E+03</pdfrwt>
<pdfrwt beam="1">  1       -1 0.14300542E-01 0.13949421E+03</pdfrwt>
<totfact> 0.57088885E+03</totfact>
</mgrwt>
</event>
<event>
 7    1  0.8712071E-006  0.1298256E+03  0.7546771E-02  0.1235404E+00
          3   -1    0    0  501    0  0.00000000000E+00  0.00000000000E+00  0.81235461584E+02  0.81235461584E+02  0.00000000000E+00 0.  1.
         -3   -1    0    0    0  501 -0.00000000000E+00 -0.00000000000E+00 -0.17827727093E+03  0.17827727093E+03  0.00000000000E+00 0. -1.
         23    2    1    2    0    0  0.12473385313E+01  0.35039202709E+02 -0.54984528353E+02  0.14098926170E+03  0.12500148790E+03 0.  0.
          5    1    3    3  502    0 -0.78623519764E+01  0.92113829718E+01 -0.92998794284E+02  0.93901714006E+02  0.47000000000E+01 0. -1.
         -5    1    3    3    0  502  0.91096905077E+01  0.25827819737E+02  0.38014265932E+02  0.47087547694E+02  0.47000000000E+01 0. -1.
        -11    1    1    2    0    0 -0.16117810075E+02 -0.26017457986E+02 -0.75147311103E+02  0.81140682076E+02  0.00000000000E+00 0. -1.
         11    1    1    2    0    0  0.14870471543E+02 -0.90217447229E+01  0.33090030106E+02  0.37382788743E+02  0.00000000000E+00 0.  1.
<mgrwt>
<rscale>  0 0.12478589E+03</rscale>
<asrwt>0</asrwt>
<pdfrwt beam="1">  1        3 0.12497764E-01 0.12982555E+03</pdfrwt>
<pdfrwt beam="2">  1       -3 0.27427272E-01 0.12982555E+03</pdfrwt>
<totfact> 0.14668123E+03</totfact>
</mgrwt>
</event>
<event>
 7    1  0.8712071E-006  0.1628240E+03  0.7546771E-02  0.1192751E+00
          1   -1    0    0  501    0  0.00000000000E+00  0.00000000000E+00  0.12745831685E+03  0.12745831685E+03  0.00000000000E+00 0. -1.
         -1   -1    0    0    0  501 -0.00000000000E+00 -0.00000000000E+00 -0.17858895630E+03  0.17858895630E+03  0.00000000000E+00 0.  1.
         23    2    1    2    0    0  0.53168353551E+02  0.89781543239E+02 -0.23778890247E+02  0.16455121006E+03  0.12499626308E+03 0.  0.
          5    1    3    3  502    0  0.39736652178E+01  0.99207897344E+02 -0.46031543913E+02  0.10953990116E+03  0.47000000000E+01 0. -1.
         -5    1    3    3    0  502  0.49194688333E+02 -0.94263541046E+01  0.22252653667E+02  0.55011308902E+02  0.47000000000E+01 0. -1.
        -11    1    1    2    0    0 -0.46446299063E+02 -0.19348151795E+02 -0.46164259147E+02  0.68284321019E+02  0.00000000000E+00 0.  1.
         11    1    1    2    0    0 -0.67220544881E+01 -0.70433391444E+02  0.18812509949E+02  0.73211742074E+02  0.00000000000E+00 0. -1.
<mgrwt>
<rscale>  0 0.15646154E+03</rscale>
<asrwt>0</asrwt>
<pdfrwt beam="1">  1        1 0.19608972E-01 0.16282403E+03</pdfrwt>
<pdfrwt beam="2">  1       -1 0.27475224E-01 0.16282403E+03</pdfrwt>
<totfact> 0.30304104E+03</totfact>
</mgrwt>
</event>
<event>
 7    1  0.8712071E-006  0.1292820E+03  0.7546771E-02  0.1236724E+00
         -2   -1    0    0    0  501 -0.00000000000E+00  0.00000000000E+00  0.32222474091E+03  0.32222474091E+03  0.00000000000E+00 0.  1.
          2   -1    0    0  501    0  0.00000000000E+00 -0.00000000000E+00 -0.11687230339E+03  0.11687230339E+03  0.00000000000E+00 0. -1.
         23    2    1    2    0    0  0.56855662490E+01  0.57145776858E+02  0.27890655108E+03  0.30741289793E+03  0.11582685396E+03 0.  0.
          5    1    3    3  502    0 -0.47797266097E+02  0.50256627719E+02  0.11075131598E+03  0.13076028169E+03  0.47000000000E+01 0. -1.
         -5    1    3    3    0  502  0.53482832346E+02  0.68891491388E+01  0.16815523511E+03  0.17665261624E+03  0.47000000000E+01 0.  1.
        -11    1    1    2    0    0 -0.33330194172E+02 -0.41679569806E+02 -0.82957510063E+02  0.98640949198E+02  0.00000000000E+00 0. -1.
         11    1    1    2    0    0  0.27644627922E+02 -0.15466207052E+02  0.94033965039E+01  0.33043197172E+02  0.00000000000E+00 0.  1.
<mgrwt>
<rscale>  0 0.12394694E+03</rscale>
<asrwt>0</asrwt>
<pdfrwt beam="2">  1        2 0.17980355E-01 0.12928196E+03</pdfrwt>
<pdfrwt beam="1">  1       -2 0.49573037E-01 0.12928196E+03</pdfrwt>
<totfact> 0.12004814E+03</totfact>
</mgrwt>
</event>
<event>
 7    1  0.8712071E-006  0.1358014E+03  0.7546771E-02  0.1230703E+00
         -3   -1    0    0    0  501 -0.00000000000E+00  0.00000000000E+00  0.15198312788E+02  0.15198312788E+02  0.00000000000E+00 0.  1.
          3   -1    0    0  501    0  0.00000000000E+00 -0.00000000000E+00 -0.98457661299E+03  0.98457661299E+03  0.00000000000E+00 0. -1.
         23    2    1    2    0    0  0.38438802228E+02  0.36598697128E+02 -0.47526277161E+03  0.49428405669E+03  0.12500008187E+03 0.  0.
          5    1    3    3  502    0  0.97726237426E+01  0.72371089202E+02 -0.16344210259E+03  0.17907677020E+03  0.47000000000E+01 0.  1.
         -5    1    3    3    0  502  0.28666178485E+02 -0.35772392074E+02 -0.31182066902E+03  0.31520728648E+03  0.47000000000E+01 0.  1.
        -11    1    1    2    0    0 -0.30540469156E+01  0.30037402989E+02 -0.11201293072E+03  0.11601064361E+03  0.00000000000E+00 0.  1.
         11    1    1    2    0    0 -0.35384755312E+02 -0.66636100117E+02 -0.38210259787E+03  0.38948022549E+03  0.00000000000E+00 0. -1.
<mgrwt>
<rscale>  0 0.12783578E+03</rscale>
<asrwt>0</asrwt>
<pdfrwt beam="2">  1        3 0.15147336E+00 0.13580142E+03</pdfrwt>
<pdfrwt beam="1">  1       -3 0.23382014E-02 0.13580142E+03</pdfrwt>
<totfact> 0.58449298E+02</totfact>
</mgrwt>
</event>
<event>
 7    1  0.8712071E-006  0.1710855E+03  0.7546771E-02  0.1183456E+00
          2   -1    0    0  501    0  0.00000000000E+00  0.00000000000E+00  0.33877536661E+03  0.33877536661E+03  0.00000000000E+00 0.  1.
         -2   -1    0    0    0  501 -0.00000000000E+00 -0.00000000000E+00 -0.97845163276E+02  0.97845163276E+02  0.00000000000E+00 0. -1.
         23    2    1    2    0    0  0.10772735624E+03 -0.45171641511E+02  0.21439244454E+02  0.17242360273E+03  0.12499838838E+03 0.  0.
          5    1    3    3  502    0  0.13089238623E+03 -0.55344987022E+02  0.57948686708E+01  0.14230795784E+03  0.47000000000E+01 0.  1.
         -5    1    3    3    0  502 -0.23165029994E+02  0.10173345511E+02  0.15644375783E+02  0.30115644890E+02  0.47000000000E+01 0.  1.
        -11    1    1    2    0    0 -0.64249454979E+02 -0.16846674926E+02  0.13673102810E+03  0.15201045018E+03  0.00000000000E+00 0.  1.
         11    1    1    2    0    0 -0.43477901258E+02  0.62018316437E+02  0.82759930782E+02  0.11218647697E+03  0.00000000000E+00 0. -1.
<mgrwt>
<rscale>  0 0.16473136E+03</rscale>
<asrwt>0</asrwt>
<pdfrwt beam="1">  1        2 0.52119287E-01 0.17108553E+03</pdfrwt>
<pdfrwt beam="2">  1       -2 0.15053102E-01 0.17108553E+03</pdfrwt>
<totfact> 0.31889287E+03</totfact>
</mgrwt>
</event>
<event>
 7    1  0.8712071E-006  0.1325411E+03  0.7546771E-02  0.1234876E+00
         -3   -1    0    0    0  501 -0.00000000000E+00  0.00000000000E+00  0.22610656722E+03  0.22610656722E+03  0.00000000000E+00 0.  1.
          3   -1    0    0  501    0  0.00000000000E+00 -0.00000000000E+00 -0.66300869430E+02  0.66300869430E+02  0.00000000000E+00 0. -1.
         23    2    1    2    0    0  0.11022603616E+02 -0.42666228863E+02  0.12319218254E+03  0.18095155868E+03  0.12500099150E+03 0.  0.
          5    1    3    3  502    0  0.64505883429E+02 -0.10905407237E+02  0.39487181202E+02  0.76558894867E+02  0.47000000000E+01 0.  1.
         -5    1    3    3    0  502 -0.53483279813E+02 -0.31760821625E+02  0.83705001338E+02  0.10439266382E+03  0.47000000000E+01 0.  1.
        -11    1    1    2    0    0 -0.18829855780E+02 -0.21557031713E+02  0.36974547140E+02  0.46758809022E+02  0.00000000000E+00 0.  1.
         11    1    1    2    0    0  0.78072521637E+01  0.64223260576E+02 -0.36103189482E+00  0.64697068940E+02  0.00000000000E+00 0. -1.
<mgrwt>
<rscale>  0 0.12512371E+03</rscale>
<asrwt>0</asrwt>
<pdfrwt beam="2">  1        3 0.10200134E-01 0.13254114E+03</pdfrwt>
<pdfrwt beam="1">  1       -3 0.34785625E-01 0.13254114E+03</pdfrwt>
<totfact> 0.13288472E+03</totfact>
</mgrwt>
</event>
<event>
 7    1  0.8712071E-006  0.1659282E+03  0.7546771E-02  0.1189525E+00
         -2   -1    0    0    0  501 -0.00000000000E+00  0.00000000000E+00  0.36565923927E+03  0.36565923927E+03  0.00000000000E+00 0.  1.
          2   -1    0    0  501    0  0.00000000000E+00 -0.00000000000E+00 -0.64351397059E+02  0.64351397059E+02  0.00000000000E+00 0. -1.
         23    2    1    2    0    0 -0.44912443219E+02 -0.99495195925E+02  0.16499009566E+03  0.23399552365E+03  0.12496300195E+03 0.  0.
          5    1    3    3  502    0 -0.20683047472E+02 -0.11064742782E+03  0.64285624715E+02  0.12971265659E+03  0.47000000000E+01 0. -1.
         -5    1    3    3    0  502 -0.24229395747E+02  0.11152231891E+02  0.10070447094E+03  0.10428286706E+03  0.47000000000E+01 0. -1.
        -11    1    1    2    0    0  0.29851964907E+02  0.24527485739E+02  0.10761434098E+03  0.11433977326E+03  0.00000000000E+00 0.  1.
         11    1    1    2    0    0  0.15060478312E+02  0.74967710186E+02  0.28703405580E+02  0.81675339420E+02  0.00000000000E+00 0. -1.
<mgrwt>
<rscale>  0 0.15926900E+03</rscale>
<asrwt>0</asrwt>
<pdfrwt beam="2">  1        2 0.99002151E-02 0.16592822E+03</pdfrwt>
<pdfrwt beam="1">  1       -2 0.56255267E-01 0.16592822E+03</pdfrwt>
<totfact> 0.19150237E+03</totfact>
</mgrwt>
</event>
<event>
 7    1  0.8712071E-006  0.1429018E+03  0.7546771E-02  0.1223307E+00
         -2   -1    0    0    0  501 -0.00000000000E+00  0.00000000000E+00  0.60824915890E+02  0.60824915890E+02  0.00000000000E+00 0.  1.
          2   -1    0    0  501    0  0.00000000000E+00 -0.00000000000E+00 -0.29411894402E+03  0.29411894402E+03  0.00000000000E+00 0. -1.
         23    2    1    2    0    0 -0.58661677023E+02  0.36804030520E+02 -0.68124508899E+02  0.15830939400E+03  0.12500074601E+03 0.  0.
          5    1    3    3  502    0 -0.51775331474E+02  0.70310966825E+02 -0.65177372763E+01  0.87686303972E+02  0.47000000000E+01 0.  1.
         -5    1    3    3    0  502 -0.68863455492E+01 -0.33506936305E+02 -0.61606771622E+02  0.70623090029E+02  0.47000000000E+01 0.  1.
        -11    1    1    2    0    0  0.70099728670E+02 -0.15734145271E+02 -0.77205771265E+02  0.10546215626E+03  0.00000000000E+00 0.  1.
         11    1    1    2    0    0 -0.11438051646E+02 -0.21069885249E+02 -0.87963747968E+02  0.91172309648E+02  0.00000000000E+00 0. -1.
<mgrwt>
<rscale>  0 0.13283599E+03</rscale>
<asrwt>0</asrwt>
<pdfrwt beam="2">  1        2 0.45249069E-01 0.14290177E+03</pdfrwt>
<pdfrwt beam="1">  1       -2 0.93576793E-02 0.14290177E+03</pdfrwt>
<totfact> 0.78608465E+03</totfact>
</mgrwt>
</event>
<event>
 7    1  0.8712071E-006  0.1363363E+03  0.7546771E-02  0.1230636E+00
         -1   -1    0    0    0  501 -0.00000000000E+00  0.00000000000E+00  0.41999885657E+02  0.41999885657E+02  0.00000000000E+00 0.  1.
          1   -1    0    0  501    0  0.00000000000E+00 -0.00000000000E+00 -0.37032174920E+03  0.37032174920E+03  0.00000000000E+00 0. -1.
         23    2    1    2    0    0 -0.39424216651E+02  0.37526231897E+02 -0.13383124666E+03  0.19104552466E+03  0.12500041188E+03 0.  0.
          5    1    3    3  502    0  0.33015540483E+02  0.50980486536E+02 -0.75129326205E+02  0.96724048596E+02  0.47000000000E+01 0. -1.
         -5    1    3    3    0  502 -0.72439757134E+02 -0.13454254639E+02 -0.58701920453E+02  0.94321476061E+02  0.47000000000E+01 0. -1.
        -11    1    1    2    0    0  0.99636667475E+01  0.69865234459E+01  0.61651727190E+01  0.13641683165E+02  0.00000000000E+00 0.  1.
         11    1    1    2    0    0  0.29460549903E+02 -0.44512755343E+02 -0.20065578961E+03  0.20763442704E+03  0.00000000000E+00 0. -1.
<mgrwt>
<rscale>  0 0.12787991E+03</rscale>
<asrwt>0</asrwt>
<pdfrwt beam="2">  1        1 0.56972576E-01 0.13633631E+03</pdfrwt>
<pdfrwt beam="1">  1       -1 0.64615210E-02 0.13633631E+03</pdfrwt>
<totfact> 0.76170355E+03</totfact>
</mgrwt>
</event>
<event>
 7    1  0.8712071E-006  0.1525383E+03  0.7546771E-02  0.1206371E+00
          2   -1    0    0  501    0  0.00000000000E+00  0.00000000000E+00  0.20367596349E+03  0.20367596349E+03  0.00000000000E+00 0. -1.
         -2   -1    0    0    0  501 -0.00000000000E+00 -0.00000000000E+00 -0.97796451045E+02  0.97796451045E+02  0.00000000000E+00 0.  1.
         23    2    1    2    0    0 -0.59968373693E+02  0.63614469578E+02  0.32284719619E+02  0.15591744841E+03  0.12499976406E+03 0.  0.
          5    1    3    3  502    0 -0.67145045431E+02 -0.11180885281E+02 -0.10943592383E+02  0.69103701318E+02  0.47000000000E+01 0. -1.
         -5    1    3    3    0  502  0.71766717381E+01  0.74795354859E+02  0.43228312002E+02  0.86813747093E+02  0.47000000000E+01 0. -1.
        -11    1    1    2    0    0 -0.10807270343E+02 -0.11248165336E+02  0.52847164288E+02  0.55101189543E+02  0.00000000000E+00 0. -1.
         11    1    1    2    0    0  0.70775644035E+02 -0.52366304242E+02  0.20747628541E+02  0.90453776586E+02  0.00000000000E+00 0.  1.
<mgrwt>
<rscale>  0 0.14529927E+03</rscale>
<asrwt>0</asrwt>
<pdfrwt beam="1">  1        2 0.31334764E-01 0.15253835E+03</pdfrwt>
<pdfrwt beam="2">  1       -2 0.15045608E-01 0.15253835E+03</pdfrwt>
<totfact> 0.54723411E+03</totfact>
</mgrwt>
</event>
<event>
 7    1  0.8712071E-006  0.1390846E+03  0.7546771E-02  0.1226728E+00
          2   -1    0    0  501    0  0.00000000000E+00  0.00000000000E+00  0.18407060451E+03  0.18407060451E+03  0.00000000000E+00 0. -1.
         -2   -1    0    0    0  501 -0.00000000000E+00 -0.00000000000E+00 -0.12566053077E+03  0.12566053077E+03  0.00000000000E+00 0.  1.
         23    2    1    2    0    0 -0.38890327941E+02  0.46983033958E+02 -0.58358668521E+02  0.15083188017E+03  0.12499863517E+03 0.  0.
          5    1    3    3  502    0 -0.19481781543E+02 -0.12486660081E+02 -0.80820259414E+02  0.84198936002E+02  0.47000000000E+01 0.  1.
         -5    1    3    3    0  502 -0.19408546398E+02  0.59469694040E+02  0.22461590893E+02  0.66632944164E+02  0.47000000000E+01 0.  1.
        -11    1    1    2    0    0  0.37154330289E+02 -0.69650050483E+02  0.10958624712E+03  0.13505820726E+03  0.00000000000E+00 0.  1.
         11    1    1    2    0    0  0.17359976513E+01  0.22667016525E+02  0.71824951469E+01  0.23841047849E+02  0.00000000000E+00 0. -1.
<mgrwt>
<rscale>  0 0.13049147E+03</rscale>
<asrwt>0</asrwt>
<pdfrwt beam="1">  1        2 0.28318555E-01 0.13908459E+03</pdfrwt>
<pdfrwt beam="2">  1       -2 0.19332389E-01 0.13908459E+03</pdfrwt>
<totfact> 0.40060788E+03</totfact>
</mgrwt>
</event>
<event>
 7    1  0.8712071E-006  0.1286544E+03  0.7546771E-02  0.1243809E+00
          1   -1    0    0  501    0  0.00000000000E+00  0.00000000000E+00  0.18163536192E+03  0.18163536192E+03  0.00000000000E+00 0. -1.
         -1   -1    0    0    0  501 -0.00000000000E+00 -0.00000000000E+00 -0.69459319905E+02  0.69459319905E+02  0.00000000000E+00 0.  1.
         23    2    1    2    0    0  0.22062299505E+02  0.21050024591E+02  0.64941906960E+02  0.14411597203E+03  0.12498845354E+03 0.  0.
          5    1    3    3  502    0  0.75205395535E+01  0.53073826932E+02  0.87028375857E+02  0.10232017311E+03  0.47000000000E+01 0. -1.
         -5    1    3    3    0  502  0.14541759952E+02 -0.32023802341E+02 -0.22086468896E+02  0.41795798918E+02  0.47000000000E+01 0. -1.
        -11    1    1    2    0    0 -0.54427753330E+02 -0.30303064102E+02  0.29398935715E+02  0.68883622492E+02  0.00000000000E+00 0. -1.
         11    1    1    2    0    0  0.32365453825E+02  0.92530395103E+01  0.17835199338E+02  0.38095087307E+02  0.00000000000E+00 0.  1.
<mgrwt>
<rscale>  0 0.11956964E+03</rscale>
<asrwt>0</asrwt>
<pdfrwt beam="1">  1        1 0.27943902E-01 0.12865443E+03</pdfrwt>
<pdfrwt beam="2">  1       -1 0.10686049E-01 0.12865443E+03</pdfrwt>
<totfact> 0.85780645E+03</totfact>
</mgrwt>
</event>
<event>
 7    1  0.8712071E-006  0.1882179E+03  0.7546771E-02  0.1165018E+00
         -3   -1    0    0    0  501 -0.00000000000E+00  0.00000000000E+00  0.10113491350E+03  0.10113491350E+03  0.00000000000E+00 0.  1.
          3   -1    0    0  501    0  0.00000000000E+00 -0.00000000000E+00 -0.32556977435E+03  0.32556977435E+03  0.00000000000E+00 0. -1.
         23    2    1    2    0    0  0.11712811919E+03 -0.77942081413E+02 -0.77251584097E+02  0.20345463972E+03  0.12502807212E+03 0.  0.
          5    1    3    3  502    0  0.90207396703E+02 -0.56729893213E+02  0.12376303588E+02  0.10738211254E+03  0.47000000000E+01 0. -1.
         -5    1    3    3    0  502  0.26920722490E+02 -0.21212188199E+02 -0.89627887685E+02  0.96072527178E+02  0.47000000000E+01 0. -1.
        -11    1    1    2    0    0 -0.88805430549E+02  0.28650674708E+02 -0.13659226794E+03  0.16542283191E+03  0.00000000000E+00 0. -1.
         11    1    1    2    0    0 -0.28322688644E+02  0.49291406704E+02 -0.10591008811E+02  0.57827216209E+02  0.00000000000E+00 0.  1.
<mgrwt>
<rscale>  0 0.18290848E+03</rscale>
<asrwt>0</asrwt>
<pdfrwt beam="2">  1        3 0.50087657E-01 0.18821791E+03</pdfrwt>
<pdfrwt beam="1">  1       -3 0.15559218E-01 0.18821791E+03</pdfrwt>
<totfact> 0.33656739E+02</totfact>
</mgrwt>
</event>
<event>
 7    1  0.8712071E-006  0.1275720E+03  0.7546771E-02  0.1245636E+00
         -1   -1    0    0    0  501 -0.00000000000E+00  0.00000000000E+00  0.65854617784E+03  0.65854617784E+03  0.00000000000E+00 0.  1.
          1   -1    0    0  501    0  0.00000000000E+00 -0.00000000000E+00 -0.21151602087E+02  0.21151602087E+02  0.00000000000E+00 0. -1.
         23    2    1    2    0    0 -0.24540877402E+02  0.69445432130E+01  0.47280232825E+03  0.48971077976E+03  0.12499649942E+03 0.  0.
          5    1    3    3  502    0  0.18804327169E+02 -0.41404688759E+02  0.32507238015E+03  0.32827137144E+03  0.47000000000E+01 0. -1.
         -5    1    3    3    0  502 -0.43345204571E+02  0.48349231972E+02  0.14772994810E+03  0.16143940832E+03  0.47000000000E+01 0. -1.
        -11    1    1    2    0    0  0.26246678671E+01 -0.48100867038E+02  0.87803171925E+02  0.10014978428E+03  0.00000000000E+00 0. -1.
         11    1    1    2    0    0  0.21916209535E+02  0.41156323825E+02  0.76789075580E+02  0.89837215894E+02  0.00000000000E+00 0.  1.
<mgrwt>
<rscale>  0 0.11847415E+03</rscale>
<asrwt>0</asrwt>
<pdfrwt beam="2">  1        1 0.32540931E-02 0.12757196E+03</pdfrwt>
<pdfrwt beam="1">  1       -1 0.10131478E+00 0.12757196E+03</pdfrwt>
<totfact> 0.28580203E+03</totfact>
</mgrwt>
</event>
<event>
 7    1  0.8712071E-006  0.1261547E+03  0.7546771E-02  0.1250901E+00
          1   -1    0    0  501    0  0.00000000000E+00  0.00000000000E+00  0.27077935121E+03  0.27077935121E+03  0.00000000000E+00 0. -1.
         -1   -1    0    0    0  501 -0.00000000000E+00 -0.00000000000E+00 -0.44487575692E+02  0.44487575692E+02  0.00000000000E+00 0.  1.
         23    2    1    2    0    0  0.11266869376E+02  0.12779821987E+02  0.99077882669E+02  0.16041024387E+03  0.12499901323E+03 0.  0.
          5    1    3    3  502    0  0.67660410017E+02  0.22137129753E+01  0.62133477528E+02  0.92008100940E+02  0.47000000000E+01 0.  1.
         -5    1    3    3    0  502 -0.56393540641E+02  0.10566109012E+02  0.36944405141E+02  0.68402142926E+02  0.47000000000E+01 0.  1.
        -11    1    1    2    0    0 -0.89410129883E+01 -0.50106614226E+02  0.72549866018E+02  0.88623346595E+02  0.00000000000E+00 0. -1.
         11    1    1    2    0    0 -0.23258563879E+01  0.37326792239E+02  0.54664026836E+02  0.66233336445E+02  0.00000000000E+00 0.  1.
<mgrwt>
<rscale>  0 0.11539052E+03</rscale>
<asrwt>0</asrwt>
<pdfrwt beam="1">  1        1 0.41658361E-01 0.12615474E+03</pdfrwt>
<pdfrwt beam="2">  1       -1 0.68442426E-02 0.12615474E+03</pdfrwt>
<totfact> 0.10247085E+04</totfact>
</mgrwt>
</event>
<event>
 7    1  0.8712071E-006  0.1284959E+03  0.7546771E-02  0.1246890E+00
          1   -1    0    0  501    0  0.00000000000E+00  0.00000000000E+00  0.50347455696E+02  0.50347455696E+02  0.00000000000E+00 0. -1.
         -1   -1    0    0    0  501 -0.00000000000E+00 -0.00000000000E+00 -0.31613961913E+03  0.31613961913E+03  0.00000000000E+00 0.  1.
         23    2    1    2    0    0 -0.18000672189E+02  0.23743294025E+02 -0.24017096568E+03  0.27238445444E+03  0.12499372006E+03 0.  0.
          5    1    3    3  502    0 -0.82704413204E+01 -0.30736444069E+02 -0.73145071082E+01  0.32995775606E+02  0.47000000000E+01 0. -1.
         -5    1    3    3    0  502 -0.97302308691E+01  0.54479738094E+02 -0.23285645857E+03  0.23938867883E+03  0.47000000000E+01 0. -1.
        -11    1    1    2    0    0 -0.22416585413E+02 -0.13058336999E+02 -0.41865429162E+02  0.49251777893E+02  0.00000000000E+00 0.  1.
         11    1    1    2    0    0  0.40417257603E+02 -0.10684957026E+02  0.16244231403E+02  0.44850842497E+02  0.00000000000E+00 0. -1.
<mgrwt>
<rscale>  0 0.11772973E+03</rscale>
<asrwt>0</asrwt>
<pdfrwt beam="1">  1        1 0.77457626E-02 0.12849591E+03</pdfrwt>
<pdfrwt beam="2">  1       -1 0.48636863E-01 0.12849591E+03</pdfrwt>
<totfact> 0.37588837E+03</totfact>
</mgrwt>
</event>
<event>
 7    1  0.8712071E-006  0.1498448E+03  0.7546771E-02  0.1210215E+00
          2   -1    0    0  501    0  0.00000000000E+00  0.00000000000E+00  0.20527286684E+03  0.20527286684E+03  0.00000000000E+00 0. -1.
         -2   -1    0    0    0  501 -0.00000000000E+00 -0.00000000000E+00 -0.90361773300E+02  0.90361773300E+02  0.00000000000E+00 0.  1.
         23    2    1    2    0    0  0.80418316315E+02  0.18996894542E+02  0.72557255707E+02  0.16648733719E+03  0.12500196194E+03 0.  0.
          5    1    3    3  502    0  0.63351784435E+02  0.70027532362E+02  0.35544704138E+02  0.10100900887E+03  0.47000000000E+01 0. -1.
         -5    1    3    3    0  502  0.17066531880E+02 -0.51030637820E+02  0.37012551569E+02  0.65478328326E+02  0.47000000000E+01 0. -1.
        -11    1    1    2    0    0 -0.30877530528E+02 -0.25822024630E+02 -0.23383011416E+02  0.46550661331E+02  0.00000000000E+00 0.  1.
         11    1    1    2    0    0 -0.49540785787E+02  0.68251300881E+01  0.65736849248E+02  0.82596641615E+02  0.00000000000E+00 0. -1.
<mgrwt>
<rscale>  0 0.14233956E+03</rscale>
<asrwt>0</asrwt>
<pdfrwt beam="1">  1        2 0.31580441E-01 0.14984485E+03</pdfrwt>
<pdfrwt beam="2">  1       -2 0.13901811E-01 0.14984485E+03</pdfrwt>
<totfact> 0.61665920E+03</totfact>
</mgrwt>
</event>
<event>
 7    1  0.8712071E-006  0.2202929E+03  0.7546771E-02  0.1137038E+00
         -3   -1    0    0    0  501 -0.00000000000E+00  0.00000000000E+00  0.34663647356E+02  0.34663647356E+02  0.00000000000E+00 0.  1.
          3   -1    0    0  501    0  0.00000000000E+00 -0.00000000000E+00 -0.13898940166E+04  0.13898940166E+04  0.00000000000E+00 0. -1.
         23    2    1    2    0    0  0.17834053157E+03 -0.33059541254E+02 -0.51443725154E+03  0.55962011156E+03  0.12502281801E+03 0.  0.
          5    1    3    3  502    0  0.12411420552E+03 -0.33946396441E+02 -0.47567316160E+03  0.49279178211E+03  0.47000000000E+01 0. -1.
         -5    1    3    3    0  502  0.54226326052E+02  0.88685518679E+00 -0.38764089939E+02  0.66828329457E+02  0.47000000000E+01 0. -1.
        -11    1    1    2    0    0 -0.83166817152E+02 -0.23268857446E+02 -0.26817705337E+03  0.28173940292E+03  0.00000000000E+00 0.  1.
         11    1    1    2    0    0 -0.95173714423E+02  0.56328398700E+02 -0.57261606429E+03  0.58319814943E+03  0.00000000000E+00 0. -1.
<mgrwt>
<rscale>  0 0.21581985E+03</rscale>
<asrwt>0</asrwt>
<pdfrwt beam="2">  1        3 0.21382986E+00 0.22029295E+03</pdfrwt>
<pdfrwt beam="1">  1       -3 0.53328684E-02 0.22029295E+03</pdfrwt>
<totfact> 0.67468178E+01</totfact>
</mgrwt>
</event>
<event>
 7    1  0.8712071E-006  0.2466986E+03  0.7546771E-02  0.1117966E+00
          2   -1    0    0  501    0  0.00000000000E+00  0.00000000000E+00  0.20022542130E+04  0.20022542130E+04  0.00000000000E+00 0.  1.
         -2   -1    0    0    0  501 -0.00000000000E+00 -0.00000000000E+00 -0.30238119653E+02  0.30238119653E+02  0.00000000000E+00 0. -1.
         23    2    1    2    0    0 -0.12147428644E+03  0.17458002607E+03  0.77460618739E+03  0.81294215289E+03  0.12500404248E+03 0.  0.
          5    1    3    3  502    0 -0.12967837228E+03  0.14350923514E+03  0.49519617304E+03  0.53165093868E+03  0.47000000000E+01 0.  1.
         -5    1    3    3    0  502  0.82040858358E+01  0.31070790931E+02  0.27941001434E+03  0.28129121420E+03  0.47000000000E+01 0.  1.
        -11    1    1    2    0    0 -0.85311536229E+01 -0.40617260089E+02  0.15003214547E+03  0.15566691066E+03  0.00000000000E+00 0.  1.
         11    1    1    2    0    0  0.13000544006E+03 -0.13396276599E+03  0.10473777605E+04  0.10638832691E+04  0.00000000000E+00 0. -1.
<mgrwt>
<rscale>  0 0.24276248E+03</rscale>
<asrwt>0</asrwt>
<pdfrwt beam="1">  1        2 0.30803901E+00 0.24669860E+03</pdfrwt>
<pdfrwt beam="2">  1       -2 0.46520200E-02 0.24669860E+03</pdfrwt>
<totfact> 0.16222881E+03</totfact>
</mgrwt>
</event>
<event>
 7    1  0.8712071E-006  0.1496149E+03  0.7546771E-02  0.1210906E+00
         -2   -1    0    0    0  501 -0.00000000000E+00  0.00000000000E+00  0.52448880248E+02  0.52448880248E+02  0.00000000000E+00 0.  1.
          2   -1    0    0  501    0  0.00000000000E+00 -0.00000000000E+00 -0.38588289212E+03  0.38588289212E+03  0.00000000000E+00 0. -1.
         23    2    1    2    0    0 -0.67829081926E+02 -0.46494778247E+02 -0.11489662885E+03  0.18864214124E+03  0.12498829294E+03 0.  0.
          5    1    3    3  502    0 -0.39071036557E+02  0.29794547667E+02 -0.21234577331E+01  0.49405060886E+02  0.47000000000E+01 0.  1.
         -5    1    3    3    0  502 -0.28758045369E+02 -0.76289325914E+02 -0.11277317111E+03  0.13923708035E+03  0.47000000000E+01 0.  1.
        -11    1    1    2    0    0  0.37677764868E+02  0.56171918518E+02 -0.20385900934E+03  0.21478685734E+03  0.00000000000E+00 0. -1.
         11    1    1    2    0    0  0.30151317058E+02 -0.96771402710E+01 -0.14678373678E+02  0.34902773786E+02  0.00000000000E+00 0.  1.
<mgrwt>
<rscale>  0 0.14181573E+03</rscale>
<asrwt>0</asrwt>
<pdfrwt beam="2">  1        2 0.59366598E-01 0.14961491E+03</pdfrwt>
<pdfrwt beam="1">  1       -2 0.80690587E-02 0.14961491E+03</pdfrwt>
<totfact> 0.74371278E+03</totfact>
</mgrwt>
</event>
<event>
 7    1  0.8712071E-006  0.1433643E+03  0.7546771E-02  0.1218927E+00
          2   -1    0    0  501    0  0.00000000000E+00  0.00000000000E+00  0.31657147701E+03  0.31657147701E+03  0.00000000000E+00 0.  1.
         -2   -1    0    0    0  501 -0.00000000000E+00 -0.00000000000E+00 -0.58202645651E+02  0.58202645651E+02  0.00000000000E+00 0. -1.
         23    2    1    2    0    0 -0.42781314511E+02 -0.55663444549E+02  0.86243202457E+02  0.16730577097E+03  0.12499868439E+03 0.  0.
          5    1    3    3  502    0  0.14574275376E+02 -0.75749417282E+02  0.69890899659E+02  0.10419794420E+03  0.47000000000E+01 0. -1.
         -5    1    3    3    0  502 -0.57355589887E+02  0.20085972734E+02  0.16352302798E+02  0.63107826763E+02  0.47000000000E+01 0. -1.
        -11    1    1    2    0    0  0.58579793774E+02  0.30776881272E+02  0.16406700947E+03  0.17690899427E+03  0.00000000000E+00 0.  1.
         11    1    1    2    0    0 -0.15798479264E+02  0.24886563276E+02  0.80586194360E+01  0.30559357421E+02  0.00000000000E+00 0. -1.
<mgrwt>
<rscale>  0 0.13591996E+03</rscale>
<asrwt>0</asrwt>
<pdfrwt beam="1">  1        2 0.48703303E-01 0.14336433E+03</pdfrwt>
<pdfrwt beam="2">  1       -2 0.89542533E-02 0.14336433E+03</pdfrwt>
<totfact> 0.77903150E+03</totfact>
</mgrwt>
</event>
<event>
 7    1  0.8712071E-006  0.1288543E+03  0.7546771E-02  0.1243649E+00
         -2   -1    0    0    0  501 -0.00000000000E+00  0.00000000000E+00  0.26020170016E+02  0.26020170016E+02  0.00000000000E+00 0.  1.
          2   -1    0    0  501    0  0.00000000000E+00 -0.00000000000E+00 -0.52998541249E+03  0.52998541249E+03  0.00000000000E+00 0. -1.
         23    2    1    2    0    0  0.30574857270E+02  0.63466285298E+01 -0.20577870162E+03  0.24279270344E+03  0.12501328415E+03 0.  0.
          5    1    3    3  502    0  0.35652666291E+02 -0.55368481833E+02 -0.11890615116E+03  0.13600567701E+03  0.47000000000E+01 0.  1.
         -5    1    3    3    0  502 -0.50778090205E+01  0.61715110363E+02 -0.86872550460E+02  0.10678702644E+03  0.47000000000E+01 0.  1.
        -11    1    1    2    0    0  0.10292523948E+02 -0.32195920972E+02 -0.49959855524E+02  0.60319984586E+02  0.00000000000E+00 0.  1.
         11    1    1    2    0    0 -0.40867381218E+02  0.25849292442E+02 -0.24822668533E+03  0.25289289447E+03  0.00000000000E+00 0. -1.
<mgrwt>
<rscale>  0 0.11966617E+03</rscale>
<asrwt>0</asrwt>
<pdfrwt beam="2">  1        2 0.81536217E-01 0.12885427E+03</pdfrwt>
<pdfrwt beam="1">  1       -2 0.40031031E-02 0.12885427E+03</pdfrwt>
<totfact> 0.15070879E+04</totfact>
</mgrwt>
</event>
<event>
 7    1  0.8712071E-006  0.1479242E+03  0.7546771E-02  0.1213132E+00
         -1   -1    0    0    0  501 -0.00000000000E+00  0.00000000000E+00  0.21751756694E+02  0.21751756694E+02  0.00000000000E+00 0.  1.
          1   -1    0    0  501    0  0.00000000000E+00 -0.00000000000E+00 -0.83455628912E+03  0.83455628912E+03  0.00000000000E+00 0. -1.
         23    2    1    2    0    0  0.78817252471E+02  0.68947567699E+01 -0.39314303513E+03  0.42005121563E+03  0.12498752225E+03 0.  0.
          5    1    3    3  502    0  0.21978234741E+02  0.50080512198E+02 -0.69329442683E+02  0.88429418901E+02  0.47000000000E+01 0.  1.
         -5    1    3    3    0  502  0.56839017730E+02 -0.43185755428E+02 -0.32381359245E+03  0.33162179673E+03  0.47000000000E+01 0.  1.
        -11    1    1    2    0    0 -0.75318779927E+01  0.34547155361E+02 -0.97604289410E+02  0.10381152364E+03  0.00000000000E+00 0.  1.
         11    1    1    2    0    0 -0.71285374478E+02 -0.41441912131E+02 -0.32205720788E+03  0.33244530655E+03  0.00000000000E+00 0. -1.
<mgrwt>
<rscale>  0 0.14014634E+03</rscale>
<asrwt>0</asrwt>
<pdfrwt beam="2">  1        1 0.12839327E+00 0.14792423E+03</pdfrwt>
<pdfrwt beam="1">  1       -1 0.33464243E-02 0.14792423E+03</pdfrwt>
<totfact> 0.67232912E+03</totfact>
</mgrwt>
</event>
<event>
 7    1  0.8712071E-006  0.1310633E+03  0.7546771E-02  0.1238832E+00
          2   -1    0    0  501    0  0.00000000000E+00  0.00000000000E+00  0.10910484924E+03  0.10910484924E+03  0.00000000000E+00 0. -1.
         -2   -1    0    0    0  501 -0.00000000000E+00 -0.00000000000E+00 -0.13059742271E+03  0.13059742271E+03  0.00000000000E+00 0.  1.
         23    2    1    2    0    0 -0.36498800839E+02 -0.14679527817E+02 -0.41149040893E+02  0.13737115768E+03  0.12501976003E+03 0.  0.
          5    1    3    3  502    0 -0.85931383231E+01  0.34758195675E+02 -0.65991346414E+02  0.75225806704E+02  0.47000000000E+01 0. -1.
         -5    1    3    3    0  502 -0.27905662516E+02 -0.49437723492E+02  0.24842305521E+02  0.62145350977E+02  0.47000000000E+01 0. -1.
        -11    1    1    2    0    0 -0.22724923858E+02 -0.20011076095E+02 -0.20377991377E+01  0.30348277647E+02  0.00000000000E+00 0.  1.
         11    1    1    2    0    0  0.59223724697E+02  0.34690603912E+02  0.21694266553E+02  0.71982836621E+02  0.00000000000E+00 0. -1.
<mgrwt>
<rscale>  0 0.12262297E+03</rscale>
<asrwt>0</asrwt>
<pdfrwt beam="1">  1        2 0.16785361E-01 0.13106331E+03</pdfrwt>
<pdfrwt beam="2">  1       -2 0.20091911E-01 0.13106331E+03</pdfrwt>
<totfact> 0.67182486E+03</totfact>
</mgrwt>
</event>
<event>
 6    1  0.8712071E-006  0.2150698E+03  0.7546771E-02  0.1172763E+00
          2   -1    0    0  501    0  0.00000000000E+00  0.00000000000E+00  0.38025433192E+03  0.38025433192E+03  0.00000000000E+00 0. -1.
         -2   -1    0    0    0  501 -0.00000000000E+00 -0.00000000000E+00 -0.76053113739E+02  0.76053113739E+02  0.00000000000E+00 0.  1.
          5    1    1    2  502    0  0.94038463640E+02 -0.47280830694E+02  0.11719008943E+03  0.15758907530E+03  0.47000000000E+01 0. -1.
         -5    1    1    2    0  502 -0.79179263413E+02  0.30580725441E+02 -0.46679613442E+01  0.85137632021E+02  0.47000000000E+01 0.  1.
        -11    1    1    2    0    0  0.64714938117E+01  0.37700723751E+02  0.17536821498E+03  0.17949160322E+03  0.00000000000E+00 0. -1.
         11    1    1    2    0    0 -0.21330694039E+02 -0.21000618499E+02  0.16310875124E+02  0.34089135114E+02  0.00000000000E+00 0.  1.
<mgrwt>
<rscale>  0 0.17496891E+03</rscale>
<asrwt>0</asrwt>
<pdfrwt beam="1">  1        2 0.58500666E-01 0.21506981E+03</pdfrwt>
<pdfrwt beam="2">  1       -2 0.11700479E-01 0.21506981E+03</pdfrwt>
<totfact> 0.42829394E+03</totfact>
</mgrwt>
</event>
<event>
 7    1  0.8712071E-006  0.1775316E+03  0.7546771E-02  0.1175874E+00
          1   -1    0    0  501    0  0.00000000000E+00  0.00000000000E+00  0.50102380490E+03  0.50102380490E+03  0.00000000000E+00 0. -1.
         -1   -1    0    0    0  501 -0.00000000000E+00 -0.00000000000E+00 -0.69127421696E+02  0.69127421696E+02  0.00000000000E+00 0.  1.
         23    2    1    2    0    0  0.11338213668E+02 -0.12555488707E+03  0.10089852477E+03  0.20420083786E+03  0.12499954049E+03 0.  0.
          5    1    3    3  502    0 -0.52391795293E+01 -0.12244563497E+03  0.23540986577E+02  0.12488655081E+03  0.47000000000E+01 0.  1.
         -5    1    3    3    0  502  0.16577393198E+02 -0.31092521058E+01  0.77357538194E+02  0.79314287044E+02  0.47000000000E+01 0.  1.
        -11    1    1    2    0    0 -0.19242678049E+02 -0.36287999743E+01  0.15620397078E+02  0.25048865296E+02  0.00000000000E+00 0.  1.
         11    1    1    2    0    0  0.79044643807E+01  0.12918368705E+03  0.31537746136E+03  0.34090152345E+03  0.00000000000E+00 0. -1.
<mgrwt>
<rscale>  0 0.17190624E+03</rscale>
<asrwt>0</asrwt>
<pdfrwt beam="1">  1        1 0.77080583E-01 0.17753160E+03</pdfrwt>
<pdfrwt beam="2">  1       -1 0.10634988E-01 0.17753160E+03</pdfrwt>
<totfact> 0.24596265E+03</totfact>
</mgrwt>
</event>
<event>
 7    1  0.8712071E-006  0.1596370E+03  0.7546771E-02  0.1195468E+00
         -2   -1    0    0    0  501 -0.00000000000E+00  0.00000000000E+00  0.67070666328E+02  0.67070666328E+02  0.00000000000E+00 0.  1.
          2   -1    0    0  501    0  0.00000000000E+00 -0.00000000000E+00 -0.33267271584E+03  0.33267271584E+03  0.00000000000E+00 0. -1.
         23    2    1    2    0    0  0.98148413541E+02 -0.15112392660E+02 -0.15140692221E+03  0.22001827798E+03  0.12498996383E+03 0.  0.
          5    1    3    3  502    0  0.99053909838E+02 -0.53387287547E+02 -0.14023381165E+03  0.17985964377E+03  0.47000000000E+01 0.  1.
         -5    1    3    3    0  502 -0.90549629678E+00  0.38274894886E+02 -0.11173110559E+02  0.40158634211E+02  0.47000000000E+01 0.  1.
        -11    1    1    2    0    0  0.97957760328E+01 -0.16643432007E+02  0.13668923897E+00  0.19312683423E+02  0.00000000000E+00 0.  1.
         11    1    1    2    0    0 -0.10794418957E+03  0.31755824667E+02 -0.11433181654E+03  0.16041242077E+03  0.00000000000E+00 0. -1.
<mgrwt>
<rscale>  0 0.15414660E+03</rscale>
<asrwt>0</asrwt>
<pdfrwt beam="2">  1        2 0.51180417E-01 0.15963705E+03</pdfrwt>
<pdfrwt beam="1">  1       -2 0.10318564E-01 0.15963705E+03</pdfrwt>
<totfact> 0.59542156E+03</totfact>
</mgrwt>
</event>
<event>
 7    1  0.8712071E-006  0.1680952E+03  0.7546771E-02  0.1186422E+00
          1   -1    0    0  501    0  0.00000000000E+00  0.00000000000E+00  0.16722896651E+03  0.16722896651E+03  0.00000000000E+00 0. -1.
         -1   -1    0    0    0  501 -0.00000000000E+00 -0.00000000000E+00 -0.18704467509E+03  0.18704467509E+03  0.00000000000E+00 0.  1.
         23    2    1    2    0    0 -0.55103319043E+02  0.98069993056E+02 -0.92608416895E+02  0.19191750188E+03  0.12490760322E+03 0.  0.
          5    1    3    3  502    0  0.24230862647E+02 -0.15522353236E+02 -0.11823453982E+02  0.31463665054E+02  0.47000000000E+01 0. -1.
         -5    1    3    3    0  502 -0.79334181690E+02  0.11359234629E+03 -0.80784962913E+02  0.16045383683E+03  0.47000000000E+01 0.  1.
        -11    1    1    2    0    0  0.43862346857E+02 -0.68159814227E+02  0.93913328151E+02  0.12405393566E+03  0.00000000000E+00 0. -1.
         11    1    1    2    0    0  0.11240972186E+02 -0.29910178829E+02 -0.21120619839E+02  0.38302204057E+02  0.00000000000E+00 0.  1.
<mgrwt>
<rscale>  0 0.16203199E+03</rscale>
<asrwt>0</asrwt>
<pdfrwt beam="1">  1        1 0.25727533E-01 0.16809524E+03</pdfrwt>
<pdfrwt beam="2">  1       -1 0.28776104E-01 0.16809524E+03</pdfrwt>
<totfact> 0.19889731E+03</totfact>
</mgrwt>
</event>
<event>
 7    1  0.8712071E-006  0.1281860E+03  0.7546771E-02  0.1249142E+00
         -2   -1    0    0    0  501 -0.00000000000E+00  0.00000000000E+00  0.10405275847E+03  0.10405275847E+03  0.00000000000E+00 0.  1.
          2   -1    0    0  501    0  0.00000000000E+00 -0.00000000000E+00 -0.14353161934E+03  0.14353161934E+03  0.00000000000E+00 0. -1.
         23    2    1    2    0    0  0.27876830944E+02 -0.54050354098E+01  0.35047751280E+02  0.13289092474E+03  0.12500128358E+03 0.  0.
          5    1    3    3  502    0  0.55643871754E+02 -0.20047134307E+02 -0.25459863874E+02  0.64563323382E+02  0.47000000000E+01 0.  1.
         -5    1    3    3    0  502 -0.27767040810E+02  0.14642098897E+02  0.60507615155E+02  0.68327601357E+02  0.47000000000E+01 0.  1.
        -11    1    1    2    0    0  0.18788230733E+02  0.19777301184E+02 -0.21198470766E+01  0.27361158744E+02  0.00000000000E+00 0.  1.
         11    1    1    2    0    0 -0.46665061676E+02 -0.14372265774E+02 -0.72406765077E+02  0.87332294333E+02  0.00000000000E+00 0. -1.
<mgrwt>
<rscale>  0 0.11640854E+03</rscale>
<asrwt>0</asrwt>
<pdfrwt beam="2">  1        2 0.22081788E-01 0.12818601E+03</pdfrwt>
<pdfrwt beam="1">  1       -2 0.16008117E-01 0.12818601E+03</pdfrwt>
<totfact> 0.71762939E+03</totfact>
</mgrwt>
</event>
<event>
 7    1  0.8712071E-006  0.1313007E+03  0.7546771E-02  0.1239541E+00
          4   -1    0    0  501    0  0.00000000000E+00  0.00000000000E+00  0.11790266766E+03  0.11790266766E+03  0.00000000000E+00 0. -1.
         -4   -1    0    0    0  501 -0.00000000000E+00 -0.00000000000E+00 -0.11193131887E+03  0.11193131887E+03  0.00000000000E+00 0.  1.
         23    2    1    2    0    0 -0.37676210719E+02 -0.13909625418E+02  0.27006006078E+01  0.13132850464E+03  0.12500763319E+03 0.  0.
          5    1    3    3  502    0  0.30027327867E+02  0.23254352960E+02  0.30680805102E+02  0.49049028045E+02  0.47000000000E+01 0.  1.
         -5    1    3    3    0  502 -0.67703538585E+02 -0.37163978377E+02 -0.27980204495E+02  0.82279476599E+02  0.47000000000E+01 0.  1.
        -11    1    1    2    0    0  0.62318608526E+02  0.10284505882E+02 -0.18081112098E+02  0.65698604586E+02  0.00000000000E+00 0.  1.
         11    1    1    2    0    0 -0.24642397807E+02  0.36251195353E+01  0.21351860280E+02  0.32806877309E+02  0.00000000000E+00 0. -1.
<mgrwt>
<rscale>  0 0.12218154E+03</rscale>
<asrwt>0</asrwt>
<pdfrwt beam="1">  1        4 0.18138872E-01 0.13130073E+03</pdfrwt>
<pdfrwt beam="2">  1       -4 0.17220203E-01 0.13130073E+03</pdfrwt>
<totfact> 0.12993933E+03</totfact>
</mgrwt>
</event>
<event>
 7    1  0.8712071E-006  0.1657658E+03  0.7546771E-02  0.1191692E+00
          1   -1    0    0  501    0  0.00000000000E+00  0.00000000000E+00  0.82883145394E+03  0.82883145394E+03  0.00000000000E+00 0. -1.
         -1   -1    0    0    0  501 -0.00000000000E+00 -0.00000000000E+00 -0.32188582609E+02  0.32188582609E+02  0.00000000000E+00 0.  1.
         23    2    1    2    0    0  0.47729377808E+02  0.97855855183E+02  0.26491018196E+03  0.31249912991E+03  0.12499775915E+03 0.  0.
          5    1    3    3  502    0 -0.38228987821E+01  0.97389275324E+02  0.10027142259E+03  0.13991330777E+03  0.47000000000E+01 0.  1.
         -5    1    3    3    0  502  0.51552276590E+02  0.46657985960E+00  0.16463875936E+03  0.17258582214E+03  0.47000000000E+01 0.  1.
        -11    1    1    2    0    0 -0.51657352811E+02 -0.62522239720E+02  0.47272165963E+03  0.47962827277E+03  0.00000000000E+00 0.  1.
         11    1    1    2    0    0  0.39279750033E+01 -0.35333615464E+02  0.59011029746E+02  0.68892633866E+02  0.00000000000E+00 0. -1.
<mgrwt>
<rscale>  0 0.15737564E+03</rscale>
<asrwt>0</asrwt>
<pdfrwt beam="1">  1        1 0.12751252E+00 0.16576580E+03</pdfrwt>
<pdfrwt beam="2">  1       -1 0.49520903E-02 0.16576580E+03</pdfrwt>
<totfact> 0.38302801E+03</totfact>
</mgrwt>
</event>
<event>
 7    1  0.8712071E-006  0.1359197E+03  0.7546771E-02  0.1228978E+00
         -1   -1    0    0    0  501 -0.00000000000E+00  0.00000000000E+00  0.18723765555E+03  0.18723765555E+03  0.00000000000E+00 0.  1.
          1   -1    0    0  501    0  0.00000000000E+00 -0.00000000000E+00 -0.80889947736E+02  0.80889947736E+02  0.00000000000E+00 0. -1.
         23    2    1    2    0    0  0.50636049339E+02 -0.16967113266E+02  0.59306012811E+02  0.14829486659E+03  0.12498908702E+03 0.  0.
          5    1    3    3  502    0  0.19715296229E+02 -0.70603968770E+02  0.26642247924E+02  0.78137780144E+02  0.47000000000E+01 0.  1.
         -5    1    3    3    0  502  0.30920753110E+02  0.53636855504E+02  0.32663764888E+02  0.70157086441E+02  0.47000000000E+01 0.  1.
        -11    1    1    2    0    0  0.12155929804E+02 -0.28905257087E+02  0.21349640469E+02  0.37935308945E+02  0.00000000000E+00 0.  1.
         11    1    1    2    0    0 -0.62791979143E+02  0.45872370352E+02  0.25692054530E+02  0.81897427752E+02  0.00000000000E+00 0. -1.
<mgrwt>
<rscale>  0 0.12897937E+03</rscale>
<asrwt>0</asrwt>
<pdfrwt beam="2">  1        1 0.12444607E-01 0.13591970E+03</pdfrwt>
<pdfrwt beam="1">  1       -1 0.28805793E-01 0.13591970E+03</pdfrwt>
<totfact> 0.49944361E+03</totfact>
</mgrwt>
</event>
<event>
 7    1  0.8712071E-006  0.1463398E+03  0.7546771E-02  0.1214418E+00
          2   -1    0    0  501    0  0.00000000000E+00  0.00000000000E+00  0.25424554779E+03  0.25424554779E+03  0.00000000000E+00 0. -1.
         -2   -1    0    0    0  501 -0.00000000000E+00 -0.00000000000E+00 -0.69937439381E+02  0.69937439381E+02  0.00000000000E+00 0.  1.
         23    2    1    2    0    0 -0.62586634195E+02 -0.43263116612E+02  0.11186816805E+03  0.18420046317E+03  0.12500615813E+03 0.  0.
          5    1    3    3  502    0 -0.76455346794E+02  0.21351926430E+02  0.69046337816E+02  0.10531292220E+03  0.47000000000E+01 0. -1.
         -5    1    3    3    0  502  0.13868712599E+02 -0.64615043041E+02  0.42821830238E+02  0.78887540976E+02  0.47000000000E+01 0. -1.
        -11    1    1    2    0    0  0.33570586031E+02  0.28632549954E+02 -0.15076840506E+02  0.46627441309E+02  0.00000000000E+00 0.  1.
         11    1    1    2    0    0  0.29016048164E+02  0.14630566658E+02  0.87516780857E+02  0.93355082686E+02  0.00000000000E+00 0. -1.
<mgrwt>
<rscale>  0 0.13919352E+03</rscale>
<asrwt>0</asrwt>
<pdfrwt beam="1">  1        2 0.39114699E-01 0.14633975E+03</pdfrwt>
<pdfrwt beam="2">  1       -2 0.10759606E-01 0.14633975E+03</pdfrwt>
<totfact> 0.73787349E+03</totfact>
</mgrwt>
</event>
<event>
 7    1  0.8712071E-006  0.3741835E+03  0.7546771E-02  0.1053852E+00
         -2   -1    0    0    0  501 -0.00000000000E+00  0.00000000000E+00  0.96680751925E+02  0.96680751925E+02  0.00000000000E+00 0.  1.
          2   -1    0    0  501    0  0.00000000000E+00 -0.00000000000E+00 -0.16485959111E+04  0.16485959111E+04  0.00000000000E+00 0. -1.
         23    2    1    2    0    0  0.30227748903E+02  0.35309293941E+03 -0.45669532006E+03  0.59040996171E+03  0.12010398352E+03 0.  0.
          5    1    3    3  502    0 -0.45843295989E+02  0.16263968842E+03 -0.20762175338E+03  0.26773523958E+03  0.47000000000E+01 0. -1.
         -5    1    3    3    0  502  0.76071044892E+02  0.19045325099E+03 -0.24907356668E+03  0.32267472213E+03  0.47000000000E+01 0.  1.
        -11    1    1    2    0    0 -0.23600247284E+02 -0.17560561833E+02 -0.64577770099E+02  0.70962196942E+02  0.00000000000E+00 0.  1.
         11    1    1    2    0    0 -0.66275016199E+01 -0.33553237757E+03 -0.10306420690E+04  0.10839045044E+04  0.00000000000E+00 0. -1.
<mgrwt>
<rscale>  0 0.37220898E+03</rscale>
<asrwt>0</asrwt>
<pdfrwt beam="2">  1        2 0.25363012E+00 0.37418352E+03</pdfrwt>
<pdfrwt beam="1">  1       -2 0.14873963E-01 0.37418352E+03</pdfrwt>
<totfact> 0.39080531E+02</totfact>
</mgrwt>
</event>
<event>
 7    1  0.8712071E-006  0.1393823E+03  0.7546771E-02  0.1228237E+00
         -1   -1    0    0    0  501 -0.00000000000E+00  0.00000000000E+00  0.33084937588E+02  0.33084937588E+02  0.00000000000E+00 0.  1.
          1   -1    0    0  501    0  0.00000000000E+00 -0.00000000000E+00 -0.49026481938E+03  0.49026481938E+03  0.00000000000E+00 0. -1.
         23    2    1    2    0    0 -0.60877684600E+02 -0.96693782848E+01 -0.18193546124E+03  0.22918976963E+03  0.12501139583E+03 0.  0.
          5    1    3    3  502    0 -0.67418409564E+02 -0.55318704133E+02 -0.85639516896E+02  0.12231769222E+03  0.47000000000E+01 0.  1.
         -5    1    3    3    0  502  0.65407249635E+01  0.45649325849E+02 -0.96295944348E+02  0.10687207742E+03  0.47000000000E+01 0.  1.
        -11    1    1    2    0    0 -0.64961032499E+01  0.31913251901E+02 -0.77129431839E+02  0.83723379412E+02  0.00000000000E+00 0.  1.
         11    1    1    2    0    0  0.67373787850E+02 -0.22243873616E+02 -0.19811498870E+03  0.21043660792E+03  0.00000000000E+00 0. -1.
<mgrwt>
<rscale>  0 0.12947498E+03</rscale>
<asrwt>0</asrwt>
<pdfrwt beam="2">  1        1 0.75425350E-01 0.13938235E+03</pdfrwt>
<pdfrwt beam="1">  1       -1 0.50899908E-02 0.13938235E+03</pdfrwt>
<totfact> 0.76111553E+03</totfact>
</mgrwt>
</event>
<event>
 7    1  0.8712071E-006  0.1273630E+03  0.7546771E-02  0.1246377E+00
         -3   -1    0    0    0  501 -0.00000000000E+00  0.00000000000E+00  0.93432696894E+03  0.93432696894E+03  0.00000000000E+00 0.  1.
          3   -1    0    0  501    0  0.00000000000E+00 -0.00000000000E+00 -0.22085474610E+02  0.22085474610E+02  0.00000000000E+00 0. -1.
         23    2    1    2    0    0 -0.72831993220E+01 -0.23386602756E+02  0.79984551775E+03  0.80992233547E+03  0.12498543536E+03 0.  0.
          5    1    3    3  502    0 -0.25003131504E+02  0.25965905977E+02  0.65146752358E+03  0.65248096458E+03  0.47000000000E+01 0.  1.
         -5    1    3    3    0  502  0.17719932182E+02 -0.49352508734E+02  0.14837799417E+03  0.15744137089E+03  0.47000000000E+01 0.  1.
        -11    1    1    2    0    0 -0.21465690579E+02 -0.75892982957E+01  0.99840080208E+02  0.10240319788E+03  0.00000000000E+00 0.  1.
         11    1    1    2    0    0  0.28748889901E+02  0.30975901052E+02  0.12555896367E+02  0.44086910190E+02  0.00000000000E+00 0. -1.
<mgrwt>
<rscale>  0 0.11803370E+03</rscale>
<asrwt>0</asrwt>
<pdfrwt beam="2">  1        3 0.33977660E-02 0.12736301E+03</pdfrwt>
<pdfrwt beam="1">  1       -3 0.14374258E+00 0.12736301E+03</pdfrwt>
<totfact> 0.36930214E+02</totfact>
</mgrwt>
</event>
<event>
 6    1  0.8712071E-006  0.1636287E+03  0.7546771E-02  0.1200578E+00
          1   -1    0    0  501    0  0.00000000000E+00  0.00000000000E+00  0.18146005354E+03  0.18146005354E+03  0.00000000000E+00 0. -1.
         -1   -1    0    0    0  501 -0.00000000000E+00 -0.00000000000E+00 -0.15007854222E+03  0.15007854222E+03  0.00000000000E+00 0.  1.
          5    1    1    2  502    0 -0.43356660919E+02  0.24432965715E+01  0.12629730999E+02  0.45468338976E+02  0.47000000000E+01 0. -1.
         -5    1    1    2    0  502  0.88048713085E+02 -0.54339891387E+02 -0.82667216347E+02  0.13251927532E+03  0.47000000000E+01 0.  1.
        -11    1    1    2    0    0  0.28695492648E+02  0.10774909514E+02  0.20866005282E+02  0.37079915720E+02  0.00000000000E+00 0.  1.
         11    1    1    2    0    0 -0.73387544815E+02  0.41121685302E+02  0.80552991384E+02  0.11647106575E+03  0.00000000000E+00 0. -1.
<mgrwt>
<rscale>  0 0.14991452E+03</rscale>
<asrwt>0</asrwt>
<pdfrwt beam="1">  1        1 0.27916931E-01 0.16362867E+03</pdfrwt>
<pdfrwt beam="2">  1       -1 0.23089006E-01 0.16362867E+03</pdfrwt>
<totfact> 0.25826016E+03</totfact>
</mgrwt>
</event>
<event>
 7    1  0.8712071E-006  0.1516320E+03  0.7546771E-02  0.1215183E+00
         -2   -1    0    0    0  501 -0.00000000000E+00  0.00000000000E+00  0.59079871626E+03  0.59079871626E+03  0.00000000000E+00 0.  1.
          2   -1    0    0  501    0  0.00000000000E+00 -0.00000000000E+00 -0.28315382100E+02  0.28315382100E+02  0.00000000000E+00 0. -1.
         23    2    1    2    0    0  0.16113887706E+02 -0.84316559321E+02  0.35883484791E+03  0.38955705413E+03  0.12499324300E+03 0.  0.
          5    1    3    3  502    0 -0.24432382900E+02 -0.10260904779E+03  0.22730289366E+03  0.25062771892E+03  0.47000000000E+01 0.  1.
         -5    1    3    3    0  502  0.40546270606E+02  0.18292488472E+02  0.13153195425E+03  0.13892933521E+03  0.47000000000E+01 0.  1.
        -11    1    1    2    0    0 -0.84624922083E+01  0.67068080629E+02  0.19893647541E+03  0.21010821608E+03  0.00000000000E+00 0.  1.
         11    1    1    2    0    0 -0.76513954973E+01  0.17248478692E+02  0.47120108352E+01  0.19448828148E+02  0.00000000000E+00 0. -1.
<mgrwt>
<rscale>  0 0.13863095E+03</rscale>
<asrwt>0</asrwt>
<pdfrwt beam="2">  1        2 0.43562131E-02 0.15163196E+03</pdfrwt>
<pdfrwt beam="1">  1       -2 0.90892101E-01 0.15163196E+03</pdfrwt>
<totfact> 0.19544001E+03</totfact>
</mgrwt>
</event>
<event>
 7    1  0.8712071E-006  0.1634963E+03  0.7546771E-02  0.1192219E+00
         -2   -1    0    0    0  501 -0.00000000000E+00  0.00000000000E+00  0.61985885502E+02  0.61985885502E+02  0.00000000000E+00 0.  1.
          2   -1    0    0  501    0  0.00000000000E+00 -0.00000000000E+00 -0.39435816572E+03  0.39435816572E+03  0.00000000000E+00 0. -1.
         23    2    1    2    0    0 -0.60279028327E+02 -0.86445137537E+02 -0.12055539335E+03  0.20313700734E+03  0.12499887129E+03 0.  0.
          5    1    3    3  502    0 -0.89669522923E+02 -0.94865341954E+02 -0.84223389295E+02  0.15542112388E+03  0.47000000000E+01 0.  1.
         -5    1    3    3    0  502  0.29390494597E+02  0.84202044161E+01 -0.36332004056E+02  0.47715883454E+02  0.47000000000E+01 0.  1.
        -11    1    1    2    0    0  0.80040168946E+02  0.84472251735E+02 -0.16104554239E+03  0.19868985047E+03  0.00000000000E+00 0.  1.
         11    1    1    2    0    0 -0.19761140620E+02  0.19728858021E+01 -0.50771344480E+02  0.54517193410E+02  0.00000000000E+00 0. -1.
<mgrwt>
<rscale>  0 0.15691971E+03</rscale>
<asrwt>0</asrwt>
<pdfrwt beam="2">  1        2 0.60670485E-01 0.16349630E+03</pdfrwt>
<pdfrwt beam="1">  1       -2 0.95362904E-02 0.16349630E+03</pdfrwt>
<totfact> 0.56276376E+03</totfact>
</mgrwt>
</event>
<event>
 7    1  0.8712071E-006  0.3094312E+03  0.7546771E-02  0.1082057E+00
          2   -1    0    0  501    0  0.00000000000E+00  0.00000000000E+00  0.84625712857E+03  0.84625712857E+03  0.00000000000E+00 0.  1.
         -2   -1    0    0    0  501 -0.00000000000E+00 -0.00000000000E+00 -0.11217770367E+03  0.11217770367E+03  0.00000000000E+00 0. -1.
         23    2    1    2    0    0 -0.60937324911E+02 -0.27642093687E+03  0.29195547268E+03  0.42542413362E+03  0.12500321408E+03 0.  0.
          5    1    3    3  502    0  0.13323660830E+02 -0.17271656694E+02 -0.64756783411E+01  0.23234768620E+02  0.47000000000E+01 0.  1.
         -5    1    3    3    0  502 -0.74260985741E+02 -0.25914928018E+03  0.29843115102E+03  0.40218936500E+03  0.47000000000E+01 0.  1.
        -11    1    1    2    0    0 -0.30263083798E+01  0.12252788419E+03  0.12679237406E+03  0.17634780142E+03  0.00000000000E+00 0. -1.
         11    1    1    2    0    0  0.63963633291E+02  0.15389305268E+03  0.31533157816E+03  0.35666289719E+03  0.00000000000E+00 0.  1.
<mgrwt>
<rscale>  0 0.30645645E+03</rscale>
<asrwt>0</asrwt>
<pdfrwt beam="1">  1        2 0.13019340E+00 0.30943125E+03</pdfrwt>
<pdfrwt beam="2">  1       -2 0.17258109E-01 0.30943125E+03</pdfrwt>
<totfact> 0.89309727E+02</totfact>
</mgrwt>
</event>
<event>
 6    1  0.8712071E-006  0.1523640E+03  0.7546771E-02  0.1208535E+00
         -4   -1    0    0    0  501 -0.00000000000E+00  0.00000000000E+00  0.11875864115E+03  0.11875864115E+03  0.00000000000E+00 0.  1.
          4   -1    0    0  501    0  0.00000000000E+00 -0.00000000000E+00 -0.15670064125E+03  0.15670064125E+03  0.00000000000E+00 0. -1.
          5    1    1    2  502    0 -0.32246284658E+02 -0.68714212279E+02 -0.13043315559E+02  0.77160118741E+02  0.47000000000E+01 0. -1.
         -5    1    1    2    0  502  0.75750339637E+02  0.40936784361E+01 -0.33009693664E+01  0.76077976820E+02  0.47000000000E+01 0.  1.
        -11    1    1    2    0    0 -0.33027648415E+02  0.74617031070E+02 -0.46128284486E+02  0.93735508294E+02  0.00000000000E+00 0.  1.
         11    1    1    2    0    0 -0.10476406564E+02 -0.99964972275E+01  0.24530569317E+02  0.28485678548E+02  0.00000000000E+00 0. -1.
<mgrwt>
<rscale>  0 0.14362370E+03</rscale>
<asrwt>0</asrwt>
<pdfrwt beam="2">  1        4 0.24107791E-01 0.15236397E+03</pdfrwt>
<pdfrwt beam="1">  1       -4 0.18270560E-01 0.15236397E+03</pdfrwt>
<totfact> 0.72052983E+02</totfact>
</mgrwt>
</event>
<event>
 7    1  0.8712071E-006  0.2427591E+03  0.7546771E-02  0.1122182E+00
         -1   -1    0    0    0  501 -0.00000000000E+00  0.00000000000E+00  0.12291161329E+03  0.12291161329E+03  0.00000000000E+00 0.  1.
          1   -1    0    0  501    0  0.00000000000E+00 -0.00000000000E+00 -0.44650397788E+03  0.44650397788E+03  0.00000000000E+00 0. -1.
         23    2    1    2    0    0 -0.23389988048E+01 -0.20809419681E+03 -0.22000849616E+03  0.32762133256E+03  0.12499333382E+03 0.  0.
          5    1    3    3  502    0 -0.46435212601E+02 -0.18696280422E+03 -0.16322923691E+03  0.25254146771E+03  0.47000000000E+01 0.  1.
         -5    1    3    3    0  502  0.44096213797E+02 -0.21131392592E+02 -0.56779259254E+02  0.75079864848E+02  0.47000000000E+01 0.  1.
        -11    1    1    2    0    0  0.30421424038E+02  0.86656578582E+02 -0.27954169326E+02  0.96001360588E+02  0.00000000000E+00 0.  1.
         11    1    1    2    0    0 -0.28082425234E+02  0.12143761823E+03 -0.75629699105E+02  0.14579289803E+03  0.00000000000E+00 0. -1.
<mgrwt>
<rscale>  0 0.23644826E+03</rscale>
<asrwt>0</asrwt>
<pdfrwt beam="2">  1        1 0.68692920E-01 0.24275914E+03</pdfrwt>
<pdfrwt beam="1">  1       -1 0.18909479E-01 0.24275914E+03</pdfrwt>
<totfact> 0.11600346E+03</totfact>
</mgrwt>
</event>
<event>
 7    1  0.8712071E-006  0.2341662E+03  0.7546771E-02  0.1126707E+00
         -2   -1    0    0    0  501 -0.00000000000E+00  0.00000000000E+00  0.45755760259E+02  0.45755760259E+02  0.00000000000E+00 0.  1.
          2   -1    0    0  501    0  0.00000000000E+00 -0.00000000000E+00 -0.12227537059E+04  0.12227537059E+04  0.00000000000E+00 0. -1.
         23    2    1    2    0    0  0.31047106498E+02  0.19555915725E+03 -0.42004670586E+03  0.48090857860E+03  0.12500607612E+03 0.  0.
          5    1    3    3  502    0 -0.45405650269E+02  0.96154026234E+02 -0.22612081537E+03  0.24991995315E+03  0.47000000000E+01 0. -1.
         -5    1    3    3    0  502  0.76452756767E+02  0.99405131015E+02 -0.19392589049E+03  0.23098862546E+03  0.47000000000E+01 0. -1.
        -11    1    1    2    0    0  0.28432054454E+02 -0.10801399700E+03 -0.38064923159E+03  0.39669792384E+03  0.00000000000E+00 0.  1.
         11    1    1    2    0    0 -0.59479160952E+02 -0.87545160248E+02 -0.37630200815E+03  0.39090296367E+03  0.00000000000E+00 0. -1.
<mgrwt>
<rscale>  0 0.22990410E+03</rscale>
<asrwt>0</asrwt>
<pdfrwt beam="2">  1        2 0.18811595E+00 0.23416624E+03</pdfrwt>
<pdfrwt beam="1">  1       -2 0.70393478E-02 0.23416624E+03</pdfrwt>
<totfact> 0.22385058E+03</totfact>
</mgrwt>
</event>
<event>
 7    1  0.8712071E-006  0.1278950E+03  0.7546771E-02  0.1244866E+00
          1   -1    0    0  501    0  0.00000000000E+00  0.00000000000E+00  0.48159224171E+03  0.48159224171E+03  0.00000000000E+00 0. -1.
         -1   -1    0    0    0  501 -0.00000000000E+00 -0.00000000000E+00 -0.26156903884E+02  0.26156903884E+02  0.00000000000E+00 0.  1.
         23    2    1    2    0    0 -0.23421445506E+02  0.13547648160E+02  0.28316272201E+03  0.31070606489E+03  0.12500011497E+03 0.  0.
          5    1    3    3  502    0 -0.71830717498E+02 -0.62232244275E+01  0.12910441554E+03  0.14794735757E+03  0.47000000000E+01 0.  1.
         -5    1    3    3    0  502  0.48409271992E+02  0.19770872587E+02  0.15405830646E+03  0.16275870732E+03  0.47000000000E+01 0.  1.
        -11    1    1    2    0    0 -0.34445939476E+02  0.51290969116E+01  0.61154865693E+02  0.70375762728E+02  0.00000000000E+00 0.  1.
         11    1    1    2    0    0  0.57867384982E+02 -0.18676745071E+02  0.11111775013E+03  0.12666731798E+03  0.00000000000E+00 0. -1.
<mgrwt>
<rscale>  0 0.11893418E+03</rscale>
<asrwt>0</asrwt>
<pdfrwt beam="1">  1        1 0.74091108E-01 0.12789500E+03</pdfrwt>
<pdfrwt beam="2">  1       -1 0.40241394E-02 0.12789500E+03</pdfrwt>
<totfact> 0.10947669E+04</totfact>
</mgrwt>
</event>
<event>
 7    1  0.8712071E-006  0.1303758E+03  0.7546771E-02  0.1239093E+00
          1   -1    0    0  501    0  0.00000000000E+00  0.00000000000E+00  0.22921945277E+03  0.22921945277E+03  0.00000000000E+00 0. -1.
         -1   -1    0    0    0  501 -0.00000000000E+00 -0.00000000000E+00 -0.71965933192E+02  0.71965933192E+02  0.00000000000E+00 0.  1.
         23    2    1    2    0    0  0.33976727245E+02  0.14790471947E+02  0.22198757523E+02  0.13225211438E+03  0.12499864347E+03 0.  0.
          5    1    3    3  502    0 -0.41096100933E+02 -0.10197362009E+02  0.30735231589E+02  0.52532087001E+02  0.47000000000E+01 0. -1.
         -5    1    3    3    0  502  0.75072828177E+02  0.24987833956E+02 -0.85364740666E+01  0.79720027382E+02  0.47000000000E+01 0. -1.
        -11    1    1    2    0    0 -0.23833053663E+02  0.33970500004E+02  0.25804344024E+02  0.48865872426E+02  0.00000000000E+00 0. -1.
         11    1    1    2    0    0 -0.10143673582E+02 -0.48760971951E+02  0.10925041803E+03  0.12006739915E+03  0.00000000000E+00 0.  1.
<mgrwt>
<rscale>  0 0.12246027E+03</rscale>
<asrwt>0</asrwt>
<pdfrwt beam="1">  1        1 0.35264531E-01 0.13037575E+03</pdfrwt>
<pdfrwt beam="2">  1       -1 0.11071682E-01 0.13037575E+03</pdfrwt>
<totfact> 0.60937523E+03</totfact>
</mgrwt>
</event>
<event>
 7    1  0.8712071E-006  0.1605175E+03  0.7546771E-02  0.1197846E+00
          2   -1    0    0  501    0  0.00000000000E+00  0.00000000000E+00  0.51237790007E+03  0.51237790007E+03  0.00000000000E+00 0. -1.
         -2   -1    0    0    0  501 -0.00000000000E+00 -0.00000000000E+00 -0.42277658428E+02  0.42277658428E+02  0.00000000000E+00 0.  1.
         23    2    1    2    0    0  0.40655791607E+02  0.92133402524E+02  0.21273162362E+03  0.26649690864E+03  0.12499760549E+03 0.  0.
          5    1    3    3  502    0  0.45368525651E+02  0.95148215336E+02  0.77134657146E+02  0.13070321853E+03  0.47000000000E+01 0. -1.
         -5    1    3    3    0  502 -0.47127340441E+01 -0.30148128120E+01  0.13559696647E+03  0.13579369011E+03  0.47000000000E+01 0. -1.
        -11    1    1    2    0    0 -0.56947945820E+02 -0.41689997710E+02  0.10233017783E+03  0.12430844596E+03  0.00000000000E+00 0.  1.
         11    1    1    2    0    0  0.16292154213E+02 -0.50443404814E+02  0.15503844020E+03  0.16385020390E+03  0.00000000000E+00 0. -1.
<mgrwt>
<rscale>  0 0.15215809E+03</rscale>
<asrwt>0</asrwt>
<pdfrwt beam="1">  1        2 0.78827365E-01 0.16051747E+03</pdfrwt>
<pdfrwt beam="2">  1       -2 0.65042555E-02 0.16051747E+03</pdfrwt>
<totfact> 0.76480499E+03</totfact>
</mgrwt>
</event>
<event>
 7    1  0.8712071E-006  0.2277482E+03  0.7546771E-02  0.1131394E+00
         -2   -1    0    0    0  501 -0.00000000000E+00  0.00000000000E+00  0.12364916947E+03  0.12364916947E+03  0.00000000000E+00 0.  1.
          2   -1    0    0  501    0  0.00000000000E+00 -0.00000000000E+00 -0.47232221136E+03  0.47232221136E+03  0.00000000000E+00 0. -1.
         23    2    1    2    0    0 -0.78282381216E+02 -0.17354054806E+03 -0.54631066162E+02  0.23420882448E+03  0.12499906818E+03 0.  0.
          5    1    3    3  502    0  0.50922785987E+01 -0.99769934710E+02  0.17422515142E+02  0.10151652677E+03  0.47000000000E+01 0.  1.
         -5    1    3    3    0  502 -0.83374659814E+02 -0.73770613345E+02 -0.72053581304E+02  0.13269229771E+03  0.47000000000E+01 0.  1.
        -11    1    1    2    0    0  0.43267410082E+02  0.99841224429E+02 -0.24104528340E+03  0.26446770601E+03  0.00000000000E+00 0.  1.
         11    1    1    2    0    0  0.35014971134E+02  0.73699323626E+02 -0.52996692333E+02  0.97294850350E+02  0.00000000000E+00 0. -1.
<mgrwt>
<rscale>  0 0.22337164E+03</rscale>
<asrwt>0</asrwt>
<pdfrwt beam="2">  1        2 0.72664955E-01 0.22774815E+03</pdfrwt>
<pdfrwt beam="1">  1       -2 0.19022949E-01 0.22774815E+03</pdfrwt>
<totfact> 0.15161425E+03</totfact>
</mgrwt>
</event>
<event>
 7    1  0.8712071E-006  0.1556567E+03  0.7546771E-02  0.1201753E+00
         -2   -1    0    0    0  501 -0.00000000000E+00  0.00000000000E+00  0.81300928557E+02  0.81300928557E+02  0.00000000000E+00 0.  1.
          2   -1    0    0  501    0  0.00000000000E+00 -0.00000000000E+00 -0.25509167977E+03  0.25509167977E+03  0.00000000000E+00 0. -1.
         23    2    1    2    0    0  0.87543601609E+02  0.30670224354E+02 -0.75683281181E+02  0.17308082294E+03  0.12499786948E+03 0.  0.
          5    1    3    3  502    0  0.63678763631E+02  0.30992662299E+02 -0.11006418002E+03  0.13096466614E+03  0.47000000000E+01 0.  1.
         -5    1    3    3    0  502  0.23864837977E+02 -0.32243794471E+00  0.34380898841E+02  0.42116156793E+02  0.47000000000E+01 0.  1.
        -11    1    1    2    0    0 -0.98972628003E+02 -0.30148834068E+02 -0.10698555718E+03  0.14883024805E+03  0.00000000000E+00 0. -1.
         11    1    1    2    0    0  0.11429026394E+02 -0.52139028580E+00  0.88780871518E+01  0.14481537336E+02  0.00000000000E+00 0.  1.
<mgrwt>
<rscale>  0 0.14896273E+03</rscale>
<asrwt>0</asrwt>
<pdfrwt beam="2">  1        2 0.39244874E-01 0.15565671E+03</pdfrwt>
<pdfrwt beam="1">  1       -2 0.12507835E-01 0.15565671E+03</pdfrwt>
<totfact> 0.58050301E+03</totfact>
</mgrwt>
</event>
<event>
 7    1  0.8712071E-006  0.2047325E+03  0.7546771E-02  0.1149856E+00
         -3   -1    0    0    0  501 -0.00000000000E+00  0.00000000000E+00  0.41422576972E+03  0.41422576972E+03  0.00000000000E+00 0.  1.
          3   -1    0    0  501    0  0.00000000000E+00 -0.00000000000E+00 -0.92167580938E+02  0.92167580938E+02  0.00000000000E+00 0. -1.
         23    2    1    2    0    0  0.11995565403E+03 -0.10909089853E+03  0.17507635942E+03  0.26938288915E+03  0.12500090506E+03 0.  0.
          5    1    3    3  502    0  0.40163398893E+02 -0.67578362015E+02  0.74664545220E+01  0.79106077936E+02  0.47000000000E+01 0.  1.
         -5    1    3    3    0  502  0.79792255134E+02 -0.41512536512E+02  0.16760990490E+03  0.19027681122E+03  0.47000000000E+01 0.  1.
        -11    1    1    2    0    0 -0.13239992590E+03  0.84829990471E+02  0.11402101191E+03  0.19423351621E+03  0.00000000000E+00 0.  1.
         11    1    1    2    0    0  0.12444271869E+02  0.24260908056E+02  0.32960817444E+02  0.42776945294E+02  0.00000000000E+00 0. -1.
<mgrwt>
<rscale>  0 0.19986099E+03</rscale>
<asrwt>0</asrwt>
<pdfrwt beam="2">  1        3 0.14179628E-01 0.20473253E+03</pdfrwt>
<pdfrwt beam="1">  1       -3 0.63727040E-01 0.20473253E+03</pdfrwt>
<totfact> 0.24295722E+02</totfact>
</mgrwt>
</event>
<event>
 7    1  0.8712071E-006  0.1273262E+03  0.7546771E-02  0.1253631E+00
         -2   -1    0    0    0  501 -0.00000000000E+00  0.00000000000E+00  0.45549694619E+03  0.45549694619E+03  0.00000000000E+00 0. -1.
          2   -1    0    0  501    0  0.00000000000E+00 -0.00000000000E+00 -0.37081358987E+02  0.37081358987E+02  0.00000000000E+00 0.  1.
         23    2    1    2    0    0 -0.11093832852E+02 -0.21537267337E+02  0.38344959711E+03  0.40403657119E+03  0.12500012130E+03 0.  0.
          5    1    3    3  502    0  0.42109973801E+02 -0.45579414472E+02  0.26075072380E+03  0.26807417421E+03  0.47000000000E+01 0.  1.
         -5    1    3    3    0  502 -0.53203806652E+02  0.24042147134E+02  0.12269887331E+03  0.13596239698E+03  0.47000000000E+01 0.  1.
        -11    1    1    2    0    0  0.41126828333E+02  0.15977705046E+02  0.28384866346E+01  0.44212668701E+02  0.00000000000E+00 0.  1.
         11    1    1    2    0    0 -0.30032995481E+02  0.55595622908E+01  0.32127503456E+02  0.44329065282E+02  0.00000000000E+00 0. -1.
<mgrwt>
<rscale>  0 0.11383376E+03</rscale>
<asrwt>0</asrwt>
<pdfrwt beam="2">  1        2 0.57048248E-02 0.12732618E+03</pdfrwt>
<pdfrwt beam="1">  1       -2 0.70076449E-01 0.12732618E+03</pdfrwt>
<totfact> 0.24005995E+03</totfact>
</mgrwt>
</event>
<event>
 7    1  0.8712071E-006  0.2411386E+03  0.7546771E-02  0.1121616E+00
          1   -1    0    0  501    0  0.00000000000E+00  0.00000000000E+00  0.15997733284E+04  0.15997733284E+04  0.00000000000E+00 0. -1.
         -1   -1    0    0    0  501 -0.00000000000E+00 -0.00000000000E+00 -0.34561289909E+02  0.34561289909E+02  0.00000000000E+00 0.  1.
         23    2    1    2    0    0 -0.19759688880E+03 -0.58878789649E+02  0.71457639205E+03  0.75416658312E+03  0.12504628218E+03 0.  0.
          5    1    3    3  502    0 -0.12413632243E+03  0.11552580204E+02  0.26095157949E+03  0.28924229548E+03  0.47000000000E+01 0. -1.
         -5    1    3    3    0  502 -0.73460566375E+02 -0.70431369853E+02  0.45362481255E+03  0.46492428764E+03  0.47000000000E+01 0. -1.
        -11    1    1    2    0    0  0.65382781533E+02  0.66203610855E+02  0.31934916371E+03  0.33262849333E+03  0.00000000000E+00 0. -1.
         11    1    1    2    0    0  0.13221410727E+03 -0.73248212058E+01  0.53128648270E+03  0.54753954183E+03  0.00000000000E+00 0.  1.
<mgrwt>
<rscale>  0 0.23728393E+03</rscale>
<asrwt>0</asrwt>
<pdfrwt beam="1">  1        1 0.24611892E+00 0.24113858E+03</pdfrwt>
<pdfrwt beam="2">  1       -1 0.53171228E-02 0.24113858E+03</pdfrwt>
<totfact> 0.98881792E+02</totfact>
</mgrwt>
</event>
<event>
 7    1  0.8712071E-006  0.1269519E+03  0.7546771E-02  0.1246819E+00
         -2   -1    0    0    0  501 -0.00000000000E+00  0.00000000000E+00  0.16003804379E+02  0.16003804379E+02  0.00000000000E+00 0.  1.
          2   -1    0    0  501    0  0.00000000000E+00 -0.00000000000E+00 -0.77578055175E+03  0.77578055175E+03  0.00000000000E+00 0. -1.
         23    2    1    2    0    0  0.15887036594E+02 -0.15448534550E+02 -0.38489596353E+03  0.40529210938E+03  0.12500294409E+03 0.  0.
          5    1    3    3  502    0 -0.38354711105E+02 -0.48221390077E+01 -0.30813040430E+03  0.31058134674E+03  0.47000000000E+01 0.  1.
         -5    1    3    3    0  502  0.54241747698E+02 -0.10626395542E+02 -0.76765559226E+02  0.94710762635E+02  0.47000000000E+01 0.  1.
        -11    1    1    2    0    0 -0.33365807403E+02 -0.29527947682E+02 -0.21111853797E+03  0.21576888995E+03  0.00000000000E+00 0. -1.
         11    1    1    2    0    0  0.17478770809E+02  0.44976482231E+02 -0.16376224587E+03  0.17072335680E+03  0.00000000000E+00 0.  1.
<mgrwt>
<rscale>  0 0.11777145E+03</rscale>
<asrwt>0</asrwt>
<pdfrwt beam="2">  1        2 0.11935087E+00 0.12695192E+03</pdfrwt>
<pdfrwt beam="1">  1       -2 0.24621234E-02 0.12695192E+03</pdfrwt>
<totfact> 0.19782561E+04</totfact>
</mgrwt>
</event>
<event>
 7    1  0.8712071E-006  0.1217167E+03  0.7546771E-02  0.1256100E+00
         -1   -1    0    0    0  501 -0.00000000000E+00  0.00000000000E+00  0.27804292737E+02  0.27804292737E+02  0.00000000000E+00 0.  1.
          1   -1    0    0  501    0  0.00000000000E+00 -0.00000000000E+00 -0.39861045038E+03  0.39861045038E+03  0.00000000000E+00 0. -1.
         23    2    1    2    0    0  0.57719507877E+01  0.32239545142E+01 -0.20615598056E+03  0.23940600683E+03  0.12153698402E+03 0.  0.
          5    1    3    3  502    0  0.46279997839E+02  0.39687975012E+02 -0.14492685369E+03  0.15729862200E+03  0.47000000000E+01 0. -1.
         -5    1    3    3    0  502 -0.40508047051E+02 -0.36464020497E+02 -0.61229126870E+02  0.82107384832E+02  0.47000000000E+01 0.  1.
        -11    1    1    2    0    0 -0.32390845174E+02  0.25179963608E+02 -0.43664840048E+02  0.59915070515E+02  0.00000000000E+00 0. -1.
         11    1    1    2    0    0  0.26618894386E+02 -0.28403918123E+02 -0.12098533703E+03  0.12709366577E+03  0.00000000000E+00 0.  1.
<mgrwt>
<rscale>  0 0.11244968E+03</rscale>
<asrwt>0</asrwt>
<pdfrwt beam="2">  1        1 0.61324678E-01 0.12171667E+03</pdfrwt>
<pdfrwt beam="1">  1       -1 0.42775840E-02 0.12171667E+03</pdfrwt>
<totfact> 0.12682823E+04</totfact>
</mgrwt>
</event>
<event>
 7    1  0.8712071E-006  0.1418999E+03  0.7546771E-02  0.1222876E+00
         -2   -1    0    0    0  501 -0.00000000000E+00  0.00000000000E+00  0.32074368025E+02  0.32074368025E+02  0.00000000000E+00 0.  1.
          2   -1    0    0  501    0  0.00000000000E+00 -0.00000000000E+00 -0.54621550408E+03  0.54621550408E+03  0.00000000000E+00 0. -1.
         23    2    1    2    0    0  0.59347308874E+02  0.18126064651E+02 -0.19819482353E+03  0.24375553615E+03  0.12761236632E+03 0.  0.
          5    1    3    3  502    0 -0.34008795700E+02  0.23793101083E+02 -0.98422601773E+02  0.10691963516E+03  0.47000000000E+01 0. -1.
         -5    1    3    3    0  502  0.93356104575E+02 -0.56670364320E+01 -0.99772221757E+02  0.13683590098E+03  0.47000000000E+01 0.  1.
        -11    1    1    2    0    0 -0.14348840465E+02  0.15360749818E+02 -0.96232665164E+01  0.23118155552E+02  0.00000000000E+00 0.  1.
         11    1    1    2    0    0 -0.44998468409E+02 -0.33486814468E+02 -0.30632304601E+03  0.31141618041E+03  0.00000000000E+00 0. -1.
<mgrwt>
<rscale>  0 0.13313583E+03</rscale>
<asrwt>0</asrwt>
<pdfrwt beam="2">  1        2 0.84033148E-01 0.14189987E+03</pdfrwt>
<pdfrwt beam="1">  1       -2 0.49345186E-02 0.14189987E+03</pdfrwt>
<totfact> 0.10740576E+04</totfact>
</mgrwt>
</event>
<event>
 7    1  0.8712071E-006  0.1286580E+03  0.7546771E-02  0.1243067E+00
          2   -1    0    0  501    0  0.00000000000E+00  0.00000000000E+00  0.16236049164E+03  0.16236049164E+03  0.00000000000E+00 0. -1.
         -2   -1    0    0    0  501 -0.00000000000E+00 -0.00000000000E+00 -0.79149299968E+02  0.79149299968E+02  0.00000000000E+00 0.  1.
         23    2    1    2    0    0 -0.62966607395E+01  0.29777841094E+02  0.38363828044E+02  0.13425598425E+03  0.12500607284E+03 0.  0.
          5    1    3    3  502    0  0.53192292079E+02  0.33868039472E+02  0.39268139194E+02  0.74434808994E+02  0.47000000000E+01 0.  1.
         -5    1    3    3    0  502 -0.59488952819E+02 -0.40901983782E+01 -0.90431114999E+00  0.59821175255E+02  0.47000000000E+01 0.  1.
        -11    1    1    2    0    0  0.23335994382E+02  0.33625165019E+01 -0.21013069285E+02  0.31582023872E+02  0.00000000000E+00 0.  1.
         11    1    1    2    0    0 -0.17039333643E+02 -0.33140357596E+02  0.65860432916E+02  0.75671783489E+02  0.00000000000E+00 0. -1.
<mgrwt>
<rscale>  0 0.12001842E+03</rscale>
<asrwt>0</asrwt>
<pdfrwt beam="1">  1        2 0.24978537E-01 0.12865802E+03</pdfrwt>
<pdfrwt beam="2">  1       -2 0.12176815E-01 0.12865802E+03</pdfrwt>
<totfact> 0.97518874E+03</totfact>
</mgrwt>
</event>
<event>
 7    1  0.8712071E-006  0.1274210E+03  0.7546771E-02  0.1244895E+00
          1   -1    0    0  501    0  0.00000000000E+00  0.00000000000E+00  0.19411731769E+03  0.19411731769E+03  0.00000000000E+00 0. -1.
         -1   -1    0    0    0  501 -0.00000000000E+00 -0.00000000000E+00 -0.67701554034E+02  0.67701554034E+02  0.00000000000E+00 0.  1.
         23    2    1    2    0    0  0.24912107889E+02  0.20239166499E+02  0.44032342190E+02  0.13481457058E+03  0.12331214175E+03 0.  0.
          5    1    3    3  502    0 -0.53569780889E+01  0.36018073637E+02  0.78137009334E+02  0.86333545452E+02  0.47000000000E+01 0. -1.
         -5    1    3    3    0  502  0.30269085978E+02 -0.15778907138E+02 -0.34104667144E+02  0.48481025128E+02  0.47000000000E+01 0.  1.
        -11    1    1    2    0    0 -0.52720982856E+02 -0.10740376080E+02  0.18861184462E+02  0.57014050820E+02  0.00000000000E+00 0. -1.
         11    1    1    2    0    0  0.27808874967E+02 -0.94987904188E+01  0.63522237001E+02  0.69990250321E+02  0.00000000000E+00 0.  1.
<mgrwt>
<rscale>  0 0.11891647E+03</rscale>
<asrwt>0</asrwt>
<pdfrwt beam="1">  1        1 0.29864203E-01 0.12742104E+03</pdfrwt>
<pdfrwt beam="2">  1       -1 0.10415624E-01 0.12742104E+03</pdfrwt>
<totfact> 0.82071765E+03</totfact>
</mgrwt>
</event>
<event>
 7    1  0.8712071E-006  0.1254707E+03  0.7546771E-02  0.1249611E+00
         -2   -1    0    0    0  501 -0.00000000000E+00  0.00000000000E+00  0.52014023529E+02  0.52014023529E+02  0.00000000000E+00 0.  1.
          2   -1    0    0  501    0  0.00000000000E+00 -0.00000000000E+00 -0.26612626833E+03  0.26612626833E+03  0.00000000000E+00 0. -1.
         23    2    1    2    0    0  0.10811234856E+02 -0.10076932005E+01 -0.61115336841E+02  0.13956355685E+03  0.12500001504E+03 0.  0.
          5    1    3    3  502    0  0.67498661436E+01  0.61411612022E+02 -0.22587592264E+02  0.65948738489E+02  0.47000000000E+01 0.  1.
         -5    1    3    3    0  502  0.40613687129E+01 -0.62419305222E+02 -0.38527744577E+02  0.73614818362E+02  0.47000000000E+01 0.  1.
        -11    1    1    2    0    0 -0.36555059061E+02  0.33612003761E+02 -0.70813996147E+02  0.86490815640E+02  0.00000000000E+00 0.  1.
         11    1    1    2    0    0  0.25743824205E+02 -0.32604310561E+02 -0.82182911814E+02  0.92085919369E+02  0.00000000000E+00 0. -1.
<mgrwt>
<rscale>  0 0.11613590E+03</rscale>
<asrwt>0</asrwt>
<pdfrwt beam="2">  1        2 0.40942503E-01 0.12547072E+03</pdfrwt>
<pdfrwt beam="1">  1       -2 0.80021575E-02 0.12547072E+03</pdfrwt>
<totfact> 0.11037214E+04</totfact>
</mgrwt>
</event>
<event>
 7    1  0.8712071E-006  0.1614424E+03  0.7546771E-02  0.1194512E+00
          1   -1    0    0  501    0  0.00000000000E+00  0.00000000000E+00  0.53516264392E+03  0.53516264392E+03  0.00000000000E+00 0. -1.
         -1   -1    0    0    0  501 -0.00000000000E+00 -0.00000000000E+00 -0.42715516686E+02  0.42715516686E+02  0.00000000000E+00 0.  1.
         23    2    1    2    0    0  0.46589357541E+02  0.90925826101E+02  0.21958706676E+03  0.27254745762E+03  0.12500225070E+03 0.  0.
          5    1    3    3  502    0 -0.88119427673E+01 -0.18791835754E+02  0.49186794554E+00  0.21286506533E+02  0.47000000000E+01 0. -1.
         -5    1    3    3    0  502  0.55401300308E+02  0.10971766185E+03  0.21909519881E+03  0.25126095109E+03  0.47000000000E+01 0. -1.
        -11    1    1    2    0    0  0.23988894632E+02 -0.14288727145E+02  0.96872642859E+02  0.10081638619E+03  0.00000000000E+00 0. -1.
         11    1    1    2    0    0 -0.70578252173E+02 -0.76637098956E+02  0.17598741762E+03  0.20451431680E+03  0.00000000000E+00 0.  1.
<mgrwt>
<rscale>  0 0.15495600E+03</rscale>
<asrwt>0</asrwt>
<pdfrwt beam="1">  1        1 0.82332709E-01 0.16144236E+03</pdfrwt>
<pdfrwt beam="2">  1       -1 0.65716184E-02 0.16144236E+03</pdfrwt>
<totfact> 0.46708324E+03</totfact>
</mgrwt>
</event>
<event>
 7    1  0.8712071E-006  0.1266616E+03  0.7546771E-02  0.1254652E+00
          1   -1    0    0  501    0  0.00000000000E+00  0.00000000000E+00  0.18355630217E+03  0.18355630217E+03  0.00000000000E+00 0. -1.
         -1   -1    0    0    0  501 -0.00000000000E+00 -0.00000000000E+00 -0.59669110897E+02  0.59669110897E+02  0.00000000000E+00 0.  1.
         23    2    1    2    0    0  0.50986939586E+01 -0.19777024037E+02  0.60376904072E+02  0.14031581806E+03  0.12500412350E+03 0.  0.
          5    1    3    3  502    0  0.11427201647E+01 -0.54297178493E+02  0.82481247223E+02  0.98867262252E+02  0.47000000000E+01 0. -1.
         -5    1    3    3    0  502  0.39559737939E+01  0.34520154456E+02 -0.22104343151E+02  0.41448555807E+02  0.47000000000E+01 0. -1.
        -11    1    1    2    0    0 -0.25824584826E+02 -0.16769582419E+02  0.50101654584E+02  0.58807345357E+02  0.00000000000E+00 0. -1.
         11    1    1    2    0    0  0.20725890867E+02  0.36546606457E+02  0.13408632620E+02  0.44102249653E+02  0.00000000000E+00 0.  1.
<mgrwt>
<rscale>  0 0.11325840E+03</rscale>
<asrwt>0</asrwt>
<pdfrwt beam="1">  1        1 0.28239431E-01 0.12666159E+03</pdfrwt>
<pdfrwt beam="2">  1       -1 0.91798633E-02 0.12666159E+03</pdfrwt>
<totfact> 0.10657323E+04</totfact>
</mgrwt>
</event>
<event>
 7    1  0.8712071E-006  0.1343916E+03  0.7546771E-02  0.1233775E+00
         -3   -1    0    0    0  501 -0.00000000000E+00  0.00000000000E+00  0.62419619512E+03  0.62419619512E+03  0.00000000000E+00 0.  1.
          3   -1    0    0  501    0  0.00000000000E+00 -0.00000000000E+00 -0.40583288588E+02  0.40583288588E+02  0.00000000000E+00 0. -1.
         23    2    1    2    0    0 -0.47933190512E+02  0.11721092018E+02  0.53314418934E+03  0.54982162306E+03  0.12500446316E+03 0.  0.
          5    1    3    3  502    0 -0.41133162134E+02  0.54405458367E+02  0.15787341119E+03  0.17204067800E+03  0.47000000000E+01 0. -1.
         -5    1    3    3    0  502 -0.68000283774E+01 -0.42684366348E+02  0.37527077815E+03  0.37778094506E+03  0.47000000000E+01 0. -1.
        -11    1    1    2    0    0  0.45685527803E+02 -0.35661260095E+02 -0.11996318465E+01  0.57968371021E+02  0.00000000000E+00 0. -1.
         11    1    1    2    0    0  0.22476627086E+01  0.23940168077E+02  0.51668349037E+02  0.56989489622E+02  0.00000000000E+00 0.  1.
<mgrwt>
<rscale>  0 0.12583182E+03</rscale>
<asrwt>0</asrwt>
<pdfrwt beam="2">  1        3 0.62435833E-02 0.13439156E+03</pdfrwt>
<pdfrwt beam="1">  1       -3 0.96030177E-01 0.13439156E+03</pdfrwt>
<totfact> 0.36809525E+02</totfact>
</mgrwt>
</event>
<event>
 7    1  0.8712071E-006  0.1310036E+03  0.7546771E-02  0.1246798E+00
         -2   -1    0    0    0  501 -0.00000000000E+00  0.00000000000E+00  0.49307204961E+02  0.49307204961E+02  0.00000000000E+00 0.  1.
          2   -1    0    0  501    0  0.00000000000E+00 -0.00000000000E+00 -0.24434435189E+03  0.24434435189E+03  0.00000000000E+00 0. -1.
         23    2    1    2    0    0  0.26886769055E+02  0.28507678268E+02 -0.94071728811E+02  0.16128057324E+03  0.12500538817E+03 0.  0.
          5    1    3    3  502    0  0.43147798990E+02  0.54079041198E+02 -0.10740250860E+03  0.12784234083E+03  0.47000000000E+01 0.  1.
         -5    1    3    3    0  502 -0.16261029936E+02 -0.25571362930E+02  0.13330779792E+02  0.33438232407E+02  0.47000000000E+01 0.  1.
        -11    1    1    2    0    0 -0.40366589306E+02 -0.57636556398E+01 -0.97529171214E+02  0.10571007755E+03  0.00000000000E+00 0. -1.
         11    1    1    2    0    0  0.13479820251E+02 -0.22744022629E+02 -0.34362469054E+01  0.26660906063E+02  0.00000000000E+00 0.  1.
<mgrwt>
<rscale>  0 0.11778391E+03</rscale>
<asrwt>0</asrwt>
<pdfrwt beam="2">  1        2 0.37591439E-01 0.13100356E+03</pdfrwt>
<pdfrwt beam="1">  1       -2 0.75857238E-02 0.13100356E+03</pdfrwt>
<totfact> 0.13168649E+04</totfact>
</mgrwt>
</event>
<event>
 7    1  0.8712071E-006  0.2415661E+03  0.7546771E-02  0.1121353E+00
         -2   -1    0    0    0  501 -0.00000000000E+00  0.00000000000E+00  0.99059312850E+02  0.99059312850E+02  0.00000000000E+00 0.  1.
          2   -1    0    0  501    0  0.00000000000E+00 -0.00000000000E+00 -0.11349726022E+04  0.11349726022E+04  0.00000000000E+00 0. -1.
         23    2    1    2    0    0  0.44748240152E+02 -0.20180135362E+03 -0.84280122317E+02  0.25584623565E+03  0.12501186326E+03 0.  0.
          5    1    3    3  502    0 -0.62415211053E+01 -0.65394700609E+01 -0.50079066161E+02  0.51105030300E+02  0.47000000000E+01 0. -1.
         -5    1    3    3    0  502  0.50989761257E+02 -0.19526188356E+03 -0.34201056156E+02  0.20474120535E+03  0.47000000000E+01 0. -1.
        -11    1    1    2    0    0  0.39189754672E+01  0.15984157455E+03 -0.61295584046E+03  0.63346629719E+03  0.00000000000E+00 0. -1.
         11    1    1    2    0    0 -0.48667215619E+02  0.41959779073E+02 -0.33867732653E+03  0.34471938216E+03  0.00000000000E+00 0.  1.
<mgrwt>
<rscale>  0 0.23767292E+03</rscale>
<asrwt>0</asrwt>
<pdfrwt beam="2">  1        2 0.17461116E+00 0.24156605E+03</pdfrwt>
<pdfrwt beam="1">  1       -2 0.15239895E-01 0.24156605E+03</pdfrwt>
<totfact> 0.73037053E+02</totfact>
</mgrwt>
</event>
<event>
 7    1  0.8712071E-006  0.1298628E+03  0.7546771E-02  0.1241978E+00
          2   -1    0    0  501    0  0.00000000000E+00  0.00000000000E+00  0.12351197704E+03  0.12351197704E+03  0.00000000000E+00 0. -1.
         -2   -1    0    0    0  501 -0.00000000000E+00 -0.00000000000E+00 -0.11028603098E+03  0.11028603098E+03  0.00000000000E+00 0.  1.
         23    2    1    2    0    0  0.10826876040E+02 -0.33493445778E+02 -0.20029269143E+02  0.13139830122E+03  0.12500123914E+03 0.  0.
          5    1    3    3  502    0  0.15185169590E+02 -0.80559453311E+02 -0.16602556687E+02  0.83774398129E+02  0.47000000000E+01 0.  1.
         -5    1    3    3    0  502 -0.43582935508E+01  0.47066007534E+02 -0.34267124554E+01  0.47623903096E+02  0.47000000000E+01 0.  1.
        -11    1    1    2    0    0  0.16292918781E+02  0.25937518029E+02  0.57562917087E+02  0.65205087742E+02  0.00000000000E+00 0. -1.
         11    1    1    2    0    0 -0.27119794820E+02  0.75559277483E+01 -0.24307701891E+02  0.37194619052E+02  0.00000000000E+00 0.  1.
<mgrwt>
<rscale>  0 0.12068066E+03</rscale>
<asrwt>0</asrwt>
<pdfrwt beam="1">  1        2 0.19001843E-01 0.12986278E+03</pdfrwt>
<pdfrwt beam="2">  1       -2 0.16967082E-01 0.12986278E+03</pdfrwt>
<totfact> 0.77285713E+03</totfact>
</mgrwt>
</event>
<event>
 7    1  0.8712071E-006  0.1279442E+03  0.7546771E-02  0.1244896E+00
         -2   -1    0    0    0  501 -0.00000000000E+00  0.00000000000E+00  0.97704496493E+02  0.97704496493E+02  0.00000000000E+00 0.  1.
          2   -1    0    0  501    0  0.00000000000E+00 -0.00000000000E+00 -0.13414761203E+03  0.13414761203E+03  0.00000000000E+00 0. -1.
         23    2    1    2    0    0 -0.23318386965E+02  0.14171721285E+02  0.43656671863E+01  0.12801867728E+03  0.12500055131E+03 0.  0.
          5    1    3    3  502    0 -0.57163772799E+02 -0.11738471691E+01  0.44882721460E+02  0.72839711171E+02  0.47000000000E+01 0. -1.
         -5    1    3    3    0  502  0.33845385834E+02  0.15345568454E+02 -0.40517054274E+02  0.55178966106E+02  0.47000000000E+01 0. -1.
        -11    1    1    2    0    0 -0.10277636957E+02  0.34688951818E+02 -0.15133492010E+02  0.39217034310E+02  0.00000000000E+00 0.  1.
         11    1    1    2    0    0  0.33596023922E+02 -0.48860673104E+02 -0.25675290709E+02  0.64616396932E+02  0.00000000000E+00 0. -1.
<mgrwt>
<rscale>  0 0.11891624E+03</rscale>
<asrwt>0</asrwt>
<pdfrwt beam="2">  1        2 0.20638094E-01 0.12794422E+03</pdfrwt>
<pdfrwt beam="1">  1       -2 0.15031461E-01 0.12794422E+03</pdfrwt>
<totfact> 0.85803267E+03</totfact>
</mgrwt>
</event>
<event>
 7    1  0.8712071E-006  0.1927834E+03  0.7546771E-02  0.1162219E+00
          1   -1    0    0  501    0  0.00000000000E+00  0.00000000000E+00  0.49778213391E+02  0.49778213391E+02  0.00000000000E+00 0. -1.
         -1   -1    0    0    0  501 -0.00000000000E+00 -0.00000000000E+00 -0.64892901237E+03  0.64892901237E+03  0.00000000000E+00 0.  1.
         23    2    1    2    0    0  0.59600944655E+02 -0.13412152621E+03 -0.31850103644E+03  0.37230141519E+03  0.12499830858E+03 0.  0.
          5    1    3    3  502    0  0.53314808151E+02 -0.14452702454E+03 -0.32350443675E+03  0.35834025756E+03  0.47000000000E+01 0.  1.
         -5    1    3    3    0  502  0.62861365041E+01  0.10405498331E+02  0.50034003171E+01  0.13961157631E+02  0.47000000000E+01 0.  1.
        -11    1    1    2    0    0 -0.64768478603E+02  0.68508329168E+02 -0.20804372893E+03  0.22840871291E+03  0.00000000000E+00 0.  1.
         11    1    1    2    0    0  0.51675339485E+01  0.65613197039E+02 -0.72606033619E+02  0.97997097664E+02  0.00000000000E+00 0. -1.
<mgrwt>
<rscale>  0 0.18589248E+03</rscale>
<asrwt>0</asrwt>
<pdfrwt beam="1">  1        1 0.76581876E-02 0.19278339E+03</pdfrwt>
<pdfrwt beam="2">  1       -1 0.99835220E-01 0.19278339E+03</pdfrwt>
<totfact> 0.92793476E+02</totfact>
</mgrwt>
</event>
<event>
 7    1  0.8712071E-006  0.1658262E+03  0.7546771E-02  0.1189106E+00
         -1   -1    0    0    0  501 -0.00000000000E+00  0.00000000000E+00  0.40914662491E+02  0.40914662491E+02  0.00000000000E+00 0.  1.
          1   -1    0    0  501    0  0.00000000000E+00 -0.00000000000E+00 -0.58169029625E+03  0.58169029625E+03  0.00000000000E+00 0. -1.
         23    2    1    2    0    0 -0.97561476227E+02 -0.48525557118E+02 -0.27735466053E+03  0.32314691684E+03  0.12500140323E+03 0.  0.
          5    1    3    3  502    0 -0.80608486291E+02 -0.42295789889E+02 -0.69936082296E+02  0.11489041523E+03  0.47000000000E+01 0.  1.
         -5    1    3    3    0  502 -0.16952989936E+02 -0.62297672292E+01 -0.20741857823E+03  0.20825650161E+03  0.47000000000E+01 0.  1.
        -11    1    1    2    0    0  0.64085152897E+02 -0.12971052024E+02 -0.81229800372E+02  0.10427576651E+03  0.00000000000E+00 0. -1.
         11    1    1    2    0    0  0.33476323330E+02  0.61496609142E+02 -0.18219117285E+03  0.19518227539E+03  0.00000000000E+00 0.  1.
<mgrwt>
<rscale>  0 0.15963767E+03</rscale>
<asrwt>0</asrwt>
<pdfrwt beam="2">  1        1 0.89490809E-01 0.16582618E+03</pdfrwt>
<pdfrwt beam="1">  1       -1 0.62945639E-02 0.16582618E+03</pdfrwt>
<totfact> 0.44593998E+03</totfact>
</mgrwt>
</event>
<event>
 7    1  0.8712071E-006  0.1665732E+03  0.7546771E-02  0.1188747E+00
         -2   -1    0    0    0  501 -0.00000000000E+00  0.00000000000E+00  0.25754526940E+02  0.25754526940E+02  0.00000000000E+00 0. -1.
          2   -1    0    0  501    0  0.00000000000E+00 -0.00000000000E+00 -0.10716965578E+04  0.10716965578E+04  0.00000000000E+00 0.  1.
         23    2    1    2    0    0 -0.43672481239E+02  0.10107073116E+03 -0.35494866001E+03  0.39209077694E+03  0.12499619116E+03 0.  0.
          5    1    3    3  502    0 -0.20237272089E+02  0.12371429828E+03 -0.22067276469E+03  0.25383721921E+03  0.47000000000E+01 0. -1.
         -5    1    3    3    0  502 -0.23435209150E+02 -0.22643567128E+02 -0.13427589533E+03  0.13825355773E+03  0.47000000000E+01 0.  1.
        -11    1    1    2    0    0 -0.26548552780E+02 -0.26092584368E+02 -0.13949838182E+03  0.14437952467E+03  0.00000000000E+00 0. -1.
         11    1    1    2    0    0  0.70221034019E+02 -0.74978146789E+02 -0.55149498898E+03  0.56098078308E+03  0.00000000000E+00 0.  1.
<mgrwt>
<rscale>  0 0.15995535E+03</rscale>
<asrwt>0</asrwt>
<pdfrwt beam="2">  1        2 0.16487637E+00 0.16657319E+03</pdfrwt>
<pdfrwt beam="1">  1       -2 0.39622355E-02 0.16657319E+03</pdfrwt>
<totfact> 0.64988949E+03</totfact>
</mgrwt>
</event>
<event>
 7    1  0.1703891E-005  0.3001808E+03  0.7546771E-02  0.1086805E+00
         -3   -1    0    0    0  501 -0.00000000000E+00  0.00000000000E+00  0.65569052820E+02  0.65569052820E+02  0.00000000000E+00 0.  1.
          3   -1    0    0  501    0  0.00000000000E+00 -0.00000000000E+00 -0.13160122529E+04  0.13160122529E+04  0.00000000000E+00 0. -1.
         23    2    1    2    0    0 -0.24418470890E+03  0.12188905977E+03 -0.62759319671E+03  0.69568794148E+03  0.12500150563E+03 0.  0.
          5    1    3    3  502    0 -0.22380820023E+03  0.56268843442E+02 -0.49951006879E+03  0.55026238474E+03  0.47000000000E+01 0. -1.
         -5    1    3    3    0  502 -0.20376508668E+02  0.65620216323E+02 -0.12808312791E+03  0.14542555674E+03  0.47000000000E+01 0. -1.
        -11    1    1    2    0    0  0.15704536857E+03 -0.81992729045E+02 -0.29293878778E+03  0.34234367058E+03  0.00000000000E+00 0.  1.
         11    1    1    2    0    0  0.87139340335E+02 -0.39896330720E+02 -0.32991121562E+03  0.34354969369E+03  0.00000000000E+00 0. -1.
<mgrwt>
<rscale>  0 0.29689226E+03</rscale>
<asrwt>0</asrwt>
<pdfrwt beam="2">  1        3 0.20246340E+00 0.30018076E+03</pdfrwt>
<pdfrwt beam="1">  1       -3 0.10087548E-01 0.30018076E+03</pdfrwt>
<totfact> 0.28167854E+01</totfact>
</mgrwt>
</event>
<event>
 7    1  0.8712071E-006  0.1515928E+03  0.7546771E-02  0.1206691E+00
         -1   -1    0    0    0  501 -0.00000000000E+00  0.00000000000E+00  0.47990231388E+02  0.47990231388E+02  0.00000000000E+00 0.  1.
          1   -1    0    0  501    0  0.00000000000E+00 -0.00000000000E+00 -0.40452743560E+03  0.40452743560E+03  0.00000000000E+00 0. -1.
         23    2    1    2    0    0  0.52843405098E+02  0.67547016112E+02 -0.19274691558E+03  0.24521774807E+03  0.12500138261E+03 0.  0.
          5    1    3    3  502    0  0.60261408978E+02  0.88454625497E+02 -0.19493530442E+03  0.22243543129E+03  0.47000000000E+01 0. -1.
         -5    1    3    3    0  502 -0.74180038800E+01 -0.20907609385E+02  0.21883888458E+01  0.22782316772E+02  0.47000000000E+01 0. -1.
        -11    1    1    2    0    0  0.22059683692E+02 -0.65771026109E+01 -0.87256812119E+01  0.24617583877E+02  0.00000000000E+00 0.  1.
         11    1    1    2    0    0 -0.74903088790E+02 -0.60969913501E+02 -0.15506460742E+03  0.18268233504E+03  0.00000000000E+00 0. -1.
<mgrwt>
<rscale>  0 0.14504975E+03</rscale>
<asrwt>0</asrwt>
<pdfrwt beam="2">  1        1 0.62234990E-01 0.15159278E+03</pdfrwt>
<pdfrwt beam="1">  1       -1 0.73831125E-02 0.15159278E+03</pdfrwt>
<totfact> 0.56151867E+03</totfact>
</mgrwt>
</event>
<event>
 7    1  0.8712071E-006  0.1702210E+03  0.7546771E-02  0.1184120E+00
         -2   -1    0    0    0  501 -0.00000000000E+00  0.00000000000E+00  0.84360027358E+03  0.84360027358E+03  0.00000000000E+00 0. -1.
          2   -1    0    0  501    0  0.00000000000E+00 -0.00000000000E+00 -0.29977113807E+02  0.29977113807E+02  0.00000000000E+00 0.  1.
         23    2    1    2    0    0 -0.80847720549E+02  0.82542937987E+02  0.40699405981E+03  0.44115682537E+03  0.12500195728E+03 0.  0.
          5    1    3    3  502    0 -0.12938156164E+02  0.49890875317E+02  0.37206680885E+02  0.63741057627E+02  0.47000000000E+01 0. -1.
         -5    1    3    3    0  502 -0.67909564385E+02  0.32652062670E+02  0.36978737893E+03  0.37741576775E+03  0.47000000000E+01 0. -1.
        -11    1    1    2    0    0  0.45421511605E+02 -0.13338504603E+02  0.56247950868E+02  0.73517762468E+02  0.00000000000E+00 0.  1.
         11    1    1    2    0    0  0.35426208944E+02 -0.69204433385E+02  0.35038114910E+03  0.35890279955E+03  0.00000000000E+00 0. -1.
<mgrwt>
<rscale>  0 0.16412236E+03</rscale>
<asrwt>0</asrwt>
<pdfrwt beam="2">  1        2 0.46118643E-02 0.17022097E+03</pdfrwt>
<pdfrwt beam="1">  1       -2 0.12978464E+00 0.17022097E+03</pdfrwt>
<totfact> 0.78781141E+02</totfact>
</mgrwt>
</event>
<event>
 7    1  0.8712071E-006  0.1902333E+03  0.7546771E-02  0.1162859E+00
         -2   -1    0    0    0  501 -0.00000000000E+00  0.00000000000E+00  0.76528908836E+03  0.76528908836E+03  0.00000000000E+00 0.  1.
          2   -1    0    0  501    0  0.00000000000E+00 -0.00000000000E+00 -0.44035850039E+02  0.44035850039E+02  0.00000000000E+00 0. -1.
         23    2    1    2    0    0  0.52712960872E+02  0.13335808226E+03  0.45216654062E+03  0.49055406811E+03  0.12500271572E+03 0.  0.
          5    1    3    3  502    0  0.39203785922E+02  0.13104410441E+03  0.22803043784E+03  0.26595011697E+03  0.47000000000E+01 0.  1.
         -5    1    3    3    0  502  0.13509174950E+02  0.23139778431E+01  0.22413610278E+03  0.22460395114E+03  0.47000000000E+01 0.  1.
        -11    1    1    2    0    0  0.20889590097E+01 -0.67022704199E+02  0.19154074194E+03  0.20293906093E+03  0.00000000000E+00 0.  1.
         11    1    1    2    0    0 -0.54801919882E+02 -0.66335378057E+02  0.77545955763E+02  0.11583180936E+03  0.00000000000E+00 0. -1.
<mgrwt>
<rscale>  0 0.18520436E+03</rscale>
<asrwt>0</asrwt>
<pdfrwt beam="2">  1        2 0.67747467E-02 0.19023331E+03</pdfrwt>
<pdfrwt beam="1">  1       -2 0.11773677E+00 0.19023331E+03</pdfrwt>
<totfact> 0.60715999E+02</totfact>
</mgrwt>
</event>
<event>
 7    1  0.8712071E-006  0.1330884E+03  0.7546771E-02  0.1234935E+00
         -1   -1    0    0    0  501 -0.00000000000E+00  0.00000000000E+00  0.57388414916E+03  0.57388414916E+03  0.00000000000E+00 0.  1.
          1   -1    0    0  501    0  0.00000000000E+00 -0.00000000000E+00 -0.26137221411E+02  0.26137221411E+02  0.00000000000E+00 0. -1.
         23    2    1    2    0    0 -0.29062397565E+02  0.35260658012E+02  0.38103346607E+03  0.40360751414E+03  0.12499834500E+03 0.  0.
          5    1    3    3  502    0  0.22223608277E+02 -0.24962702753E+02  0.23543873996E+03  0.23784557084E+03  0.47000000000E+01 0. -1.
         -5    1    3    3    0  502 -0.51286005843E+02  0.60223360764E+02  0.14559472610E+03  0.16576194330E+03  0.47000000000E+01 0. -1.
        -11    1    1    2    0    0  0.47372461997E+02 -0.10539870244E+02  0.15672923388E+03  0.16407099614E+03  0.00000000000E+00 0.  1.
         11    1    1    2    0    0 -0.18310064432E+02 -0.24720787768E+02  0.99842278041E+01  0.32342860297E+02  0.00000000000E+00 0. -1.
<mgrwt>
<rscale>  0 0.12508574E+03</rscale>
<asrwt>0</asrwt>
<pdfrwt beam="2">  1        1 0.40211114E-02 0.13308840E+03</pdfrwt>
<pdfrwt beam="1">  1       -1 0.88289860E-01 0.13308840E+03</pdfrwt>
<totfact> 0.28792296E+03</totfact>
</mgrwt>
</event>
<event>
 7    1  0.8712071E-006  0.1288208E+03  0.7546771E-02  0.1244447E+00
          2   -1    0    0  501    0  0.00000000000E+00  0.00000000000E+00  0.17828325181E+03  0.17828325181E+03  0.00000000000E+00 0. -1.
         -2   -1    0    0    0  501 -0.00000000000E+00 -0.00000000000E+00 -0.70934101521E+02  0.70934101521E+02  0.00000000000E+00 0.  1.
         23    2    1    2    0    0  0.97922067223E+01  0.29579273030E+02  0.46717274438E+02  0.13703025958E+03  0.12499587035E+03 0.  0.
          5    1    3    3  502    0  0.45697247032E+02 -0.10359261947E+02  0.64856453381E+02  0.80149873609E+02  0.47000000000E+01 0.  1.
         -5    1    3    3    0  502 -0.35905040310E+02  0.39938534977E+02 -0.18139178943E+02  0.56880385974E+02  0.47000000000E+01 0.  1.
        -11    1    1    2    0    0 -0.40235022449E+01  0.21541080622E+02  0.56471622007E+02  0.60574341241E+02  0.00000000000E+00 0. -1.
         11    1    1    2    0    0 -0.57687044774E+01 -0.51120353652E+02  0.41602538387E+01  0.51612752502E+02  0.00000000000E+00 0.  1.
<mgrwt>
<rscale>  0 0.11918522E+03</rscale>
<asrwt>0</asrwt>
<pdfrwt beam="1">  1        2 0.27428192E-01 0.12882076E+03</pdfrwt>
<pdfrwt beam="2">  1       -2 0.10912939E-01 0.12882076E+03</pdfrwt>
<totfact> 0.10476239E+04</totfact>
</mgrwt>
</event>
<event>
 7    1  0.8712071E-006  0.1252596E+03  0.7546771E-02  0.1250258E+00
          1   -1    0    0  501    0  0.00000000000E+00  0.00000000000E+00  0.25980340981E+03  0.25980340981E+03  0.00000000000E+00 0. -1.
         -1   -1    0    0    0  501 -0.00000000000E+00 -0.00000000000E+00 -0.47386373049E+02  0.47386373049E+02  0.00000000000E+00 0.  1.
         23    2    1    2    0    0 -0.29547339020E+00 -0.81037711641E+01  0.15494867835E+03  0.19924620547E+03  0.12499679620E+03 0.  0.
          5    1    3    3  502    0 -0.46214310908E+02 -0.44000805314E+02  0.10173796274E+03  0.12018542533E+03  0.47000000000E+01 0. -1.
         -5    1    3    3    0  502  0.45918837518E+02  0.35897034150E+02  0.53210715617E+02  0.79060780139E+02  0.47000000000E+01 0. -1.
        -11    1    1    2    0    0  0.18895605134E+02 -0.28212614177E+02  0.57918853838E+02  0.67138581471E+02  0.00000000000E+00 0. -1.
         11    1    1    2    0    0 -0.18600131744E+02  0.36316385341E+02 -0.45049543367E+00  0.40804995911E+02  0.00000000000E+00 0.  1.
<mgrwt>
<rscale>  0 0.11576141E+03</rscale>
<asrwt>0</asrwt>
<pdfrwt beam="1">  1        1 0.39969754E-01 0.12525956E+03</pdfrwt>
<pdfrwt beam="2">  1       -1 0.72902114E-02 0.12525956E+03</pdfrwt>
<totfact> 0.98052849E+03</totfact>
</mgrwt>
</event>
<event>
 7    1  0.8712071E-006  0.1368670E+03  0.7546771E-02  0.1230411E+00
         -2   -1    0    0    0  501 -0.00000000000E+00  0.00000000000E+00  0.26341846735E+02  0.26341846735E+02  0.00000000000E+00 0. -1.
          2   -1    0    0  501    0  0.00000000000E+00 -0.00000000000E+00 -0.55486183370E+03  0.55486183370E+03  0.00000000000E+00 0.  1.
         23    2    1    2    0    0 -0.52330895286E+02 -0.19208879868E+02 -0.28964173948E+03  0.32035124494E+03  0.12500031688E+03 0.  0.
          5    1    3    3  502    0 -0.66803770366E+02  0.12259964414E+02 -0.27350531097E+03  0.28185154885E+03  0.47000000000E+01 0. -1.
         -5    1    3    3    0  502  0.14472875080E+02 -0.31468844283E+02 -0.16136428505E+02  0.38499696082E+02  0.47000000000E+01 0. -1.
        -11    1    1    2    0    0  0.51668005488E+02  0.31238937242E+02 -0.24114846639E+03  0.24859210936E+03  0.00000000000E+00 0.  1.
         11    1    1    2    0    0  0.66288979834E+00 -0.12030057373E+02  0.22702188996E+01  0.12260326143E+02  0.00000000000E+00 0. -1.
<mgrwt>
<rscale>  0 0.12802808E+03</rscale>
<asrwt>0</asrwt>
<pdfrwt beam="2">  1        2 0.85363349E-01 0.13686703E+03</pdfrwt>
<pdfrwt beam="1">  1       -2 0.40525923E-02 0.13686703E+03</pdfrwt>
<totfact> 0.14128219E+04</totfact>
</mgrwt>
</event>
<event>
 6    1  0.8712071E-006  0.1721541E+03  0.7546771E-02  0.1192879E+00
          4   -1    0    0  501    0  0.00000000000E+00  0.00000000000E+00  0.21436094818E+03  0.21436094818E+03  0.00000000000E+00 0. -1.
         -4   -1    0    0    0  501 -0.00000000000E+00 -0.00000000000E+00 -0.10515647254E+03  0.10515647254E+03  0.00000000000E+00 0.  1.
          5    1    1    2  502    0 -0.36533395430E+02  0.51728754694E+02  0.29612050654E+02  0.70067942654E+02  0.47000000000E+01 0. -1.
         -5    1    1    2    0  502 -0.18506333699E+02 -0.10145034985E+03 -0.74840575038E+01  0.10350245885E+03  0.47000000000E+01 0.  1.
        -11    1    1    2    0    0  0.76209209393E+02  0.17384886291E+02  0.63167515871E+02  0.10049981557E+03  0.00000000000E+00 0.  1.
         11    1    1    2    0    0 -0.21169480265E+02  0.32336708867E+02  0.23908966620E+02  0.45447203653E+02  0.00000000000E+00 0. -1.
<mgrwt>
<rscale>  0 0.15635085E+03</rscale>
<asrwt>0</asrwt>
<pdfrwt beam="1">  1        4 0.32978607E-01 0.17215411E+03</pdfrwt>
<pdfrwt beam="2">  1       -4 0.16177919E-01 0.17215411E+03</pdfrwt>
<totfact> 0.50724961E+02</totfact>
</mgrwt>
</event>
<event>
 7    1  0.8712071E-006  0.1270948E+03  0.7546771E-02  0.1244920E+00
          3   -1    0    0  501    0  0.00000000000E+00  0.00000000000E+00  0.10050432719E+03  0.10050432719E+03  0.00000000000E+00 0. -1.
         -3   -1    0    0    0  501 -0.00000000000E+00 -0.00000000000E+00 -0.19661745212E+03  0.19661745212E+03  0.00000000000E+00 0.  1.
         23    2    1    2    0    0 -0.11925033381E+02  0.19691799579E+02 -0.14107660219E+03  0.18988335781E+03  0.12499243375E+03 0.  0.
          5    1    3    3  502    0 -0.44391572627E+02  0.22180086776E+02 -0.14808215128E+03  0.15624654075E+03  0.47000000000E+01 0.  1.
         -5    1    3    3    0  502  0.32466539246E+02 -0.24882871974E+01  0.70055490847E+01  0.33636817058E+02  0.47000000000E+01 0.  1.
        -11    1    1    2    0    0  0.20138531402E+02 -0.32985259966E+02 -0.17807089236E+02  0.42552088657E+02  0.00000000000E+00 0.  1.
         11    1    1    2    0    0 -0.82134980215E+01  0.13293460387E+02  0.62770566493E+02  0.64686332843E+02  0.00000000000E+00 0. -1.
<mgrwt>
<rscale>  0 0.11890153E+03</rscale>
<asrwt>0</asrwt>
<pdfrwt beam="1">  1        3 0.15462204E-01 0.12709478E+03</pdfrwt>
<pdfrwt beam="2">  1       -3 0.30248839E-01 0.12709478E+03</pdfrwt>
<totfact> 0.85093260E+02</totfact>
</mgrwt>
</event>
<event>
 6    1  0.8712071E-006  0.2604436E+03  0.7546771E-02  0.1106877E+00
         -1   -1    0    0    0  501 -0.00000000000E+00  0.00000000000E+00  0.71043594791E+02  0.71043594791E+02  0.00000000000E+00 0.  1.
          1   -1    0    0  501    0  0.00000000000E+00 -0.00000000000E+00 -0.23869457363E+03  0.23869457363E+03  0.00000000000E+00 0. -1.
          5    1    1    2  502    0  0.91844962760E+01 -0.17143611570E+02 -0.94961827564E+02  0.97046880856E+02  0.47000000000E+01 0. -1.
         -5    1    1    2    0  502 -0.28855853283E+02  0.79408050233E+02 -0.11193686290E+02  0.85356237752E+02  0.47000000000E+01 0.  1.
        -11    1    1    2    0    0 -0.22222673169E+02 -0.23359771994E+02 -0.62309380918E+02  0.70156860683E+02  0.00000000000E+00 0.  1.
         11    1    1    2    0    0  0.41894030176E+02 -0.38904666668E+02  0.81391593461E+00  0.57178189129E+02  0.00000000000E+00 0. -1.
<mgrwt>
<rscale>  0 0.26044363E+03</rscale>
<asrwt>0</asrwt>
<pdfrwt beam="2">  1        1 0.36722241E-01 0.26044363E+03</pdfrwt>
<pdfrwt beam="1">  1       -1 0.10929784E-01 0.26044363E+03</pdfrwt>
<totfact> 0.61495761E+03</totfact>
</mgrwt>
</event>
<event>
 7    1  0.8712071E-006  0.1366150E+03  0.7546771E-02  0.1231445E+00
         -2   -1    0    0    0  501 -0.00000000000E+00  0.00000000000E+00  0.62091171719E+02  0.62091171719E+02  0.00000000000E+00 0. -1.
          2   -1    0    0  501    0  0.00000000000E+00 -0.00000000000E+00 -0.23270001388E+03  0.23270001388E+03  0.00000000000E+00 0.  1.
         23    2    1    2    0    0 -0.13921266006E+02 -0.53311324976E+02 -0.10778029690E+03  0.17401223230E+03  0.12501106180E+03 0.  0.
          5    1    3    3  502    0 -0.31816096248E+01  0.40699054462E+02 -0.41408365521E+02  0.58337624301E+02  0.47000000000E+01 0. -1.
         -5    1    3    3    0  502 -0.10739656381E+02 -0.94010379438E+02 -0.66371931378E+02  0.11567460800E+03  0.47000000000E+01 0. -1.
        -11    1    1    2    0    0  0.42588609852E+02  0.59520416195E+02 -0.38651884716E+02  0.82767371743E+02  0.00000000000E+00 0. -1.
         11    1    1    2    0    0 -0.28667343847E+02 -0.62090912186E+01 -0.24176660544E+02  0.38011581551E+02  0.00000000000E+00 0.  1.
<mgrwt>
<rscale>  0 0.12734802E+03</rscale>
<asrwt>0</asrwt>
<pdfrwt beam="2">  1        2 0.35800003E-01 0.13661502E+03</pdfrwt>
<pdfrwt beam="1">  1       -2 0.95524876E-02 0.13661502E+03</pdfrwt>
<totfact> 0.97353074E+03</totfact>
</mgrwt>
</event>
<event>
 7    1  0.8712071E-006  0.2900070E+03  0.7546771E-02  0.1092024E+00
          1   -1    0    0  501    0  0.00000000000E+00  0.00000000000E+00  0.39396176693E+03  0.39396176693E+03  0.00000000000E+00 0. -1.
         -1   -1    0    0    0  501 -0.00000000000E+00 -0.00000000000E+00 -0.21058546997E+03  0.21058546997E+03  0.00000000000E+00 0.  1.
         23    2    1    2    0    0  0.23068590522E+03 -0.12354840723E+03  0.14571449288E+03  0.32455629913E+03  0.12499552821E+03 0.  0.
          5    1    3    3  502    0  0.12243517210E+03 -0.13158053087E+03  0.10694520602E+03  0.20919649749E+03  0.47000000000E+01 0.  1.
         -5    1    3    3    0  502  0.10825073312E+03  0.80321236426E+01  0.38769286866E+02  0.11535980164E+03  0.47000000000E+01 0.  1.
        -11    1    1    2    0    0 -0.13407556530E+03  0.12127721889E+03  0.26185293241E+02  0.18267482206E+03  0.00000000000E+00 0.  1.
         11    1    1    2    0    0 -0.96610339925E+02  0.22711883389E+01  0.11476510833E+02  0.97316115715E+02  0.00000000000E+00 0. -1.
<mgrwt>
<rscale>  0 0.28681455E+03</rscale>
<asrwt>0</asrwt>
<pdfrwt beam="1">  1        1 0.60609503E-01 0.29000703E+03</pdfrwt>
<pdfrwt beam="2">  1       -1 0.32397765E-01 0.29000703E+03</pdfrwt>
<totfact> 0.55524717E+02</totfact>
</mgrwt>
</event>
<event>
 7    1  0.8712071E-006  0.1744671E+03  0.7546771E-02  0.1179251E+00
          4   -1    0    0  501    0  0.00000000000E+00  0.00000000000E+00  0.64607303709E+02  0.64607303709E+02  0.00000000000E+00 0.  1.
         -4   -1    0    0    0  501 -0.00000000000E+00 -0.00000000000E+00 -0.42764965002E+03  0.42764965002E+03  0.00000000000E+00 0. -1.
         23    2    1    2    0    0 -0.88883427602E+02 -0.83151877284E+02 -0.23824996346E+03  0.29529953085E+03  0.12499707770E+03 0.  0.
          5    1    3    3  502    0 -0.50185721133E+02 -0.11299467637E+03 -0.15131540718E+03  0.19546059947E+03  0.47000000000E+01 0. -1.
         -5    1    3    3    0  502 -0.38697706469E+02  0.29842799090E+02 -0.86934556284E+02  0.99838931383E+02  0.47000000000E+01 0. -1.
        -11    1    1    2    0    0  0.40673095256E+02  0.61872534067E+02 -0.12379679375E+03  0.14425032857E+03  0.00000000000E+00 0. -1.
         11    1    1    2    0    0  0.48210332346E+02  0.21279343216E+02 -0.99558909528E+00  0.52707094307E+02  0.00000000000E+00 0.  1.
<mgrwt>
<rscale>  0 0.16866144E+03</rscale>
<asrwt>0</asrwt>
<pdfrwt beam="1">  1        4 0.99395857E-02 0.17446710E+03</pdfrwt>
<pdfrwt beam="2">  1       -4 0.65792250E-01 0.17446710E+03</pdfrwt>
<totfact> 0.29086672E+02</totfact>
</mgrwt>
</event>
<event>
 7    1  0.8712071E-006  0.1352232E+03  0.7546771E-02  0.1233357E+00
         -1   -1    0    0    0  501 -0.00000000000E+00  0.00000000000E+00  0.51621049295E+02  0.51621049295E+02  0.00000000000E+00 0.  1.
          1   -1    0    0  501    0  0.00000000000E+00 -0.00000000000E+00 -0.56900223572E+03  0.56900223572E+03  0.00000000000E+00 0. -1.
         23    2    1    2    0    0  0.26990333190E+01  0.51507776721E+02 -0.53203377188E+02  0.14531319988E+03  0.12499996348E+03 0.  0.
          5    1    3    3  502    0  0.11915519478E+02  0.92148529737E+02 -0.40738585921E+02  0.10156305194E+03  0.47000000000E+01 0. -1.
         -5    1    3    3    0  502 -0.92164861588E+01 -0.40640753016E+02 -0.12464791268E+02  0.43750147934E+02  0.47000000000E+01 0. -1.
        -11    1    1    2    0    0 -0.36114361773E+02  0.40299482542E+01 -0.13457267455E+03  0.13939258353E+03  0.00000000000E+00 0. -1.
         11    1    1    2    0    0  0.33415328454E+02 -0.55537724975E+02 -0.32960513469E+03  0.33591750161E+03  0.00000000000E+00 0.  1.
<mgrwt>
<rscale>  0 0.12610227E+03</rscale>
<asrwt>0</asrwt>
<pdfrwt beam="2">  1        1 0.87538807E-01 0.13522325E+03</pdfrwt>
<pdfrwt beam="1">  1       -1 0.79416998E-02 0.13522325E+03</pdfrwt>
<totfact> 0.32121446E+03</totfact>
</mgrwt>
</event>
<event>
 6    1  0.8712071E-006  0.1507653E+03  0.7546771E-02  0.1220442E+00
         -1   -1    0    0    0  501 -0.00000000000E+00  0.00000000000E+00  0.19940027288E+03  0.19940027288E+03  0.00000000000E+00 0.  1.
          1   -1    0    0  501    0  0.00000000000E+00 -0.00000000000E+00 -0.85294554197E+02  0.85294554197E+02  0.00000000000E+00 0. -1.
          5    1    1    2  502    0 -0.24902374949E+02 -0.81171885862E+02  0.10848755789E+03  0.13784282190E+03  0.47000000000E+01 0. -1.
         -5    1    1    2    0  502  0.11120250213E+02  0.48720673483E+02  0.41754675615E+01  0.50367534373E+02  0.47000000000E+01 0.  1.
        -11    1    1    2    0    0 -0.13151446127E+01  0.60429611572E+02  0.14429553176E+02  0.62142413576E+02  0.00000000000E+00 0.  1.
         11    1    1    2    0    0  0.15097269349E+02 -0.27978399193E+02 -0.12986859948E+02  0.34342057226E+02  0.00000000000E+00 0. -1.
<mgrwt>
<rscale>  0 0.13484297E+03</rscale>
<asrwt>0</asrwt>
<pdfrwt beam="2">  1        1 0.13122239E-01 0.15076532E+03</pdfrwt>
<pdfrwt beam="1">  1       -1 0.30676965E-01 0.15076532E+03</pdfrwt>
<totfact> 0.42184742E+03</totfact>
</mgrwt>
</event>
<event>
 7    1  0.8712071E-006  0.1978609E+03  0.7546771E-02  0.1156079E+00
          2   -1    0    0  501    0  0.00000000000E+00  0.00000000000E+00  0.13979213131E+03  0.13979213131E+03  0.00000000000E+00 0.  1.
         -2   -1    0    0    0  501 -0.00000000000E+00 -0.00000000000E+00 -0.28853643943E+03  0.28853643943E+03  0.00000000000E+00 0. -1.
         23    2    1    2    0    0  0.11781881287E+03  0.98198838055E+02 -0.15343797751E+03  0.25038400570E+03  0.12499861161E+03 0.  0.
          5    1    3    3  502    0  0.48808689796E+02 -0.24553914788E+02 -0.60175336336E+02  0.81414642628E+02  0.47000000000E+01 0.  1.
         -5    1    3    3    0  502  0.69010123072E+02  0.12275275284E+03 -0.93262641172E+02  0.16896936307E+03  0.47000000000E+01 0.  1.
        -11    1    1    2    0    0 -0.64846268876E+02 -0.18365390771E+02 -0.32931358255E+02  0.75012002518E+02  0.00000000000E+00 0. -1.
         11    1    1    2    0    0 -0.52972543992E+02 -0.79833447285E+02  0.37625027650E+02  0.10293256252E+03  0.00000000000E+00 0.  1.
<mgrwt>
<rscale>  0 0.19266525E+03</rscale>
<asrwt>0</asrwt>
<pdfrwt beam="1">  1        2 0.21506482E-01 0.19786090E+03</pdfrwt>
<pdfrwt beam="2">  1       -2 0.44390221E-01 0.19786090E+03</pdfrwt>
<totfact> 0.12319656E+03</totfact>
</mgrwt>
</event>
<event>
 7    1  0.8712071E-006  0.2749147E+03  0.7546771E-02  0.1100466E+00
         -2   -1    0    0    0  501 -0.00000000000E+00  0.00000000000E+00  0.51759354871E+02  0.51759354871E+02  0.00000000000E+00 0. -1.
          2   -1    0    0  501    0  0.00000000000E+00 -0.00000000000E+00 -0.17394824464E+04  0.17394824464E+04  0.00000000000E+00 0.  1.
         23    2    1    2    0    0 -0.24235833176E+03  0.34838517843E+02 -0.45878562142E+03  0.53484796002E+03  0.12500724227E+03 0.  0.
          5    1    3    3  502    0 -0.15205129435E+03  0.79484203005E+02 -0.25367422762E+03  0.30628424445E+03  0.47000000000E+01 0.  1.
         -5    1    3    3    0  502 -0.90307037418E+02 -0.44645685161E+02 -0.20511139380E+03  0.22856371557E+03  0.47000000000E+01 0.  1.
        -11    1    1    2    0    0  0.13216832328E+03  0.25288366078E+02 -0.69400493062E+03  0.70693055590E+03  0.00000000000E+00 0.  1.
         11    1    1    2    0    0  0.11019000849E+03 -0.60126883921E+02 -0.53493253945E+03  0.54946328531E+03  0.00000000000E+00 0. -1.
<mgrwt>
<rscale>  0 0.27142629E+03</rscale>
<asrwt>0</asrwt>
<pdfrwt beam="2">  1        2 0.26761264E+00 0.27491470E+03</pdfrwt>
<pdfrwt beam="1">  1       -2 0.79629790E-02 0.27491470E+03</pdfrwt>
<totfact> 0.97049300E+02</totfact>
</mgrwt>
</event>
<event>
 7    1  0.8712071E-006  0.1266835E+03  0.7546771E-02  0.1252472E+00
          1   -1    0    0  501    0  0.00000000000E+00  0.00000000000E+00  0.47849035199E+03  0.47849035199E+03  0.00000000000E+00 0. -1.
         -1   -1    0    0    0  501 -0.00000000000E+00 -0.00000000000E+00 -0.23305757110E+02  0.23305757110E+02  0.00000000000E+00 0.  1.
         23    2    1    2    0    0 -0.78528669919E+01  0.19204284464E+02  0.27480941071E+03  0.30260355640E+03  0.12497290935E+03 0.  0.
          5    1    3    3  502    0 -0.53106908897E+02  0.18232850847E+02  0.57217963475E+02  0.80304208898E+02  0.47000000000E+01 0. -1.
         -5    1    3    3    0  502  0.45254041905E+02  0.97143361618E+00  0.21759144723E+03  0.22229934751E+03  0.47000000000E+01 0. -1.
        -11    1    1    2    0    0  0.26316548932E+02 -0.35091279282E+02  0.16418920840E+03  0.16994721176E+03  0.00000000000E+00 0. -1.
         11    1    1    2    0    0 -0.18463681940E+02  0.15886994818E+02  0.16185975777E+02  0.29245340945E+02  0.00000000000E+00 0.  1.
<mgrwt>
<rscale>  0 0.11449090E+03</rscale>
<asrwt>0</asrwt>
<pdfrwt beam="1">  1        1 0.73613893E-01 0.12668346E+03</pdfrwt>
<pdfrwt beam="2">  1       -1 0.35855014E-02 0.12668346E+03</pdfrwt>
<totfact> 0.13060911E+04</totfact>
</mgrwt>
</event>
<event>
 7    1  0.8712071E-006  0.1442965E+03  0.7546771E-02  0.1215920E+00
         -1   -1    0    0    0  501 -0.00000000000E+00  0.00000000000E+00  0.16387258414E+03  0.16387258414E+03  0.00000000000E+00 0.  1.
          1   -1    0    0  501    0  0.00000000000E+00 -0.00000000000E+00 -0.11593772468E+03  0.11593772468E+03  0.00000000000E+00 0. -1.
         23    2    1    2    0    0 -0.14935874542E+02 -0.78049887512E+02  0.63744313705E+02  0.15774922049E+03  0.12044340475E+03 0.  0.
          5    1    3    3  502    0 -0.42445399681E+02 -0.64757455341E+01  0.68277789906E+02  0.80792907045E+02  0.47000000000E+01 0. -1.
         -5    1    3    3    0  502  0.27509525140E+02 -0.71574141977E+02 -0.45334762005E+01  0.76956313449E+02  0.47000000000E+01 0.  1.
        -11    1    1    2    0    0  0.35982642606E+02  0.89276015430E+02 -0.65631193927E+01  0.96478142789E+02  0.00000000000E+00 0.  1.
         11    1    1    2    0    0 -0.21046768064E+02 -0.11226127918E+02 -0.92463348594E+01  0.25582945537E+02  0.00000000000E+00 0. -1.
<mgrwt>
<rscale>  0 0.13809175E+03</rscale>
<asrwt>0</asrwt>
<pdfrwt beam="2">  1        1 0.17836573E-01 0.14429650E+03</pdfrwt>
<pdfrwt beam="1">  1       -1 0.25211167E-01 0.14429650E+03</pdfrwt>
<totfact> 0.39212765E+03</totfact>
</mgrwt>
</event>
<event>
 7    1  0.8712071E-006  0.1365425E+03  0.7546771E-02  0.1230218E+00
          1   -1    0    0  501    0  0.00000000000E+00  0.00000000000E+00  0.22541588651E+03  0.22541588651E+03  0.00000000000E+00 0. -1.
         -1   -1    0    0    0  501 -0.00000000000E+00 -0.00000000000E+00 -0.65240116087E+02  0.65240116087E+02  0.00000000000E+00 0.  1.
         23    2    1    2    0    0  0.37430560303E+02  0.40226070823E+02  0.87828937222E+02  0.16235079629E+03  0.12499870090E+03 0.  0.
          5    1    3    3  502    0  0.31476758093E+02 -0.18914312519E+02  0.95320035819E+02  0.10225720878E+03  0.47000000000E+01 0.  1.
         -5    1    3    3    0  502  0.59538022092E+01  0.59140383343E+02 -0.74910985970E+01  0.60093587519E+02  0.47000000000E+01 0.  1.
        -11    1    1    2    0    0 -0.24838058316E+02 -0.13634544736E+02  0.89753254176E+02  0.94119480376E+02  0.00000000000E+00 0. -1.
         11    1    1    2    0    0 -0.12592501986E+02 -0.26591526088E+02 -0.17406420975E+02  0.34185725927E+02  0.00000000000E+00 0.  1.
<mgrwt>
<rscale>  0 0.12815617E+03</rscale>
<asrwt>0</asrwt>
<pdfrwt beam="1">  1        1 0.34679367E-01 0.13654252E+03</pdfrwt>
<pdfrwt beam="2">  1       -1 0.10036941E-01 0.13654252E+03</pdfrwt>
<totfact> 0.72514098E+03</totfact>
</mgrwt>
</event>
<event>
 7    1  0.8712071E-006  0.1258016E+03  0.7546771E-02  0.1247752E+00
         -2   -1    0    0    0  501 -0.00000000000E+00  0.00000000000E+00  0.12494261166E+03  0.12494261166E+03  0.00000000000E+00 0.  1.
          2   -1    0    0  501    0  0.00000000000E+00 -0.00000000000E+00 -0.98031736990E+02  0.98031736990E+02  0.00000000000E+00 0. -1.
         23    2    1    2    0    0  0.13771541226E+02  0.15359593130E+01  0.24149828451E+02  0.12809858781E+03  0.12503607266E+03 0.  0.
          5    1    3    3  502    0 -0.44037474819E+02 -0.19308245082E+02  0.41910988536E+02  0.63958802965E+02  0.47000000000E+01 0.  1.
         -5    1    3    3    0  502  0.57809016045E+02  0.20844204395E+02 -0.17761160085E+02  0.64139784850E+02  0.47000000000E+01 0.  1.
        -11    1    1    2    0    0  0.60684837804E+01  0.43468809881E+02  0.10390834160E+02  0.45103584807E+02  0.00000000000E+00 0.  1.
         11    1    1    2    0    0 -0.19840025007E+02 -0.45004769194E+02 -0.76297879426E+01  0.49772176028E+02  0.00000000000E+00 0. -1.
<mgrwt>
<rscale>  0 0.11722152E+03</rscale>
<asrwt>0</asrwt>
<pdfrwt beam="2">  1        2 0.15081806E-01 0.12580157E+03</pdfrwt>
<pdfrwt beam="1">  1       -2 0.19221940E-01 0.12580157E+03</pdfrwt>
<totfact> 0.81700596E+03</totfact>
</mgrwt>
</event>
<event>
 7    1  0.8712071E-006  0.1906206E+03  0.7546771E-02  0.1162215E+00
         -1   -1    0    0    0  501 -0.00000000000E+00  0.00000000000E+00  0.35559393772E+03  0.35559393772E+03  0.00000000000E+00 0.  1.
          1   -1    0    0  501    0  0.00000000000E+00 -0.00000000000E+00 -0.31785068348E+03  0.31785068348E+03  0.00000000000E+00 0. -1.
         23    2    1    2    0    0  0.12075777050E+03 -0.78280309282E+02  0.30246725836E+03  0.35752292675E+03  0.12500381920E+03 0.  0.
          5    1    3    3  502    0  0.35661211629E+01  0.23212778548E+02  0.97996762660E+02  0.10088114690E+03  0.47000000000E+01 0.  1.
         -5    1    3    3    0  502  0.11719164934E+03 -0.10149308783E+03  0.20447049570E+03  0.25664177985E+03  0.47000000000E+01 0.  1.
        -11    1    1    2    0    0 -0.95909265364E+02  0.95488284397E+02 -0.17489780681E+03  0.22114665376E+03  0.00000000000E+00 0.  1.
         11    1    1    2    0    0 -0.24848505139E+02 -0.17207975115E+02 -0.89826197311E+02  0.94775040694E+02  0.00000000000E+00 0. -1.
<mgrwt>
<rscale>  0 0.18589706E+03</rscale>
<asrwt>0</asrwt>
<pdfrwt beam="2">  1        1 0.48900105E-01 0.19062057E+03</pdfrwt>
<pdfrwt beam="1">  1       -1 0.54706760E-01 0.19062057E+03</pdfrwt>
<totfact> 0.28645525E+02</totfact>
</mgrwt>
</event>
<event>
 7    1  0.8712071E-006  0.1785952E+03  0.7546771E-02  0.1176272E+00
         -2   -1    0    0    0  501 -0.00000000000E+00  0.00000000000E+00  0.63007306436E+03  0.63007306436E+03  0.00000000000E+00 0.  1.
          2   -1    0    0  501    0  0.00000000000E+00 -0.00000000000E+00 -0.54812299892E+02  0.54812299892E+02  0.00000000000E+00 0. -1.
         23    2    1    2    0    0 -0.15076039380E+02 -0.85045856888E+02  0.42549098089E+03  0.45180336596E+03  0.12499448764E+03 0.  0.
          5    1    3    3  502    0 -0.67704974952E+02 -0.26108458661E+02  0.19730554193E+03  0.21027881996E+03  0.47000000000E+01 0.  1.
         -5    1    3    3    0  502  0.52628935572E+02 -0.58937398227E+02  0.22818543896E+03  0.24152454600E+03  0.47000000000E+01 0.  1.
        -11    1    1    2    0    0 -0.52709872619E+02 -0.17456505820E+02  0.41809740513E+02  0.69506220360E+02  0.00000000000E+00 0. -1.
         11    1    1    2    0    0  0.67785911999E+02  0.10250236271E+03  0.10796004307E+03  0.16357577793E+03  0.00000000000E+00 0.  1.
<mgrwt>
<rscale>  0 0.17152027E+03</rscale>
<asrwt>0</asrwt>
<pdfrwt beam="2">  1        2 0.84326620E-02 0.17859516E+03</pdfrwt>
<pdfrwt beam="1">  1       -2 0.96934312E-01 0.17859516E+03</pdfrwt>
<totfact> 0.72428651E+02</totfact>
</mgrwt>
</event>
<event>
 7    1  0.8712071E-006  0.1496177E+03  0.7546771E-02  0.1209896E+00
          2   -1    0    0  501    0  0.00000000000E+00  0.00000000000E+00  0.18074119688E+03  0.18074119688E+03  0.00000000000E+00 0. -1.
         -2   -1    0    0    0  501 -0.00000000000E+00 -0.00000000000E+00 -0.11178385817E+03  0.11178385817E+03  0.00000000000E+00 0.  1.
         23    2    1    2    0    0  0.41207488746E+02  0.71153807255E+02 -0.30570017760E+01  0.14964893775E+03  0.12499815157E+03 0.  0.
          5    1    3    3  502    0  0.70549181063E+02  0.42042212337E+02  0.38521276625E+02  0.90833437234E+02  0.47000000000E+01 0.  1.
         -5    1    3    3    0  502 -0.29341692317E+02  0.29111594918E+02 -0.41578278401E+02  0.58815500521E+02  0.47000000000E+01 0.  1.
        -11    1    1    2    0    0 -0.11838776808E+02 -0.84879369146E+02  0.69537935300E+02  0.11036389078E+03  0.00000000000E+00 0.  1.
         11    1    1    2    0    0 -0.29368711938E+02  0.13725561891E+02  0.24764051853E+01  0.32512226512E+02  0.00000000000E+00 0. -1.
<mgrwt>
<rscale>  0 0.14258239E+03</rscale>
<asrwt>0</asrwt>
<pdfrwt beam="1">  1        2 0.27806338E-01 0.14961771E+03</pdfrwt>
<pdfrwt beam="2">  1       -2 0.17197517E-01 0.14961771E+03</pdfrwt>
<totfact> 0.49919988E+03</totfact>
</mgrwt>
</event>
<event>
 7    1  0.8712071E-006  0.2211419E+03  0.7546771E-02  0.1136324E+00
         -1   -1    0    0    0  501 -0.00000000000E+00  0.00000000000E+00  0.61557069067E+02  0.61557069067E+02  0.00000000000E+00 0.  1.
          1   -1    0    0  501    0  0.00000000000E+00 -0.00000000000E+00 -0.84634408927E+03  0.84634408927E+03  0.00000000000E+00 0. -1.
         23    2    1    2    0    0 -0.43537581198E+02  0.17717067273E+03 -0.24109223838E+03  0.32715319365E+03  0.12497510333E+03 0.  0.
          5    1    3    3  502    0  0.43652742140E+01  0.43736553594E+02 -0.15509350193E+03  0.16127004086E+03  0.47000000000E+01 0.  1.
         -5    1    3    3    0  502 -0.47902855412E+02  0.13343411913E+03 -0.85998736452E+02  0.16588315278E+03  0.47000000000E+01 0.  1.
        -11    1    1    2    0    0  0.41796107205E+02 -0.46893963457E+02 -0.27563712040E+03  0.28270440487E+03  0.00000000000E+00 0. -1.
         11    1    1    2    0    0  0.17414739931E+01 -0.13027670927E+03 -0.26805766142E+03  0.29804355983E+03  0.00000000000E+00 0.  1.
<mgrwt>
<rscale>  0 0.21675726E+03</rscale>
<asrwt>0</asrwt>
<pdfrwt beam="2">  1        1 0.13020677E+00 0.22114191E+03</pdfrwt>
<pdfrwt beam="1">  1       -1 0.94703190E-02 0.22114191E+03</pdfrwt>
<totfact> 0.13987926E+03</totfact>
</mgrwt>
</event>
<event>
 7    1  0.8712071E-006  0.1425452E+03  0.7546771E-02  0.1219909E+00
         -1   -1    0    0    0  501 -0.00000000000E+00  0.00000000000E+00  0.12099214646E+04  0.12099214646E+04  0.00000000000E+00 0.  1.
          1   -1    0    0  501    0  0.00000000000E+00 -0.00000000000E+00 -0.15389268019E+02  0.15389268019E+02  0.00000000000E+00 0. -1.
         23    2    1    2    0    0 -0.36382956817E+02  0.58262585873E+02  0.85226713650E+03  0.86410555654E+03  0.12490353244E+03 0.  0.
          5    1    3    3  502    0 -0.66214321855E+02  0.80278142789E+02  0.57917070693E+03  0.58846385988E+03  0.47000000000E+01 0. -1.
         -5    1    3    3    0  502  0.29831365038E+02 -0.22015556917E+02  0.27309642957E+03  0.27564169665E+03  0.47000000000E+01 0. -1.
        -11    1    1    2    0    0  0.45921928469E+02  0.51210260098E+01  0.19835910681E+03  0.20366979078E+03  0.00000000000E+00 0.  1.
         11    1    1    2    0    0 -0.95389716517E+01 -0.63383611882E+02  0.14390595323E+03  0.15753538526E+03  0.00000000000E+00 0. -1.
<mgrwt>
<rscale>  0 0.13522066E+03</rscale>
<asrwt>0</asrwt>
<pdfrwt beam="2">  1        1 0.23675806E-02 0.14254522E+03</pdfrwt>
<pdfrwt beam="1">  1       -1 0.18614169E+00 0.14254522E+03</pdfrwt>
<totfact> 0.97090988E+02</totfact>
</mgrwt>
</event>
<event>
 7    1  0.8712071E-006  0.1381354E+03  0.7546771E-02  0.1228317E+00
         -1   -1    0    0    0  501 -0.00000000000E+00  0.00000000000E+00  0.28298979258E+03  0.28298979258E+03  0.00000000000E+00 0.  1.
          1   -1    0    0  501    0  0.00000000000E+00 -0.00000000000E+00 -0.60095444850E+02  0.60095444850E+02  0.00000000000E+00 0. -1.
         23    2    1    2    0    0 -0.15390628229E+02  0.56752653854E+02  0.18329327064E+03  0.22951648579E+03  0.12499463601E+03 0.  0.
          5    1    3    3  502    0  0.54146323601E+02  0.30776957564E+02  0.99446075754E+02  0.11743363002E+03  0.47000000000E+01 0.  1.
         -5    1    3    3    0  502 -0.69536951831E+02  0.25975696290E+02  0.83847194888E+02  0.11208285577E+03  0.47000000000E+01 0.  1.
        -11    1    1    2    0    0 -0.27255244339E+02 -0.53020450649E+01 -0.10876249102E+02  0.29820342392E+02  0.00000000000E+00 0.  1.
         11    1    1    2    0    0  0.42645872568E+02 -0.51450608790E+02  0.50477326190E+02  0.83748409246E+02  0.00000000000E+00 0. -1.
<mgrwt>
<rscale>  0 0.12942128E+03</rscale>
<asrwt>0</asrwt>
<pdfrwt beam="2">  1        1 0.92454532E-02 0.13813542E+03</pdfrwt>
<pdfrwt beam="1">  1       -1 0.43536890E-01 0.13813542E+03</pdfrwt>
<totfact> 0.36356912E+03</totfact>
</mgrwt>
</event>
<event>
 7    1  0.8712071E-006  0.1354667E+03  0.7546771E-02  0.1231276E+00
         -3   -1    0    0    0  501 -0.00000000000E+00  0.00000000000E+00  0.31466347893E+02  0.31466347893E+02  0.00000000000E+00 0.  1.
          3   -1    0    0  501    0  0.00000000000E+00 -0.00000000000E+00 -0.46508968542E+03  0.46508968542E+03  0.00000000000E+00 0. -1.
         23    2    1    2    0    0 -0.52164239403E+02 -0.22358862384E+01 -0.25563092720E+03  0.28930675034E+03  0.12500047117E+03 0.  0.
          5    1    3    3  502    0  0.18890910356E+02  0.24747619209E+02 -0.11412404555E+02  0.33490955918E+02  0.47000000000E+01 0. -1.
         -5    1    3    3    0  502 -0.71055149759E+02 -0.26983505448E+02 -0.24421852265E+03  0.25581579443E+03  0.47000000000E+01 0. -1.
        -11    1    1    2    0    0  0.19252406312E+02  0.46892279933E+02 -0.84936957894E+02  0.98913234111E+02  0.00000000000E+00 0.  1.
         11    1    1    2    0    0  0.32911833092E+02 -0.44656393695E+02 -0.93055452433E+02  0.10833604886E+03  0.00000000000E+00 0. -1.
<mgrwt>
<rscale>  0 0.12745872E+03</rscale>
<asrwt>0</asrwt>
<pdfrwt beam="2">  1        3 0.71552258E-01 0.13546669E+03</pdfrwt>
<pdfrwt beam="1">  1       -3 0.48409767E-02 0.13546669E+03</pdfrwt>
<totfact> 0.10517261E+03</totfact>
</mgrwt>
</event>
<event>
 7    1  0.8712071E-006  0.1281876E+03  0.7546771E-02  0.1241279E+00
          2   -1    0    0  501    0  0.00000000000E+00  0.00000000000E+00  0.18057653617E+03  0.18057653617E+03  0.00000000000E+00 0. -1.
         -2   -1    0    0    0  501 -0.00000000000E+00 -0.00000000000E+00 -0.73629016799E+02  0.73629016799E+02  0.00000000000E+00 0.  1.
         23    2    1    2    0    0 -0.20411330554E+02 -0.19753748964E+02  0.53135479427E+02  0.13876393597E+03  0.12500087095E+03 0.  0.
          5    1    3    3  502    0  0.26954126897E+02  0.37946835800E+02 -0.39390148140E+00  0.46783891057E+02  0.47000000000E+01 0.  1.
         -5    1    3    3    0  502 -0.47365457451E+02 -0.57700584764E+02  0.53529380909E+02  0.91980044912E+02  0.47000000000E+01 0.  1.
        -11    1    1    2    0    0  0.11435309912E+02 -0.34462898215E+02 -0.29568034127E+01  0.36430761076E+02  0.00000000000E+00 0.  1.
         11    1    1    2    0    0  0.89760206415E+01  0.54216647179E+02  0.56768843358E+02  0.79010855926E+02  0.00000000000E+00 0. -1.
<mgrwt>
<rscale>  0 0.12110869E+03</rscale>
<asrwt>0</asrwt>
<pdfrwt beam="1">  1        2 0.27781005E-01 0.12818756E+03</pdfrwt>
<pdfrwt beam="2">  1       -2 0.11327541E-01 0.12818756E+03</pdfrwt>
<totfact> 0.97351492E+03</totfact>
</mgrwt>
</event>
<event>
 7    1  0.8712071E-006  0.3855268E+03  0.7546771E-02  0.1049760E+00
         -1   -1    0    0    0  501 -0.00000000000E+00  0.00000000000E+00  0.17018182813E+03  0.17018182813E+03  0.00000000000E+00 0.  1.
          1   -1    0    0  501    0  0.00000000000E+00 -0.00000000000E+00 -0.11806713466E+04  0.11806713466E+04  0.00000000000E+00 0. -1.
         23    2    1    2    0    0 -0.35295161422E+03  0.91836474267E+02 -0.15362059413E+03  0.41500629126E+03  0.12498861891E+03 0.  0.
          5    1    3    3  502    0 -0.25759012098E+02  0.48032958708E+02 -0.13439636740E+02  0.56332989111E+02  0.47000000000E+01 0.  1.
         -5    1    3    3    0  502 -0.32719260213E+03  0.43803515559E+02 -0.14018095739E+03  0.35867330215E+03  0.47000000000E+01 0.  1.
        -11    1    1    2    0    0  0.21062268813E+03 -0.74067307565E+02 -0.61953276945E+03  0.65853529536E+03  0.00000000000E+00 0. -1.
         11    1    1    2    0    0  0.14232892609E+03 -0.17769166702E+02 -0.23733615491E+03  0.27731158814E+03  0.00000000000E+00 0.  1.
<mgrwt>
<rscale>  0 0.38319349E+03</rscale>
<asrwt>0</asrwt>
<pdfrwt beam="2">  1        1 0.18164175E+00 0.38552683E+03</pdfrwt>
<pdfrwt beam="1">  1       -1 0.26181820E-01 0.38552683E+03</pdfrwt>
<totfact> 0.15077030E+02</totfact>
</mgrwt>
</event>
<event>
 6    1  0.8712071E-006  0.1320572E+03  0.7546771E-02  0.1240218E+00
          1   -1    0    0  501    0  0.00000000000E+00  0.00000000000E+00  0.77165027533E+03  0.77165027533E+03  0.00000000000E+00 0. -1.
         -1   -1    0    0    0  501 -0.00000000000E+00 -0.00000000000E+00 -0.17041742887E+02  0.17041742887E+02  0.00000000000E+00 0.  1.
          5    1    1    2  502    0  0.16924228788E+02  0.35877964551E+02  0.58512441382E+02  0.70848102705E+02  0.47000000000E+01 0. -1.
         -5    1    1    2    0  502 -0.35334381797E+02 -0.57187539338E+02  0.42782162804E+03  0.43309625790E+03  0.47000000000E+01 0.  1.
        -11    1    1    2    0    0  0.68243115132E+01 -0.20537793705E+02  0.11851938201E+02  0.24674696290E+02  0.00000000000E+00 0.  1.
         11    1    1    2    0    0  0.11585841496E+02  0.41847368492E+02  0.25642252482E+03  0.26007296131E+03  0.00000000000E+00 0. -1.
<mgrwt>
<rscale>  0 0.12176192E+03</rscale>
<asrwt>0</asrwt>
<pdfrwt beam="1">  1        1 0.11871540E+00 0.13205715E+03</pdfrwt>
<pdfrwt beam="2">  1       -1 0.26218072E-02 0.13205715E+03</pdfrwt>
<totfact> 0.10729771E+04</totfact>
</mgrwt>
</event>
<event>
 6    1  0.8712071E-006  0.2293120E+03  0.7546771E-02  0.1147233E+00
          1   -1    0    0  501    0  0.00000000000E+00  0.00000000000E+00  0.14989073877E+03  0.14989073877E+03  0.00000000000E+00 0. -1.
         -1   -1    0    0    0  501 -0.00000000000E+00 -0.00000000000E+00 -0.23708604715E+03  0.23708604715E+03  0.00000000000E+00 0.  1.
          5    1    1    2  502    0 -0.29591408482E+02 -0.35474720695E+02 -0.78181040339E+02  0.90931140611E+02  0.47000000000E+01 0. -1.
         -5    1    1    2    0  502  0.97122141681E+02  0.12043930768E+03 -0.11239879724E+02  0.15519910481E+03  0.47000000000E+01 0.  1.
        -11    1    1    2    0    0 -0.28208748884E+02  0.12221991107E+02  0.16742691597E+02  0.35006118067E+02  0.00000000000E+00 0.  1.
         11    1    1    2    0    0 -0.39321984315E+02 -0.97186578087E+02 -0.14517079912E+02  0.10584042243E+03  0.00000000000E+00 0. -1.
<mgrwt>
<rscale>  0 0.20299862E+03</rscale>
<asrwt>0</asrwt>
<pdfrwt beam="1">  1        1 0.23060114E-01 0.22931201E+03</pdfrwt>
<pdfrwt beam="2">  1       -1 0.36474776E-01 0.22931201E+03</pdfrwt>
<totfact> 0.15362652E+03</totfact>
</mgrwt>
</event>
<event>
 7    1  0.8712071E-006  0.1278580E+03  0.7546771E-02  0.1244385E+00
          2   -1    0    0  501    0  0.00000000000E+00  0.00000000000E+00  0.34674054860E+03  0.34674054860E+03  0.00000000000E+00 0. -1.
         -2   -1    0    0    0  501 -0.00000000000E+00 -0.00000000000E+00 -0.40070479729E+02  0.40070479729E+02  0.00000000000E+00 0.  1.
         23    2    1    2    0    0 -0.25626779137E+02 -0.81671753090E+01  0.11420450873E+03  0.17143607076E+03  0.12499688789E+03 0.  0.
          5    1    3    3  502    0 -0.37139806053E+02  0.53269205078E+02  0.60971190302E+02  0.89199492432E+02  0.47000000000E+01 0.  1.
         -5    1    3    3    0  502  0.11513026916E+02 -0.61436380387E+02  0.53233318428E+02  0.82236578326E+02  0.47000000000E+01 0.  1.
        -11    1    1    2    0    0 -0.85202599672E+01  0.83912492149E+01 -0.64242869049E+01  0.13574953242E+02  0.00000000000E+00 0.  1.
         11    1    1    2    0    0  0.34147039104E+02 -0.22407390590E+00  0.19888984705E+03  0.20180000433E+03  0.00000000000E+00 0. -1.
<mgrwt>
<rscale>  0 0.11922266E+03</rscale>
<asrwt>0</asrwt>
<pdfrwt beam="1">  1        2 0.53344698E-01 0.12785795E+03</pdfrwt>
<pdfrwt beam="2">  1       -2 0.61646894E-02 0.12785795E+03</pdfrwt>
<totfact> 0.12449298E+04</totfact>
</mgrwt>
</event>
<event>
 7    1  0.8712071E-006  0.1510343E+03  0.7546771E-02  0.1205962E+00
          1   -1    0    0  501    0  0.00000000000E+00  0.00000000000E+00  0.45527442344E+02  0.45527442344E+02  0.00000000000E+00 0. -1.
         -1   -1    0    0    0  501 -0.00000000000E+00 -0.00000000000E+00 -0.45102911291E+03  0.45102911291E+03  0.00000000000E+00 0.  1.
         23    2    1    2    0    0  0.32634030168E+02 -0.78240074300E+02 -0.26330074471E+03  0.30354348401E+03  0.12499950149E+03 0.  0.
          5    1    3    3  502    0  0.78252645759E+02 -0.67809713894E+02 -0.17130107389E+03  0.20021933419E+03  0.47000000000E+01 0. -1.
         -5    1    3    3    0  502 -0.45618615591E+02 -0.10430360406E+02 -0.91999670820E+02  0.10332414983E+03  0.47000000000E+01 0. -1.
        -11    1    1    2    0    0  0.18246210271E+02 -0.34566208723E+01  0.29992217229E+01  0.18811372838E+02  0.00000000000E+00 0. -1.
         11    1    1    2    0    0 -0.50880240439E+02  0.81696695172E+02 -0.14520014758E+03  0.17420169840E+03  0.00000000000E+00 0.  1.
<mgrwt>
<rscale>  0 0.14561896E+03</rscale>
<asrwt>0</asrwt>
<pdfrwt beam="1">  1        1 0.70042221E-02 0.15103432E+03</pdfrwt>
<pdfrwt beam="2">  1       -1 0.69389092E-01 0.15103432E+03</pdfrwt>
<totfact> 0.22191537E+03</totfact>
</mgrwt>
</event>
<event>
 7    1  0.8712071E-006  0.1373845E+03  0.7546771E-02  0.1223307E+00
         -1   -1    0    0    0  501 -0.00000000000E+00  0.00000000000E+00  0.97062757982E+02  0.97062757982E+02  0.00000000000E+00 0.  1.
          1   -1    0    0  501    0  0.00000000000E+00 -0.00000000000E+00 -0.38437436019E+03  0.38437436019E+03  0.00000000000E+00 0. -1.
         23    2    1    2    0    0 -0.15124195864E+02  0.77318454015E+02  0.31339017988E+02  0.14091359038E+03  0.11255052765E+03 0.  0.
          5    1    3    3  502    0 -0.52729455161E+02  0.10808715138E+02  0.34831159100E+02  0.64284705870E+02  0.47000000000E+01 0. -1.
         -5    1    3    3    0  502  0.37605259297E+02  0.66509738877E+02 -0.34921411125E+01  0.76628884514E+02  0.47000000000E+01 0.  1.
        -11    1    1    2    0    0  0.19607404668E+02  0.13758000883E+02 -0.33751004189E+02  0.41386751381E+02  0.00000000000E+00 0.  1.
         11    1    1    2    0    0 -0.44832088045E+01 -0.91076454898E+02 -0.28489961601E+03  0.29913677641E+03  0.00000000000E+00 0. -1.
<mgrwt>
<rscale>  0 0.13283627E+03</rscale>
<asrwt>0</asrwt>
<pdfrwt beam="2">  1        1 0.59134516E-01 0.13738452E+03</pdfrwt>
<pdfrwt beam="1">  1       -1 0.14932732E-01 0.13738452E+03</pdfrwt>
<totfact> 0.20239126E+03</totfact>
</mgrwt>
</event>
<event>
 7    1  0.8712071E-006  0.1691440E+03  0.7546771E-02  0.1185162E+00
          1   -1    0    0  501    0  0.00000000000E+00  0.00000000000E+00  0.12118750892E+03  0.12118750892E+03  0.00000000000E+00 0. -1.
         -1   -1    0    0    0  501 -0.00000000000E+00 -0.00000000000E+00 -0.22168934235E+03  0.22168934235E+03  0.00000000000E+00 0.  1.
         23    2    1    2    0    0 -0.10318563567E+03  0.48358434527E+02 -0.99788404342E+02  0.19638591479E+03  0.12499555308E+03 0.  0.
          5    1    3    3  502    0 -0.24942194422E+02  0.79805007867E+02 -0.39331136591E+02  0.92520163472E+02  0.47000000000E+01 0.  1.
         -5    1    3    3    0  502 -0.78243441249E+02 -0.31446573341E+02 -0.60457267751E+02  0.10386575132E+03  0.47000000000E+01 0.  1.
        -11    1    1    2    0    0  0.19625509007E+02 -0.53544577881E+02 -0.20257636568E+02  0.60519040505E+02  0.00000000000E+00 0.  1.
         11    1    1    2    0    0  0.83560126663E+02  0.51861433547E+01  0.19544207478E+02  0.85971895971E+02  0.00000000000E+00 0. -1.
<mgrwt>
<rscale>  0 0.16317135E+03</rscale>
<asrwt>0</asrwt>
<pdfrwt beam="1">  1        1 0.18644232E-01 0.16914403E+03</pdfrwt>
<pdfrwt beam="2">  1       -1 0.34106052E-01 0.16914403E+03</pdfrwt>
<totfact> 0.22454369E+03</totfact>
</mgrwt>
</event>
<event>
 7    1  0.8712071E-006  0.1486469E+03  0.7546771E-02  0.1211795E+00
         -3   -1    0    0    0  501 -0.00000000000E+00  0.00000000000E+00  0.44036324016E+03  0.44036324016E+03  0.00000000000E+00 0.  1.
          3   -1    0    0  501    0  0.00000000000E+00 -0.00000000000E+00 -0.41625984681E+02  0.41625984681E+02  0.00000000000E+00 0. -1.
         23    2    1    2    0    0  0.64865120139E+02 -0.47616574745E+02  0.24315818533E+03  0.28499438339E+03  0.12498429291E+03 0.  0.
          5    1    3    3  502    0  0.13960169703E+01 -0.35559276378E+02  0.20842760959E+03  0.21149602700E+03  0.47000000000E+01 0.  1.
         -5    1    3    3    0  502  0.63469103169E+02 -0.12057298367E+02  0.34730575737E+02  0.73498356389E+02  0.47000000000E+01 0.  1.
        -11    1    1    2    0    0 -0.30299698149E+02  0.72246249260E+02  0.10369248877E+03  0.12996047271E+03  0.00000000000E+00 0.  1.
         11    1    1    2    0    0 -0.34565421990E+02 -0.24629674515E+02  0.51886581381E+02  0.67034368733E+02  0.00000000000E+00 0. -1.
<mgrwt>
<rscale>  0 0.14114609E+03</rscale>
<asrwt>0</asrwt>
<pdfrwt beam="2">  1        3 0.64039979E-02 0.14864688E+03</pdfrwt>
<pdfrwt beam="1">  1       -3 0.67748188E-01 0.14864688E+03</pdfrwt>
<totfact> 0.76605560E+02</totfact>
</mgrwt>
</event>
<event>
 7    1  0.8712071E-006  0.2281465E+03  0.7546771E-02  0.1131071E+00
         -2   -1    0    0    0  501 -0.00000000000E+00  0.00000000000E+00  0.22756744329E+03  0.22756744329E+03  0.00000000000E+00 0.  1.
          2   -1    0    0  501    0  0.00000000000E+00 -0.00000000000E+00 -0.23367723008E+03  0.23367723008E+03  0.00000000000E+00 0. -1.
         23    2    1    2    0    0  0.90133914144E+02 -0.16822330222E+03  0.66780950780E+02  0.23771938643E+03  0.12501043720E+03 0.  0.
          5    1    3    3  502    0 -0.14151328696E+02 -0.58160102321E+02  0.61475848124E+02  0.85931528023E+02  0.47000000000E+01 0.  1.
         -5    1    3    3    0  502  0.10428524284E+03 -0.11006319990E+03  0.53051026563E+01  0.15178785841E+03  0.47000000000E+01 0.  1.
        -11    1    1    2    0    0 -0.51846232991E+02  0.55723139078E+02  0.12578618009E+02  0.77144810163E+02  0.00000000000E+00 0. -1.
         11    1    1    2    0    0 -0.38287681153E+02  0.11250016315E+03 -0.85469355587E+02  0.14638047677E+03  0.00000000000E+00 0.  1.
<mgrwt>
<rscale>  0 0.22381469E+03</rscale>
<asrwt>0</asrwt>
<pdfrwt beam="2">  1        2 0.35950343E-01 0.22814647E+03</pdfrwt>
<pdfrwt beam="1">  1       -2 0.35010376E-01 0.22814647E+03</pdfrwt>
<totfact> 0.10999326E+03</totfact>
</mgrwt>
</event>
<event>
 7    1  0.8712071E-006  0.1924177E+03  0.7546771E-02  0.1161142E+00
         -1   -1    0    0    0  501 -0.00000000000E+00  0.00000000000E+00  0.14439734335E+03  0.14439734335E+03  0.00000000000E+00 0.  1.
          1   -1    0    0  501    0  0.00000000000E+00 -0.00000000000E+00 -0.24350875264E+03  0.24350875264E+03  0.00000000000E+00 0. -1.
         23    2    1    2    0    0 -0.20473678140E+01 -0.14627399269E+03 -0.61444205082E+01  0.19251580622E+03  0.12499723632E+03 0.  0.
          5    1    3    3  502    0  0.28976889753E+02 -0.25152920338E+02  0.43241672823E+02  0.58002256937E+02  0.47000000000E+01 0. -1.
         -5    1    3    3    0  502 -0.31024257567E+02 -0.12112107235E+03 -0.49386093331E+02  0.13451354928E+03  0.47000000000E+01 0. -1.
        -11    1    1    2    0    0 -0.39842213517E+02  0.10756304633E+03 -0.65417983458E+02  0.13204818618E+03  0.00000000000E+00 0.  1.
         11    1    1    2    0    0  0.41889581331E+02  0.38710946358E+02 -0.27549005330E+02  0.63342103586E+02  0.00000000000E+00 0. -1.
<mgrwt>
<rscale>  0 0.18705745E+03</rscale>
<asrwt>0</asrwt>
<pdfrwt beam="2">  1        1 0.37462885E-01 0.19241773E+03</pdfrwt>
<pdfrwt beam="1">  1       -1 0.22214976E-01 0.19241773E+03</pdfrwt>
<totfact> 0.19146388E+03</totfact>
</mgrwt>
</event>
<event>
 7    1  0.8712071E-006  0.2016541E+03  0.7546771E-02  0.1152213E+00
          2   -1    0    0  501    0  0.00000000000E+00  0.00000000000E+00  0.13323030327E+04  0.13323030327E+04  0.00000000000E+00 0. -1.
         -2   -1    0    0    0  501 -0.00000000000E+00 -0.00000000000E+00 -0.31220568277E+02  0.31220568277E+02  0.00000000000E+00 0.  1.
         23    2    1    2    0    0  0.74623905093E+02 -0.13953830116E+03  0.45539902777E+03  0.49804884818E+03  0.12499886390E+03 0.  0.
          5    1    3    3  502    0  0.67831904936E+02 -0.13177187280E+03  0.46180500152E+03  0.48502674485E+03  0.47000000000E+01 0. -1.
         -5    1    3    3    0  502  0.67920001560E+01 -0.77664283532E+01 -0.64059737492E+01  0.13022103331E+02  0.47000000000E+01 0. -1.
        -11    1    1    2    0    0 -0.54909686127E+02  0.14618915794E+03  0.80234678825E+03  0.81740241751E+03  0.00000000000E+00 0. -1.
         11    1    1    2    0    0 -0.19714218966E+02 -0.66508567851E+01  0.43336648387E+02  0.48072335276E+02  0.00000000000E+00 0.  1.
<mgrwt>
<rscale>  0 0.19709514E+03</rscale>
<asrwt>0</asrwt>
<pdfrwt beam="1">  1        2 0.20496965E+00 0.20165411E+03</pdfrwt>
<pdfrwt beam="2">  1       -2 0.48031654E-02 0.20165411E+03</pdfrwt>
<totfact> 0.34909571E+03</totfact>
</mgrwt>
</event>
<event>
 7    1  0.8712071E-006  0.1427409E+03  0.7546771E-02  0.1220252E+00
         -1   -1    0    0    0  501 -0.00000000000E+00  0.00000000000E+00  0.62660055633E+02  0.62660055633E+02  0.00000000000E+00 0.  1.
          1   -1    0    0  501    0  0.00000000000E+00 -0.00000000000E+00 -0.27489737107E+03  0.27489737107E+03  0.00000000000E+00 0. -1.
         23    2    1    2    0    0  0.53485939711E+02 -0.43482644352E+02 -0.82910727760E+02  0.16507316064E+03  0.12499389376E+03 0.  0.
          5    1    3    3  502    0  0.59814631502E+02 -0.82708837409E+02 -0.65962928461E+02  0.12162129690E+03  0.47000000000E+01 0.  1.
         -5    1    3    3    0  502 -0.63286917913E+01  0.39226193057E+02 -0.16947799299E+02  0.43451863742E+02  0.47000000000E+01 0.  1.
        -11    1    1    2    0    0 -0.22524453747E+02  0.54732099624E+02 -0.27126025271E+02  0.65105875256E+02  0.00000000000E+00 0.  1.
         11    1    1    2    0    0 -0.30961485964E+02 -0.11249455272E+02 -0.10220056241E+03  0.10737839081E+03  0.00000000000E+00 0. -1.
<mgrwt>
<rscale>  0 0.13497720E+03</rscale>
<asrwt>0</asrwt>
<pdfrwt beam="2">  1        1 0.42291903E-01 0.14274088E+03</pdfrwt>
<pdfrwt beam="1">  1       -1 0.96400085E-02 0.14274088E+03</pdfrwt>
<totfact> 0.60496646E+03</totfact>
</mgrwt>
</event>
<event>
 6    1  0.8712071E-006  0.4522162E+03  0.7546771E-02  0.1027063E+00
          2   -1    0    0  501    0  0.00000000000E+00  0.00000000000E+00  0.46623962168E+03  0.46623962168E+03  0.00000000000E+00 0. -1.
         -2   -1    0    0    0  501 -0.00000000000E+00 -0.00000000000E+00 -0.10965363580E+03  0.10965363580E+03  0.00000000000E+00 0.  1.
          5    1    1    2  502    0 -0.23069993349E+01  0.15823296993E+02  0.50355616410E+02  0.53042219766E+02  0.47000000000E+01 0. -1.
         -5    1    1    2    0  502  0.64077865562E+02  0.36740959667E+02 -0.85086776554E+02  0.11277287137E+03  0.47000000000E+01 0.  1.
        -11    1    1    2    0    0 -0.75647091782E+02 -0.89916746285E+01  0.26529393844E+03  0.27601486641E+03  0.00000000000E+00 0. -1.
         11    1    1    2    0    0  0.13876225555E+02 -0.43572582031E+02  0.12602320758E+03  0.13406329993E+03  0.00000000000E+00 0.  1.
<mgrwt>
<rscale>  0 0.45221619E+03</rscale>
<asrwt>0</asrwt>
<pdfrwt beam="1">  1        2 0.71729172E-01 0.45221619E+03</pdfrwt>
<pdfrwt beam="2">  1       -2 0.16869790E-01 0.45221619E+03</pdfrwt>
<totfact> 0.19048623E+03</totfact>
</mgrwt>
</event>
<event>
 7    1  0.8712071E-006  0.1402185E+03  0.7546771E-02  0.1226841E+00
          3   -1    0    0  501    0  0.00000000000E+00  0.00000000000E+00  0.35245090432E+03  0.35245090432E+03  0.00000000000E+00 0. -1.
         -3   -1    0    0    0  501 -0.00000000000E+00 -0.00000000000E+00 -0.44148650632E+02  0.44148650632E+02  0.00000000000E+00 0.  1.
         23    2    1    2    0    0  0.34316072886E+02 -0.53463868413E+02  0.13914640484E+03  0.19754224412E+03  0.12500095259E+03 0.  0.
          5    1    3    3  502    0  0.23945174199E+02 -0.11917784940E+02 -0.19317999539E+02  0.33326867112E+02  0.47000000000E+01 0. -1.
         -5    1    3    3    0  502  0.10370898687E+02 -0.41546083472E+02  0.15846440438E+03  0.16421537701E+03  0.47000000000E+01 0. -1.
        -11    1    1    2    0    0 -0.52498046766E+01  0.68281649173E+02  0.87418171137E+02  0.11104900138E+03  0.00000000000E+00 0.  1.
         11    1    1    2    0    0 -0.29066268209E+02 -0.14817780760E+02  0.81737677712E+02  0.88008309449E+02  0.00000000000E+00 0. -1.
<mgrwt>
<rscale>  0 0.13041509E+03</rscale>
<asrwt>0</asrwt>
<pdfrwt beam="1">  1        3 0.54223214E-01 0.14021846E+03</pdfrwt>
<pdfrwt beam="2">  1       -3 0.67921003E-02 0.14021846E+03</pdfrwt>
<totfact> 0.10948337E+03</totfact>
</mgrwt>
</event>
<event>
 7    1  0.8712071E-006  0.3042566E+03  0.7546771E-02  0.1084775E+00
         -1   -1    0    0    0  501 -0.00000000000E+00  0.00000000000E+00  0.11561532956E+03  0.11561532956E+03  0.00000000000E+00 0.  1.
          1   -1    0    0  501    0  0.00000000000E+00 -0.00000000000E+00 -0.98036665877E+03  0.98036665877E+03  0.00000000000E+00 0. -1.
         23    2    1    2    0    0 -0.25658444965E+03  0.10541275635E+03 -0.69562003698E+03  0.75924917075E+03  0.12499855374E+03 0.  0.
          5    1    3    3  502    0 -0.12542668396E+02  0.52735899037E+02 -0.13348261676E+03  0.14414608061E+03  0.47000000000E+01 0.  1.
         -5    1    3    3    0  502 -0.24404178126E+03  0.52676857314E+02 -0.56213742022E+03  0.61510309015E+03  0.47000000000E+01 0.  1.
        -11    1    1    2    0    0  0.44791068184E+02 -0.14966317273E+02  0.57316826087E+01  0.47571868024E+02  0.00000000000E+00 0.  1.
         11    1    1    2    0    0  0.21179338147E+03 -0.90446439078E+02 -0.17486297484E+03  0.28916094955E+03  0.00000000000E+00 0. -1.
<mgrwt>
<rscale>  0 0.30093241E+03</rscale>
<asrwt>0</asrwt>
<pdfrwt beam="2">  1        1 0.15082565E+00 0.30425658E+03</pdfrwt>
<pdfrwt beam="1">  1       -1 0.17786973E-01 0.30425658E+03</pdfrwt>
<totfact> 0.40503087E+02</totfact>
</mgrwt>
</event>
<event>
 7    1  0.8712071E-006  0.1731173E+03  0.7546771E-02  0.1180840E+00
          1   -1    0    0  501    0  0.00000000000E+00  0.00000000000E+00  0.61708059606E+03  0.61708059606E+03  0.00000000000E+00 0. -1.
         -1   -1    0    0    0  501 -0.00000000000E+00 -0.00000000000E+00 -0.61315176087E+02  0.61315176087E+02  0.00000000000E+00 0.  1.
         23    2    1    2    0    0 -0.10599838556E+03  0.55415746181E+02  0.10338607816E+03  0.20163900053E+03  0.12515207834E+03 0.  0.
          5    1    3    3  502    0 -0.64659183901E+02  0.29454063491E+01 -0.14098459502E+02  0.66410406124E+02  0.47000000000E+01 0.  1.
         -5    1    3    3    0  502 -0.41339201655E+02  0.52470339832E+02  0.11748453766E+03  0.13522859440E+03  0.47000000000E+01 0.  1.
        -11    1    1    2    0    0  0.90103109780E+02  0.16034393607E+01  0.24304066782E+03  0.25921016111E+03  0.00000000000E+00 0.  1.
         11    1    1    2    0    0  0.15895275776E+02 -0.57019185542E+02  0.20933867400E+03  0.21754661051E+03  0.00000000000E+00 0. -1.
<mgrwt>
<rscale>  0 0.16716247E+03</rscale>
<asrwt>0</asrwt>
<pdfrwt beam="1">  1        1 0.94935472E-01 0.17311732E+03</pdfrwt>
<pdfrwt beam="2">  1       -1 0.94331044E-02 0.17311732E+03</pdfrwt>
<totfact> 0.22314973E+03</totfact>
</mgrwt>
</event>
<event>
 7    1  0.8712071E-006  0.1886746E+03  0.7546771E-02  0.1163485E+00
         -2   -1    0    0    0  501 -0.00000000000E+00  0.00000000000E+00  0.66723978593E+02  0.66723978593E+02  0.00000000000E+00 0. -1.
          2   -1    0    0  501    0  0.00000000000E+00 -0.00000000000E+00 -0.49341280620E+03  0.49341280620E+03  0.00000000000E+00 0.  1.
         23    2    1    2    0    0 -0.10852394044E+03 -0.90528330554E+02 -0.19679087466E+03  0.27262563239E+03  0.12500105122E+03 0.  0.
          5    1    3    3  502    0 -0.13213474572E+03 -0.50940719148E+02 -0.15770669738E+03  0.21200952878E+03  0.47000000000E+01 0. -1.
         -5    1    3    3    0  502  0.23610805288E+02 -0.39587611405E+02 -0.39084177282E+02  0.60616103610E+02  0.47000000000E+01 0. -1.
        -11    1    1    2    0    0  0.11317700722E+03  0.44595688740E+02 -0.13339150049E+03  0.18053006071E+03  0.00000000000E+00 0. -1.
         11    1    1    2    0    0 -0.46530667791E+01  0.45932641814E+02 -0.96506452451E+02  0.10698109169E+03  0.00000000000E+00 0.  1.
<mgrwt>
<rscale>  0 0.18453532E+03</rscale>
<asrwt>0</asrwt>
<pdfrwt beam="2">  1        2 0.75909663E-01 0.18867455E+03</pdfrwt>
<pdfrwt beam="1">  1       -2 0.10265227E-01 0.18867455E+03</pdfrwt>
<totfact> 0.39500431E+03</totfact>
</mgrwt>
</event>
<event>
 7    1  0.8712071E-006  0.1427260E+03  0.7546771E-02  0.1219770E+00
         -4   -1    0    0    0  501 -0.00000000000E+00  0.00000000000E+00  0.28651195192E+02  0.28651195192E+02  0.00000000000E+00 0.  1.
          4   -1    0    0  501    0  0.00000000000E+00 -0.00000000000E+00 -0.58652239210E+03  0.58652239210E+03  0.00000000000E+00 0. -1.
         23    2    1    2    0    0 -0.45754408030E+02 -0.51490322037E+02 -0.33781767763E+03  0.36673082628E+03  0.12500398594E+03 0.  0.
          5    1    3    3  502    0  0.57429081690E+01 -0.51555489054E+02 -0.43376416684E+02  0.67783131900E+02  0.47000000000E+01 0.  1.
         -5    1    3    3    0  502 -0.51497316199E+02  0.65167017020E-01 -0.29444126095E+03  0.29894769437E+03  0.47000000000E+01 0.  1.
        -11    1    1    2    0    0 -0.12965540816E+02  0.34222798790E+02 -0.25804748530E+02  0.44779350736E+02  0.00000000000E+00 0.  1.
         11    1    1    2    0    0  0.58719948845E+02  0.17267523247E+02 -0.19424877075E+03  0.20366341028E+03  0.00000000000E+00 0. -1.
<mgrwt>
<rscale>  0 0.13531933E+03</rscale>
<asrwt>0</asrwt>
<pdfrwt beam="2">  1        4 0.90234214E-01 0.14272602E+03</pdfrwt>
<pdfrwt beam="1">  1       -4 0.44078762E-02 0.14272602E+03</pdfrwt>
<totfact> 0.53188495E+02</totfact>
</mgrwt>
</event>
<event>
 7    1  0.8712071E-006  0.1279223E+03  0.7546771E-02  0.1244636E+00
         -2   -1    0    0    0  501 -0.00000000000E+00  0.00000000000E+00  0.11742635106E+03  0.11742635106E+03  0.00000000000E+00 0.  1.
          2   -1    0    0  501    0  0.00000000000E+00 -0.00000000000E+00 -0.11021965144E+03  0.11021965144E+03  0.00000000000E+00 0. -1.
         23    2    1    2    0    0  0.23006064895E+02 -0.15198761822E+02  0.24019920471E+02  0.13015785518E+03  0.12491528851E+03 0.  0.
          5    1    3    3  502    0 -0.16268215714E+02 -0.30119537794E+01 -0.45838417484E+02  0.48958934073E+02  0.47000000000E+01 0.  1.
         -5    1    3    3    0  502  0.39274280609E+02 -0.12186808043E+02  0.69858337955E+02  0.81198921110E+02  0.47000000000E+01 0.  1.
        -11    1    1    2    0    0 -0.22383907055E+02  0.48040792794E+02  0.11371467254E+02  0.54205786913E+02  0.00000000000E+00 0.  1.
         11    1    1    2    0    0 -0.62215784002E+00 -0.32842030972E+02 -0.28184688102E+02  0.43282360404E+02  0.00000000000E+00 0. -1.
<mgrwt>
<rscale>  0 0.11907166E+03</rscale>
<asrwt>0</asrwt>
<pdfrwt beam="2">  1        2 0.16956869E-01 0.12792228E+03</pdfrwt>
<pdfrwt beam="1">  1       -2 0.18065592E-01 0.12792228E+03</pdfrwt>
<totfact> 0.79231723E+03</totfact>
</mgrwt>
</event>
<event>
 6    1  0.8712071E-006  0.2163277E+03  0.7546771E-02  0.1148776E+00
          1   -1    0    0  501    0  0.00000000000E+00  0.00000000000E+00  0.74604699102E+02  0.74604699102E+02  0.00000000000E+00 0. -1.
         -1   -1    0    0    0  501 -0.00000000000E+00 -0.00000000000E+00 -0.52210945323E+03  0.52210945323E+03  0.00000000000E+00 0.  1.
          5    1    1    2  502    0  0.64115337631E+00  0.58792844925E+02 -0.50846987289E+01  0.59202650727E+02  0.47000000000E+01 0. -1.
         -5    1    1    2    0  502  0.35461423625E+02  0.69845641738E+02 -0.33336155007E+03  0.34247326801E+03  0.47000000000E+01 0.  1.
        -11    1    1    2    0    0 -0.59360145787E+02 -0.98619141072E+02 -0.51547606804E+02  0.12612104369E+03  0.00000000000E+00 0.  1.
         11    1    1    2    0    0  0.23257568786E+02 -0.30019345590E+02 -0.57510898522E+02  0.68917189904E+02  0.00000000000E+00 0. -1.
<mgrwt>
<rscale>  0 0.20114540E+03</rscale>
<asrwt>0</asrwt>
<pdfrwt beam="1">  1        1 0.11477646E-01 0.21632772E+03</pdfrwt>
<pdfrwt beam="2">  1       -1 0.80324532E-01 0.21632772E+03</pdfrwt>
<totfact> 0.85905818E+02</totfact>
</mgrwt>
</event>
<event>
 7    1  0.8712071E-006  0.1261249E+03  0.7546771E-02  0.1245669E+00
         -1   -1    0    0    0  501 -0.00000000000E+00  0.00000000000E+00  0.58833129034E+02  0.58833129034E+02  0.00000000000E+00 0.  1.
          1   -1    0    0  501    0  0.00000000000E+00 -0.00000000000E+00 -0.29557696983E+03  0.29557696983E+03  0.00000000000E+00 0. -1.
         23    2    1    2    0    0 -0.53696366153E+01  0.15988117941E+02 -0.36316396931E+02  0.13124925870E+03  0.12499213700E+03 0.  0.
          5    1    3    3  502    0  0.25280453450E+02  0.35011821204E+02 -0.69533098627E+02  0.81987015772E+02  0.47000000000E+01 0.  1.
         -5    1    3    3    0  502 -0.30650090065E+02 -0.19023703263E+02  0.33216701695E+02  0.49262242929E+02  0.47000000000E+01 0.  1.
        -11    1    1    2    0    0  0.47002944220E+01  0.27354729168E+02 -0.12752934980E+02  0.30545234098E+02  0.00000000000E+00 0.  1.
         11    1    1    2    0    0  0.66934219332E+00 -0.43342847109E+02 -0.18767450888E+03  0.19261560606E+03  0.00000000000E+00 0. -1.
<mgrwt>
<rscale>  0 0.11845452E+03</rscale>
<asrwt>0</asrwt>
<pdfrwt beam="2">  1        1 0.45473380E-01 0.12612489E+03</pdfrwt>
<pdfrwt beam="1">  1       -1 0.90512507E-02 0.12612489E+03</pdfrwt>
<totfact> 0.60398573E+03</totfact>
</mgrwt>
</event>
<event>
 7    1  0.8712071E-006  0.2221845E+03  0.7546771E-02  0.1134956E+00
         -2   -1    0    0    0  501 -0.00000000000E+00  0.00000000000E+00  0.28656610324E+02  0.28656610324E+02  0.00000000000E+00 0.  1.
          2   -1    0    0  501    0  0.00000000000E+00 -0.00000000000E+00 -0.16553948054E+04  0.16553948054E+04  0.00000000000E+00 0. -1.
         23    2    1    2    0    0  0.66687388846E+02 -0.17116098105E+03 -0.97096554606E+03  0.99606225979E+03  0.12499057761E+03 0.  0.
          5    1    3    3  502    0  0.37925408485E+01 -0.15452988020E+03 -0.61326258476E+03  0.63246103051E+03  0.47000000000E+01 0.  1.
         -5    1    3    3    0  502  0.62894847997E+02 -0.16631100851E+02 -0.35770296129E+03  0.36360122928E+03  0.47000000000E+01 0.  1.
        -11    1    1    2    0    0 -0.75265324677E+02  0.13599101815E+03 -0.61075127664E+03  0.63021865098E+03  0.00000000000E+00 0. -1.
         11    1    1    2    0    0  0.85779358314E+01  0.35169962897E+02 -0.45021372425E+02  0.57770505004E+02  0.00000000000E+00 0.  1.
<mgrwt>
<rscale>  0 0.21856738E+03</rscale>
<asrwt>0</asrwt>
<pdfrwt beam="2">  1        2 0.25467615E+00 0.22218446E+03</pdfrwt>
<pdfrwt beam="1">  1       -2 0.44087088E-02 0.22218446E+03</pdfrwt>
<totfact> 0.26756067E+03</totfact>
</mgrwt>
</event>
<event>
 7    1  0.8712071E-006  0.1269599E+03  0.7546771E-02  0.1247036E+00
         -2   -1    0    0    0  501 -0.00000000000E+00  0.00000000000E+00  0.12908349369E+03  0.12908349369E+03  0.00000000000E+00 0.  1.
          2   -1    0    0  501    0  0.00000000000E+00 -0.00000000000E+00 -0.13024561203E+03  0.13024561203E+03  0.00000000000E+00 0. -1.
         23    2    1    2    0    0 -0.18904194195E+02 -0.11752305872E+02  0.66987253339E+02  0.14354831478E+03  0.12499336509E+03 0.  0.
          5    1    3    3  502    0  0.35181120427E+02  0.38797255234E+02  0.31744799122E+02  0.61422801300E+02  0.47000000000E+01 0. -1.
         -5    1    3    3    0  502 -0.54085314621E+02 -0.50549561106E+02  0.35242454217E+02  0.82125513483E+02  0.47000000000E+01 0. -1.
        -11    1    1    2    0    0  0.45307487741E+01  0.24013630341E+02  0.16214509417E+02  0.29327332682E+02  0.00000000000E+00 0.  1.
         11    1    1    2    0    0  0.14373445420E+02 -0.12261324468E+02 -0.84363881095E+02  0.86453458256E+02  0.00000000000E+00 0. -1.
<mgrwt>
<rscale>  0 0.11764361E+03</rscale>
<asrwt>0</asrwt>
<pdfrwt beam="2">  1        2 0.20037786E-01 0.12695994E+03</pdfrwt>
<pdfrwt beam="1">  1       -2 0.19858999E-01 0.12695994E+03</pdfrwt>
<totfact> 0.55854252E+03</totfact>
</mgrwt>
</event>
<event>
 7    1  0.8712071E-006  0.2385981E+03  0.7546771E-02  0.1121824E+00
          2   -1    0    0  501    0  0.00000000000E+00  0.00000000000E+00  0.87780726842E+03  0.87780726842E+03  0.00000000000E+00 0. -1.
         -2   -1    0    0    0  501 -0.00000000000E+00 -0.00000000000E+00 -0.97412569171E+02  0.97412569171E+02  0.00000000000E+00 0.  1.
         23    2    1    2    0    0 -0.19293050215E+03 -0.64508482819E+02  0.10435059343E+03  0.26041912924E+03  0.12468180905E+03 0.  0.
          5    1    3    3  502    0 -0.12419578243E+03  0.16072102188E+02  0.88040750268E+02  0.15315406802E+03  0.47000000000E+01 0. -1.
         -5    1    3    3    0  502 -0.68734719720E+02 -0.80580585007E+02  0.16309843166E+02  0.10726506122E+03  0.47000000000E+01 0. -1.
        -11    1    1    2    0    0  0.60335662018E+02  0.61926402713E+02  0.15864267022E+03  0.18067309783E+03  0.00000000000E+00 0.  1.
         11    1    1    2    0    0  0.13259484013E+03  0.25820801051E+01  0.51740143559E+03  0.53412761052E+03  0.00000000000E+00 0. -1.
<mgrwt>
<rscale>  0 0.23697545E+03</rscale>
<asrwt>0</asrwt>
<pdfrwt beam="1">  1        2 0.13504727E+00 0.23859815E+03</pdfrwt>
<pdfrwt beam="2">  1       -2 0.14986550E-01 0.23859815E+03</pdfrwt>
<totfact> 0.10792917E+03</totfact>
</mgrwt>
</event>
<event>
 7    1  0.8712071E-006  0.1310515E+03  0.7546771E-02  0.1239137E+00
          2   -1    0    0  501    0  0.00000000000E+00  0.00000000000E+00  0.19636118093E+03  0.19636118093E+03  0.00000000000E+00 0. -1.
         -2   -1    0    0    0  501 -0.00000000000E+00 -0.00000000000E+00 -0.68365396165E+02  0.68365396165E+02  0.00000000000E+00 0.  1.
         23    2    1    2    0    0  0.60061543292E+01 -0.38895767462E+02  0.61399476998E+02  0.14472176021E+03  0.12500214992E+03 0.  0.
          5    1    3    3  502    0 -0.27493999704E+02 -0.23344799314E+02 -0.29281763238E+02  0.46694874805E+02  0.47000000000E+01 0. -1.
         -5    1    3    3    0  502  0.33500154033E+02 -0.15550968148E+02  0.90681240236E+02  0.98026885400E+02  0.47000000000E+01 0. -1.
        -11    1    1    2    0    0 -0.36925221871E+02  0.14115835734E+02  0.69836637821E+02  0.80248892895E+02  0.00000000000E+00 0. -1.
         11    1    1    2    0    0  0.30919067542E+02  0.24779931728E+02 -0.32403300500E+01  0.39755923999E+02  0.00000000000E+00 0.  1.
<mgrwt>
<rscale>  0 0.12243259E+03</rscale>
<asrwt>0</asrwt>
<pdfrwt beam="1">  1        2 0.30209412E-01 0.13105149E+03</pdfrwt>
<pdfrwt beam="2">  1       -2 0.10517753E-01 0.13105149E+03</pdfrwt>
<totfact> 0.10013162E+04</totfact>
</mgrwt>
</event>
<event>
 7    1  0.8712071E-006  0.2053619E+03  0.7546771E-02  0.1149333E+00
         -1   -1    0    0    0  501 -0.00000000000E+00  0.00000000000E+00  0.27221266468E+03  0.27221266468E+03  0.00000000000E+00 0.  1.
          1   -1    0    0  501    0  0.00000000000E+00 -0.00000000000E+00 -0.14169549894E+03  0.14169549894E+03  0.00000000000E+00 0. -1.
         23    2    1    2    0    0 -0.15834818716E+03 -0.38349756544E+02  0.82399396820E+02  0.22127620117E+03  0.12501457677E+03 0.  0.
          5    1    3    3  502    0  0.20633264245E+02  0.34438337962E+01  0.69182909395E+01  0.22528744620E+02  0.47000000000E+01 0.  1.
         -5    1    3    3    0  502 -0.17898145141E+03 -0.41793590341E+02  0.75481105881E+02  0.19874745655E+03  0.47000000000E+01 0.  1.
        -11    1    1    2    0    0  0.67105657774E+02 -0.26019028289E+01  0.62320180720E+02  0.91617378966E+02  0.00000000000E+00 0.  1.
         11    1    1    2    0    0  0.91242529387E+02  0.40951659373E+02 -0.14202411803E+02  0.10101458348E+03  0.00000000000E+00 0. -1.
<mgrwt>
<rscale>  0 0.20048154E+03</rscale>
<asrwt>0</asrwt>
<pdfrwt beam="2">  1        1 0.21799308E-01 0.20536187E+03</pdfrwt>
<pdfrwt beam="1">  1       -1 0.41878872E-01 0.20536187E+03</pdfrwt>
<totfact> 0.12902276E+03</totfact>
</mgrwt>
</event>
<event>
 7    1  0.8712071E-006  0.1303216E+03  0.7546771E-02  0.1239527E+00
          4   -1    0    0  501    0  0.00000000000E+00  0.00000000000E+00  0.44545009671E+02  0.44545009671E+02  0.00000000000E+00 0. -1.
         -4   -1    0    0    0  501 -0.00000000000E+00 -0.00000000000E+00 -0.30074820191E+03  0.30074820191E+03  0.00000000000E+00 0.  1.
         23    2    1    2    0    0  0.26078271601E+02 -0.26019485093E+02 -0.15514312612E+03  0.20261569679E+03  0.12500656443E+03 0.  0.
          5    1    3    3  502    0 -0.22390831171E+02  0.19314756771E+02 -0.12681842737E+03  0.13030507539E+03  0.47000000000E+01 0.  1.
         -5    1    3    3    0  502  0.48469102771E+02 -0.45334241864E+02 -0.28324698741E+02  0.72310621403E+02  0.47000000000E+01 0.  1.
        -11    1    1    2    0    0 -0.32895118635E+02 -0.36702348343E+01  0.39539007392E+01  0.33334558416E+02  0.00000000000E+00 0. -1.
         11    1    1    2    0    0  0.68168470343E+01  0.29689719928E+02 -0.10501396686E+03  0.10934295637E+03  0.00000000000E+00 0.  1.
<mgrwt>
<rscale>  0 0.12219042E+03</rscale>
<asrwt>0</asrwt>
<pdfrwt beam="1">  1        4 0.68530781E-02 0.13032164E+03</pdfrwt>
<pdfrwt beam="2">  1       -4 0.46268956E-01 0.13032164E+03</pdfrwt>
<totfact> 0.10615505E+03</totfact>
</mgrwt>
</event>
<event>
 7    1  0.8712071E-006  0.1303997E+03  0.7546771E-02  0.1240395E+00
          1   -1    0    0  501    0  0.00000000000E+00  0.00000000000E+00  0.91492762074E+03  0.91492762074E+03  0.00000000000E+00 0. -1.
         -1   -1    0    0    0  501 -0.00000000000E+00 -0.00000000000E+00 -0.14436652977E+02  0.14436652977E+02  0.00000000000E+00 0.  1.
         23    2    1    2    0    0 -0.36723011952E+02 -0.55995141029E+01  0.54736318071E+03  0.56268154925E+03  0.12499656033E+03 0.  0.
          5    1    3    3  502    0 -0.16673323668E+02 -0.30965769402E+02  0.51656143050E+03  0.51777860141E+03  0.47000000000E+01 0. -1.
         -5    1    3    3    0  502 -0.20049688284E+02  0.25366255299E+02  0.30801750218E+02  0.44902947840E+02  0.47000000000E+01 0. -1.
        -11    1    1    2    0    0  0.58479326231E+02 -0.21413579865E+02  0.25857800310E+03  0.26597172159E+03  0.00000000000E+00 0. -1.
         11    1    1    2    0    0 -0.21756314279E+02  0.27013093968E+02  0.94549783950E+02  0.10071100288E+03  0.00000000000E+00 0.  1.
<mgrwt>
<rscale>  0 0.12165272E+03</rscale>
<asrwt>0</asrwt>
<pdfrwt beam="1">  1        1 0.14075805E+00 0.13039967E+03</pdfrwt>
<pdfrwt beam="2">  1       -1 0.22210243E-02 0.13039967E+03</pdfrwt>
<totfact> 0.10485877E+04</totfact>
</mgrwt>
</event>
<event>
 7    1  0.8712071E-006  0.1486099E+03  0.7546771E-02  0.1221129E+00
          1   -1    0    0  501    0  0.00000000000E+00  0.00000000000E+00  0.35780876162E+02  0.35780876162E+02  0.00000000000E+00 0. -1.
         -1   -1    0    0    0  501 -0.00000000000E+00 -0.00000000000E+00 -0.43477140107E+03  0.43477140107E+03  0.00000000000E+00 0.  1.
         23    2    1    2    0    0 -0.60304395025E+02 -0.53199577638E+02 -0.21301311115E+03  0.25972961630E+03  0.12497228870E+03 0.  0.
          5    1    3    3  502    0 -0.71841274407E+02 -0.29898426521E+02 -0.45743627444E+02  0.90386138697E+02  0.47000000000E+01 0. -1.
         -5    1    3    3    0  502  0.11536879382E+02 -0.23301151117E+02 -0.16726948370E+03  0.16934347761E+03  0.47000000000E+01 0. -1.
        -11    1    1    2    0    0  0.36240062445E+02 -0.18825989296E+01 -0.95848790382E+02  0.10248842336E+03  0.00000000000E+00 0.  1.
         11    1    1    2    0    0  0.24064332580E+02  0.55082176568E+02 -0.90128623379E+02  0.10833423757E+03  0.00000000000E+00 0. -1.
<mgrwt>
<rscale>  0 0.13435771E+03</rscale>
<asrwt>0</asrwt>
<pdfrwt beam="1">  1        1 0.55047499E-02 0.14860985E+03</pdfrwt>
<pdfrwt beam="2">  1       -1 0.66887911E-01 0.14860985E+03</pdfrwt>
<totfact> 0.33067166E+03</totfact>
</mgrwt>
</event>
<event>
 7    1  0.8712071E-006  0.1372324E+03  0.7546771E-02  0.1228956E+00
          2   -1    0    0  501    0  0.00000000000E+00  0.00000000000E+00  0.49707924337E+03  0.49707924337E+03  0.00000000000E+00 0. -1.
         -2   -1    0    0    0  501 -0.00000000000E+00 -0.00000000000E+00 -0.35068247756E+02  0.35068247756E+02  0.00000000000E+00 0.  1.
         23    2    1    2    0    0 -0.54235016791E+02  0.17598394134E+02  0.15519835676E+03  0.20716964468E+03  0.12482624409E+03 0.  0.
          5    1    3    3  502    0 -0.88312003469E+02  0.38932995374E+02  0.11337784757E+03  0.14896783010E+03  0.47000000000E+01 0. -1.
         -5    1    3    3    0  502  0.34076986678E+02 -0.21334601240E+02  0.41820509195E+02  0.58201814580E+02  0.47000000000E+01 0. -1.
        -11    1    1    2    0    0  0.36657269536E+02  0.28629890630E+02  0.22180887305E+03  0.22663318868E+03  0.00000000000E+00 0.  1.
         11    1    1    2    0    0  0.17577747256E+02 -0.46228284763E+02  0.85003765799E+02  0.98344657764E+02  0.00000000000E+00 0. -1.
<mgrwt>
<rscale>  0 0.12899390E+03</rscale>
<asrwt>0</asrwt>
<pdfrwt beam="1">  1        2 0.76473725E-01 0.13723240E+03</pdfrwt>
<pdfrwt beam="2">  1       -2 0.53951154E-02 0.13723240E+03</pdfrwt>
<totfact> 0.10399945E+04</totfact>
</mgrwt>
</event>
<event>
 7    1  0.8712071E-006  0.1720917E+03  0.7546771E-02  0.1186137E+00
          1   -1    0    0  501    0  0.00000000000E+00  0.00000000000E+00  0.75267456751E+02  0.75267456751E+02  0.00000000000E+00 0. -1.
         -1   -1    0    0    0  501 -0.00000000000E+00 -0.00000000000E+00 -0.50374798166E+03  0.50374798166E+03  0.00000000000E+00 0.  1.
         23    2    1    2    0    0  0.10116645849E+03 -0.61292713362E+02 -0.40613447994E+03  0.44109041402E+03  0.12499635400E+03 0.  0.
          5    1    3    3  502    0 -0.21684972148E+02  0.15482257787E+02 -0.58809777245E+02  0.64734984536E+02  0.47000000000E+01 0.  1.
         -5    1    3    3    0  502  0.12285143063E+03 -0.76774971149E+02 -0.34732470269E+03  0.37635542949E+03  0.47000000000E+01 0.  1.
        -11    1    1    2    0    0 -0.52965155381E+02  0.62648864837E+02 -0.33195246072E+02  0.88499222096E+02  0.00000000000E+00 0.  1.
         11    1    1    2    0    0 -0.48201303106E+02 -0.13561514743E+01  0.10849201099E+02  0.49425802294E+02  0.00000000000E+00 0. -1.
<mgrwt>
<rscale>  0 0.16228807E+03</rscale>
<asrwt>0</asrwt>
<pdfrwt beam="1">  1        1 0.11579609E-01 0.17209165E+03</pdfrwt>
<pdfrwt beam="2">  1       -1 0.77499686E-01 0.17209165E+03</pdfrwt>
<totfact> 0.91047257E+02</totfact>
</mgrwt>
</event>
<event>
 7    1  0.8712071E-006  0.1282882E+03  0.7546771E-02  0.1245032E+00
         -1   -1    0    0    0  501 -0.00000000000E+00  0.00000000000E+00  0.34640268882E+03  0.34640268882E+03  0.00000000000E+00 0.  1.
          1   -1    0    0  501    0  0.00000000000E+00 -0.00000000000E+00 -0.40987985673E+02  0.40987985673E+02  0.00000000000E+00 0. -1.
         23    2    1    2    0    0  0.22657772286E+02 -0.17866296896E+02  0.24114585519E+03  0.27314682515E+03  0.12500114162E+03 0.  0.
          5    1    3    3  502    0 -0.24664813921E+02 -0.69635008610E+01 -0.10579943710E+01  0.26077820885E+02  0.47000000000E+01 0.  1.
         -5    1    3    3    0  502  0.47322586208E+02 -0.10902796035E+02  0.24220384956E+03  0.24706900427E+03  0.47000000000E+01 0.  1.
        -11    1    1    2    0    0 -0.36362221784E+02  0.32072315909E+02  0.15695927693E+01  0.48510908488E+02  0.00000000000E+00 0. -1.
         11    1    1    2    0    0  0.13704449498E+02 -0.14206019012E+02  0.62699255182E+02  0.65732940849E+02  0.00000000000E+00 0.  1.
<mgrwt>
<rscale>  0 0.11883457E+03</rscale>
<asrwt>0</asrwt>
<pdfrwt beam="2">  1        1 0.63058442E-02 0.12828821E+03</pdfrwt>
<pdfrwt beam="1">  1       -1 0.53292720E-01 0.12828821E+03</pdfrwt>
<totfact> 0.41947230E+03</totfact>
</mgrwt>
</event>
<event>
 7    1  0.8712071E-006  0.1455436E+03  0.7546771E-02  0.1215803E+00
         -2   -1    0    0    0  501 -0.00000000000E+00  0.00000000000E+00  0.49836193972E+02  0.49836193972E+02  0.00000000000E+00 0.  1.
          2   -1    0    0  501    0  0.00000000000E+00 -0.00000000000E+00 -0.39734766197E+03  0.39734766197E+03  0.00000000000E+00 0. -1.
         23    2    1    2    0    0  0.48104764163E+02  0.56970866294E+02 -0.11197280981E+03  0.18363239827E+03  0.12499279825E+03 0.  0.
          5    1    3    3  502    0  0.56916128099E+01  0.90436495087E+02 -0.62072913334E+02  0.10993766720E+03  0.47000000000E+01 0. -1.
         -5    1    3    3    0  502  0.42413151353E+02 -0.33465628793E+02 -0.49899896477E+02  0.73694731064E+02  0.47000000000E+01 0. -1.
        -11    1    1    2    0    0 -0.65062494735E+02 -0.28504879278E+02 -0.91961408096E+02  0.11620050320E+03  0.00000000000E+00 0.  1.
         11    1    1    2    0    0  0.16957730572E+02 -0.28465987015E+02 -0.14357725009E+03  0.14735095448E+03  0.00000000000E+00 0. -1.
<mgrwt>
<rscale>  0 0.13817734E+03</rscale>
<asrwt>0</asrwt>
<pdfrwt beam="2">  1        2 0.61130409E-01 0.14554363E+03</pdfrwt>
<pdfrwt beam="1">  1       -2 0.76671069E-02 0.14554363E+03</pdfrwt>
<totfact> 0.77864427E+03</totfact>
</mgrwt>
</event>
<event>
 7    1  0.8712071E-006  0.4340298E+03  0.7546771E-02  0.1032818E+00
         -3   -1    0    0    0  501 -0.00000000000E+00  0.00000000000E+00  0.19065137771E+04  0.19065137771E+04  0.00000000000E+00 0.  1.
          3   -1    0    0  501    0  0.00000000000E+00 -0.00000000000E+00 -0.10372937135E+03  0.10372937135E+03  0.00000000000E+00 0. -1.
         23    2    1    2    0    0 -0.37740173030E+03  0.17414304354E+03  0.11371003965E+04  0.12171192234E+04  0.12499610627E+03 0.  0.
          5    1    3    3  502    0 -0.18505393439E+03  0.74316950541E+02  0.37450319476E+03  0.42431438894E+03  0.47000000000E+01 0. -1.
         -5    1    3    3    0  502 -0.19234779590E+03  0.99826092997E+02  0.76259720178E+03  0.79280483450E+03  0.47000000000E+01 0. -1.
        -11    1    1    2    0    0  0.49157437705E+02 -0.13349775872E+02  0.16856909221E+03  0.17609715798E+03  0.00000000000E+00 0.  1.
         11    1    1    2    0    0  0.32824429259E+03 -0.16079326767E+03  0.49711491695E+03  0.61702676701E+03  0.00000000000E+00 0. -1.
<mgrwt>
<rscale>  0 0.43331391E+03</rscale>
<asrwt>0</asrwt>
<pdfrwt beam="2">  1        3 0.15958366E-01 0.43402983E+03</pdfrwt>
<pdfrwt beam="1">  1       -3 0.29330979E+00 0.43402983E+03</pdfrwt>
<totfact> 0.38867153E+00</totfact>
</mgrwt>
</event>
<event>
 7    1  0.8712071E-006  0.1516964E+03  0.7546771E-02  0.1207152E+00
         -1   -1    0    0    0  501 -0.00000000000E+00  0.00000000000E+00  0.49383060296E+02  0.49383060296E+02  0.00000000000E+00 0.  1.
          1   -1    0    0  501    0  0.00000000000E+00 -0.00000000000E+00 -0.51307802482E+03  0.51307802482E+03  0.00000000000E+00 0. -1.
         23    2    1    2    0    0 -0.79797808197E+02  0.31917371799E+02 -0.11067930878E+03  0.18778104636E+03  0.12500161265E+03 0.  0.
          5    1    3    3  502    0 -0.70550576465E+02  0.18680254736E+02  0.26790694883E+01  0.73181986649E+02  0.47000000000E+01 0. -1.
         -5    1    3    3    0  502 -0.92472317323E+01  0.13237117064E+02 -0.11335837827E+03  0.11459905971E+03  0.47000000000E+01 0. -1.
        -11    1    1    2    0    0 -0.14050368820E+02  0.24294254050E+01 -0.10033736531E+02  0.17435333107E+02  0.00000000000E+00 0.  1.
         11    1    1    2    0    0  0.93848177018E+02 -0.34346797204E+02 -0.34298191921E+03  0.35724470564E+03  0.00000000000E+00 0. -1.
<mgrwt>
<rscale>  0 0.14469168E+03</rscale>
<asrwt>0</asrwt>
<pdfrwt beam="2">  1        1 0.78935078E-01 0.15169645E+03</pdfrwt>
<pdfrwt beam="1">  1       -1 0.75973942E-02 0.15169645E+03</pdfrwt>
<totfact> 0.39588208E+03</totfact>
</mgrwt>
</event>
<event>
 7    1  0.8712071E-006  0.1299897E+03  0.7546771E-02  0.1241044E+00
         -1   -1    0    0    0  501 -0.00000000000E+00  0.00000000000E+00  0.53421846537E+02  0.53421846537E+02  0.00000000000E+00 0.  1.
          1   -1    0    0  501    0  0.00000000000E+00 -0.00000000000E+00 -0.26644452061E+03  0.26644452061E+03  0.00000000000E+00 0. -1.
         23    2    1    2    0    0  0.30756093630E+02 -0.18116409371E+02 -0.74125792536E+02  0.14963937501E+03  0.12499267119E+03 0.  0.
          5    1    3    3  502    0  0.36366248301E+02  0.40884114771E+01 -0.10478032984E+03  0.11108657275E+03  0.47000000000E+01 0.  1.
         -5    1    3    3    0  502 -0.56101546719E+01 -0.22204820848E+02  0.30654537307E+02  0.38552802257E+02  0.47000000000E+01 0.  1.
        -11    1    1    2    0    0 -0.31558831952E+02  0.51290358218E+02 -0.61788347456E+02  0.86281287667E+02  0.00000000000E+00 0.  1.
         11    1    1    2    0    0  0.80273832198E+00 -0.33173948846E+02 -0.77108534086E+02  0.83945704474E+02  0.00000000000E+00 0. -1.
<mgrwt>
<rscale>  0 0.12125325E+03</rscale>
<asrwt>0</asrwt>
<pdfrwt beam="2">  1        1 0.40991465E-01 0.12998965E+03</pdfrwt>
<pdfrwt beam="1">  1       -1 0.82187455E-02 0.12998965E+03</pdfrwt>
<totfact> 0.79593087E+03</totfact>
</mgrwt>
</event>
<event>
 7    1  0.8712071E-006  0.1881695E+03  0.7546771E-02  0.1165374E+00
         -1   -1    0    0    0  501 -0.00000000000E+00  0.00000000000E+00  0.78351651393E+03  0.78351651393E+03  0.00000000000E+00 0.  1.
          1   -1    0    0  501    0  0.00000000000E+00 -0.00000000000E+00 -0.40452231954E+02  0.40452231954E+02  0.00000000000E+00 0. -1.
         23    2    1    2    0    0  0.14025730106E+03  0.10512455550E+02  0.42870571229E+03  0.46818409970E+03  0.12500056496E+03 0.  0.
          5    1    3    3  502    0  0.50431475862E+02 -0.45308855867E+02  0.26228958952E+03  0.27095044740E+03  0.47000000000E+01 0.  1.
         -5    1    3    3    0  502  0.89825825193E+02  0.55821311418E+02  0.16641612277E+03  0.19723365229E+03  0.47000000000E+01 0.  1.
        -11    1    1    2    0    0 -0.30322694832E+02 -0.42163556077E+02  0.10795079014E+03  0.11979400809E+03  0.00000000000E+00 0.  1.
         11    1    1    2    0    0 -0.10993460622E+03  0.31651100527E+02  0.20640777955E+03  0.23599063809E+03  0.00000000000E+00 0. -1.
<mgrwt>
<rscale>  0 0.18253330E+03</rscale>
<asrwt>0</asrwt>
<pdfrwt beam="2">  1        1 0.62234209E-02 0.18816951E+03</pdfrwt>
<pdfrwt beam="1">  1       -1 0.12054099E+00 0.18816951E+03</pdfrwt>
<totfact> 0.79900622E+02</totfact>
</mgrwt>
</event>
<event>
 7    1  0.8712071E-006  0.1598638E+03  0.7546771E-02  0.1201423E+00
          1   -1    0    0  501    0  0.00000000000E+00  0.00000000000E+00  0.40760049663E+03  0.40760049663E+03  0.00000000000E+00 0. -1.
         -1   -1    0    0    0  501 -0.00000000000E+00 -0.00000000000E+00 -0.59403549254E+02  0.59403549254E+02  0.00000000000E+00 0.  1.
         23    2    1    2    0    0 -0.55704008737E+02  0.82630309939E+02  0.94356109725E+02  0.18563271618E+03  0.12500290062E+03 0.  0.
          5    1    3    3  502    0  0.25603605313E+02  0.68580722421E+02  0.24256883530E+02  0.77261546007E+02  0.47000000000E+01 0. -1.
         -5    1    3    3    0  502 -0.81307614050E+02  0.14049587518E+02  0.70099226195E+02  0.10837117017E+03  0.47000000000E+01 0. -1.
        -11    1    1    2    0    0  0.27962155850E+02  0.56590586654E+01  0.51592083399E+02  0.58954645060E+02  0.00000000000E+00 0. -1.
         11    1    1    2    0    0  0.27741852887E+02 -0.88289368604E+02  0.20224875425E+03  0.22241668464E+03  0.00000000000E+00 0.  1.
<mgrwt>
<rscale>  0 0.14922963E+03</rscale>
<asrwt>0</asrwt>
<pdfrwt beam="1">  1        1 0.62707767E-01 0.15986379E+03</pdfrwt>
<pdfrwt beam="2">  1       -1 0.91390078E-02 0.15986379E+03</pdfrwt>
<totfact> 0.40357398E+03</totfact>
</mgrwt>
</event>
<event>
 7    1  0.8712071E-006  0.1442808E+03  0.7546771E-02  0.1229343E+00
          2   -1    0    0  501    0  0.00000000000E+00  0.00000000000E+00  0.81138055641E+02  0.81138055641E+02  0.00000000000E+00 0. -1.
         -2   -1    0    0    0  501 -0.00000000000E+00 -0.00000000000E+00 -0.20146381454E+03  0.20146381454E+03  0.00000000000E+00 0.  1.
         23    2    1    2    0    0  0.58524976662E+02 -0.42042723363E+02 -0.12519118541E+03  0.19102296726E+03  0.12499671049E+03 0.  0.
          5    1    3    3  502    0  0.75033015986E+02 -0.25332751572E+02 -0.14137538111E+03  0.16211351015E+03  0.47000000000E+01 0.  1.
         -5    1    3    3    0  502 -0.16508039324E+02 -0.16709971791E+02  0.16184195700E+02  0.28909457104E+02  0.47000000000E+01 0.  1.
        -11    1    1    2    0    0 -0.41651204793E+02  0.50380383256E+01  0.22086061661E+02  0.47413065821E+02  0.00000000000E+00 0. -1.
         11    1    1    2    0    0 -0.16873771870E+02  0.37004685037E+02 -0.17220635145E+02  0.44165837099E+02  0.00000000000E+00 0.  1.
<mgrwt>
<rscale>  0 0.12873652E+03</rscale>
<asrwt>0</asrwt>
<pdfrwt beam="1">  1        2 0.12482778E-01 0.14428077E+03</pdfrwt>
<pdfrwt beam="2">  1       -2 0.30994433E-01 0.14428077E+03</pdfrwt>
<totfact> 0.44903648E+03</totfact>
</mgrwt>
</event>
<event>
 7    1  0.8712071E-006  0.1400320E+03  0.7546771E-02  0.1224868E+00
          1   -1    0    0  501    0  0.00000000000E+00  0.00000000000E+00  0.33903117691E+03  0.33903117691E+03  0.00000000000E+00 0. -1.
         -1   -1    0    0    0  501 -0.00000000000E+00 -0.00000000000E+00 -0.46051898553E+02  0.46051898553E+02  0.00000000000E+00 0.  1.
         23    2    1    2    0    0 -0.58966122623E+02  0.22518807826E+02  0.16991526073E+03  0.22018207639E+03  0.12499940245E+03 0.  0.
          5    1    3    3  502    0 -0.38635728361E+01 -0.49006636627E+02  0.53980667717E+02  0.73161329374E+02  0.47000000000E+01 0. -1.
         -5    1    3    3    0  502 -0.55102549787E+02  0.71525444453E+02  0.11593459301E+03  0.14702074702E+03  0.47000000000E+01 0. -1.
        -11    1    1    2    0    0  0.15238647924E+02  0.18646459695E+02  0.96097607602E+02  0.99068950921E+02  0.00000000000E+00 0. -1.
         11    1    1    2    0    0  0.43727474699E+02 -0.41165267521E+02  0.26966410026E+02  0.65832048148E+02  0.00000000000E+00 0.  1.
<mgrwt>
<rscale>  0 0.13175979E+03</rscale>
<asrwt>0</asrwt>
<pdfrwt beam="1">  1        1 0.52158641E-01 0.14003196E+03</pdfrwt>
<pdfrwt beam="2">  1       -1 0.70849077E-02 0.14003196E+03</pdfrwt>
<totfact> 0.74221563E+03</totfact>
</mgrwt>
</event>
<event>
 6    1  0.8712071E-006  0.2106095E+03  0.7546771E-02  0.1165218E+00
          1   -1    0    0  501    0  0.00000000000E+00  0.00000000000E+00  0.54344573596E+03  0.54344573596E+03  0.00000000000E+00 0. -1.
         -1   -1    0    0    0  501 -0.00000000000E+00 -0.00000000000E+00 -0.58826457698E+02  0.58826457698E+02  0.00000000000E+00 0.  1.
          5    1    1    2  502    0  0.61419586889E+02  0.45896916346E+02  0.58842967993E+02  0.96765063251E+02  0.47000000000E+01 0. -1.
         -5    1    1    2    0  502 -0.56614886914E+02 -0.12054034649E+03  0.12815695669E+03  0.18488243859E+03  0.47000000000E+01 0.  1.
        -11    1    1    2    0    0  0.33292395826E+02  0.60840923650E+01  0.46299156547E+02  0.57349905813E+02  0.00000000000E+00 0.  1.
         11    1    1    2    0    0 -0.38097095801E+02  0.68559337783E+02  0.25132019704E+03  0.26327478600E+03  0.00000000000E+00 0. -1.
<mgrwt>
<rscale>  0 0.18269723E+03</rscale>
<asrwt>0</asrwt>
<pdfrwt beam="1">  1        1 0.83607033E-01 0.21060946E+03</pdfrwt>
<pdfrwt beam="2">  1       -1 0.90502246E-02 0.21060946E+03</pdfrwt>
<totfact> 0.28429951E+03</totfact>
</mgrwt>
</event>
<event>
 7    1  0.8712071E-006  0.1463895E+03  0.7546771E-02  0.1214549E+00
         -2   -1    0    0    0  501 -0.00000000000E+00  0.00000000000E+00  0.15687375844E+03  0.15687375844E+03  0.00000000000E+00 0.  1.
          2   -1    0    0  501    0  0.00000000000E+00 -0.00000000000E+00 -0.16057944548E+03  0.16057944548E+03  0.00000000000E+00 0. -1.
         23    2    1    2    0    0 -0.63427128271E+02  0.42218596829E+02  0.84532870507E+02  0.16904348478E+03  0.12499793211E+03 0.  0.
          5    1    3    3  502    0  0.14390040609E+02 -0.22415706891E+01  0.77528903797E+02  0.79024798841E+02  0.47000000000E+01 0.  1.
         -5    1    3    3    0  502 -0.77817168880E+02  0.44460167518E+02  0.70039667101E+01  0.90018685938E+02  0.47000000000E+01 0.  1.
        -11    1    1    2    0    0  0.74829625790E+02 -0.56992867549E+02 -0.89322303921E+02  0.12971558821E+03  0.00000000000E+00 0.  1.
         11    1    1    2    0    0 -0.11402497519E+02  0.14774270721E+02  0.10837463666E+01  0.18694130929E+02  0.00000000000E+00 0. -1.
<mgrwt>
<rscale>  0 0.13909739E+03</rscale>
<asrwt>0</asrwt>
<pdfrwt beam="2">  1        2 0.24704530E-01 0.14638953E+03</pdfrwt>
<pdfrwt beam="1">  1       -2 0.24134424E-01 0.14638953E+03</pdfrwt>
<totfact> 0.31918697E+03</totfact>
</mgrwt>
</event>
<event>
 7    1  0.8712071E-006  0.1375821E+03  0.7546771E-02  0.1223057E+00
         -2   -1    0    0    0  501 -0.00000000000E+00  0.00000000000E+00  0.69650691603E+02  0.69650691603E+02  0.00000000000E+00 0.  1.
          2   -1    0    0  501    0  0.00000000000E+00 -0.00000000000E+00 -0.24178213739E+03  0.24178213739E+03  0.00000000000E+00 0. -1.
         23    2    1    2    0    0 -0.18616282036E+02  0.75052908152E+02 -0.10993462430E+03  0.17610918585E+03  0.11379507345E+03 0.  0.
          5    1    3    3  502    0  0.44875218846E+02  0.51304940280E+02 -0.67230747424E+02  0.95854293398E+02  0.47000000000E+01 0. -1.
         -5    1    3    3    0  502 -0.63491500882E+02  0.23747967872E+02 -0.42703876877E+02  0.80254892453E+02  0.47000000000E+01 0.  1.
        -11    1    1    2    0    0  0.47254623327E+02 -0.77402001942E+02 -0.40507896083E+02  0.99322499845E+02  0.00000000000E+00 0. -1.
         11    1    1    2    0    0 -0.28638341291E+02  0.23490937905E+01 -0.21688925401E+02  0.36001143296E+02  0.00000000000E+00 0.  1.
<mgrwt>
<rscale>  0 0.13300944E+03</rscale>
<asrwt>0</asrwt>
<pdfrwt beam="2">  1        2 0.37197252E-01 0.13758206E+03</pdfrwt>
<pdfrwt beam="1">  1       -2 0.10715491E-01 0.13758206E+03</pdfrwt>
<totfact> 0.78036686E+03</totfact>
</mgrwt>
</event>
<event>
 7    1  0.8712071E-006  0.1300230E+03  0.7546771E-02  0.1243383E+00
         -3   -1    0    0    0  501 -0.00000000000E+00  0.00000000000E+00  0.15066718698E+03  0.15066718698E+03  0.00000000000E+00 0.  1.
          3   -1    0    0  501    0  0.00000000000E+00 -0.00000000000E+00 -0.10766178966E+03  0.10766178966E+03  0.00000000000E+00 0. -1.
         23    2    1    2    0    0  0.23574383590E+02 -0.27648200138E+02  0.85236020345E+02  0.15547074422E+03  0.12484309597E+03 0.  0.
          5    1    3    3  502    0 -0.17098784806E+02  0.34250216514E+02  0.69682043602E+02  0.79643725262E+02  0.47000000000E+01 0. -1.
         -5    1    3    3    0  502  0.40673168396E+02 -0.61898416652E+02  0.15553976743E+02  0.75827018957E+02  0.47000000000E+01 0. -1.
        -11    1    1    2    0    0  0.18883381999E+02 -0.12639816954E+02 -0.37871939995E+02  0.44165947599E+02  0.00000000000E+00 0.  1.
         11    1    1    2    0    0 -0.42457765588E+02  0.40288017093E+02 -0.43586830240E+01  0.58692284823E+02  0.00000000000E+00 0. -1.
<mgrwt>
<rscale>  0 0.11982657E+03</rscale>
<asrwt>0</asrwt>
<pdfrwt beam="2">  1        3 0.16563352E-01 0.13002297E+03</pdfrwt>
<pdfrwt beam="1">  1       -3 0.23179567E-01 0.13002297E+03</pdfrwt>
<totfact> 0.12311710E+03</totfact>
</mgrwt>
</event>
<event>
 7    1  0.8712071E-006  0.1432115E+03  0.7546771E-02  0.1220688E+00
          2   -1    0    0  501    0  0.00000000000E+00  0.00000000000E+00  0.85890747222E+02  0.85890747222E+02  0.00000000000E+00 0. -1.
         -2   -1    0    0    0  501 -0.00000000000E+00 -0.00000000000E+00 -0.19639836579E+03  0.19639836579E+03  0.00000000000E+00 0.  1.
         23    2    1    2    0    0  0.67329429894E+02 -0.18727287826E+02 -0.87946628184E+02  0.16805997219E+03  0.12500232559E+03 0.  0.
          5    1    3    3  502    0 -0.35518353976E+02  0.51441792309E+01 -0.12844576757E+02  0.38406890023E+02  0.47000000000E+01 0.  1.
         -5    1    3    3    0  502  0.10284778387E+03 -0.23871467056E+02 -0.75102051427E+02  0.12965308217E+03  0.47000000000E+01 0.  1.
        -11    1    1    2    0    0  0.25074125958E+01 -0.27101392850E+02  0.16291157873E+01  0.27265850997E+02  0.00000000000E+00 0.  1.
         11    1    1    2    0    0 -0.69836842490E+02  0.45828680675E+02 -0.24190106175E+02  0.86963289831E+02  0.00000000000E+00 0. -1.
<mgrwt>
<rscale>  0 0.13466901E+03</rscale>
<asrwt>0</asrwt>
<pdfrwt beam="1">  1        2 0.13213961E-01 0.14321154E+03</pdfrwt>
<pdfrwt beam="2">  1       -2 0.30215133E-01 0.14321154E+03</pdfrwt>
<totfact> 0.43905754E+03</totfact>
</mgrwt>
</event>
<event>
 7    1  0.8712071E-006  0.1869221E+03  0.7546771E-02  0.1165891E+00
         -2   -1    0    0    0  501 -0.00000000000E+00  0.00000000000E+00  0.60239175887E+02  0.60239175887E+02  0.00000000000E+00 0.  1.
          2   -1    0    0  501    0  0.00000000000E+00 -0.00000000000E+00 -0.60715676100E+03  0.60715676100E+03  0.00000000000E+00 0. -1.
         23    2    1    2    0    0  0.13842292356E+03  0.12174047081E+02 -0.16171166287E+03  0.24716499529E+03  0.12502303707E+03 0.  0.
          5    1    3    3  502    0  0.53746952008E+02 -0.54153114480E+02 -0.46481169813E+02  0.89464427597E+02  0.47000000000E+01 0.  1.
         -5    1    3    3    0  502  0.84675971554E+02  0.66327161562E+02 -0.11523049306E+03  0.15770056769E+03  0.47000000000E+01 0.  1.
        -11    1    1    2    0    0 -0.22872453013E+02  0.33274186496E+02 -0.13500980438E+03  0.14091830212E+03  0.00000000000E+00 0. -1.
         11    1    1    2    0    0 -0.11555047055E+03 -0.45448233578E+02 -0.25019611786E+03  0.27931263948E+03  0.00000000000E+00 0.  1.
<mgrwt>
<rscale>  0 0.18198967E+03</rscale>
<asrwt>0</asrwt>
<pdfrwt beam="2">  1        2 0.93408730E-01 0.18692210E+03</pdfrwt>
<pdfrwt beam="1">  1       -2 0.92675658E-02 0.18692210E+03</pdfrwt>
<totfact> 0.36709910E+03</totfact>
</mgrwt>
</event>
<event>
 6    1  0.8712071E-006  0.2847719E+03  0.7546771E-02  0.1093111E+00
          2   -1    0    0  501    0  0.00000000000E+00  0.00000000000E+00  0.12167370793E+04  0.12167370793E+04  0.00000000000E+00 0. -1.
         -2   -1    0    0    0  501 -0.00000000000E+00 -0.00000000000E+00 -0.16662401636E+02  0.16662401636E+02  0.00000000000E+00 0.  1.
          5    1    1    2  502    0 -0.51900300252E+02  0.10122750744E+03  0.56004859154E+03  0.57150429947E+03  0.47000000000E+01 0. -1.
         -5    1    1    2    0  502  0.13445416005E+00 -0.30310335646E+02  0.51888969946E+02  0.60276776016E+02  0.47000000000E+01 0.  1.
        -11    1    1    2    0    0  0.74242558938E+02 -0.30271807576E+02  0.36675563890E+03  0.37541715272E+03  0.00000000000E+00 0. -1.
         11    1    1    2    0    0 -0.22476712847E+02 -0.40645364222E+02  0.22138147727E+03  0.22620125271E+03  0.00000000000E+00 0.  1.
<mgrwt>
<rscale>  0 0.28477192E+03</rscale>
<asrwt>0</asrwt>
<pdfrwt beam="1">  1        2 0.18719025E+00 0.28477192E+03</pdfrwt>
<pdfrwt beam="2">  1       -2 0.25634474E-02 0.28477192E+03</pdfrwt>
<totfact> 0.10465040E+04</totfact>
</mgrwt>
</event>
<event>
 7    1  0.8712071E-006  0.2258682E+03  0.7546771E-02  0.1132767E+00
         -2   -1    0    0    0  501 -0.00000000000E+00  0.00000000000E+00  0.19906465877E+03  0.19906465877E+03  0.00000000000E+00 0.  1.
          2   -1    0    0  501    0  0.00000000000E+00 -0.00000000000E+00 -0.50100202017E+03  0.50100202017E+03  0.00000000000E+00 0. -1.
         23    2    1    2    0    0 -0.68927158249E+02 -0.17504864304E+03  0.10005065840E+03  0.24703557083E+03  0.12499383359E+03 0.  0.
          5    1    3    3  502    0 -0.56106256224E+00 -0.43004245540E+02  0.87657596431E+02  0.97752872784E+02  0.47000000000E+01 0. -1.
         -5    1    3    3    0  502 -0.68366095687E+02 -0.13204439750E+03  0.12393061968E+02  0.14928269804E+03  0.47000000000E+01 0. -1.
        -11    1    1    2    0    0  0.69970802582E+02  0.14691355496E+03 -0.24888191916E+03  0.29735789132E+03  0.00000000000E+00 0.  1.
         11    1    1    2    0    0 -0.10436443326E+01  0.28135088075E+02 -0.15310610064E+03  0.15567321679E+03  0.00000000000E+00 0. -1.
<mgrwt>
<rscale>  0 0.22150340E+03</rscale>
<asrwt>0</asrwt>
<pdfrwt beam="2">  1        2 0.77077232E-01 0.22586819E+03</pdfrwt>
<pdfrwt beam="1">  1       -2 0.30625333E-01 0.22586819E+03</pdfrwt>
<totfact> 0.61462108E+02</totfact>
</mgrwt>
</event>
<event>
 6    1  0.8712071E-006  0.1358311E+03  0.7546771E-02  0.1242417E+00
         -1   -1    0    0    0  501 -0.00000000000E+00  0.00000000000E+00  0.12287380528E+03  0.12287380528E+03  0.00000000000E+00 0.  1.
          1   -1    0    0  501    0  0.00000000000E+00 -0.00000000000E+00 -0.38076600730E+03  0.38076600730E+03  0.00000000000E+00 0. -1.
          5    1    1    2  502    0  0.18479568872E+02 -0.52051328158E+02  0.67796931284E+02  0.87574820127E+02  0.47000000000E+01 0. -1.
         -5    1    1    2    0  502 -0.35819490114E+02  0.58189409955E+02  0.10745660260E+02  0.69329665493E+02  0.47000000000E+01 0.  1.
        -11    1    1    2    0    0  0.38277184804E+02  0.20599804543E+02 -0.25209469180E+03  0.25581483237E+03  0.00000000000E+00 0. -1.
         11    1    1    2    0    0 -0.20937263562E+02 -0.26737886340E+02 -0.84340101759E+02  0.90920494588E+02  0.00000000000E+00 0.  1.
<mgrwt>
<rscale>  0 0.12041287E+03</rscale>
<asrwt>0</asrwt>
<pdfrwt beam="2">  1        1 0.58579385E-01 0.13583107E+03</pdfrwt>
<pdfrwt beam="1">  1       -1 0.18903662E-01 0.13583107E+03</pdfrwt>
<totfact> 0.14100972E+03</totfact>
</mgrwt>
</event>
<event>
 7    1  0.8712071E-006  0.1469638E+03  0.7546771E-02  0.1213529E+00
         -1   -1    0    0    0  501 -0.00000000000E+00  0.00000000000E+00  0.67418995680E+03  0.67418995680E+03  0.00000000000E+00 0.  1.
          1   -1    0    0  501    0  0.00000000000E+00 -0.00000000000E+00 -0.27709651141E+02  0.27709651141E+02  0.00000000000E+00 0. -1.
         23    2    1    2    0    0 -0.29610821031E+02  0.71386693413E+02  0.42593219228E+03  0.45057363886E+03  0.12500204357E+03 0.  0.
          5    1    3    3  502    0 -0.63289346939E+02  0.70103883977E+02  0.38910818553E+03  0.40043397212E+03  0.47000000000E+01 0. -1.
         -5    1    3    3    0  502  0.33678525908E+02  0.12828094363E+01  0.36824006750E+02  0.50139666737E+02  0.47000000000E+01 0. -1.
        -11    1    1    2    0    0  0.49196090104E+02 -0.13881327794E+02  0.14868357228E+03  0.15722516086E+03  0.00000000000E+00 0.  1.
         11    1    1    2    0    0 -0.19585269073E+02 -0.57505365619E+02  0.71864541103E+02  0.94100808220E+02  0.00000000000E+00 0. -1.
<mgrwt>
<rscale>  0 0.13985112E+03</rscale>
<asrwt>0</asrwt>
<pdfrwt beam="2">  1        1 0.42630238E-02 0.14696384E+03</pdfrwt>
<pdfrwt beam="1">  1       -1 0.10372152E+00 0.14696384E+03</pdfrwt>
<totfact> 0.18830720E+03</totfact>
</mgrwt>
</event>
<event>
 7    1  0.8712071E-006  0.1252152E+03  0.7546771E-02  0.1252374E+00
         -1   -1    0    0    0  501 -0.00000000000E+00  0.00000000000E+00  0.37620390269E+02  0.37620390269E+02  0.00000000000E+00 0.  1.
          1   -1    0    0  501    0  0.00000000000E+00 -0.00000000000E+00 -0.31728780140E+03  0.31728780140E+03  0.00000000000E+00 0. -1.
         23    2    1    2    0    0 -0.62698658450E+01  0.38370964247E+01 -0.12390149869E+03  0.17615454645E+03  0.12499923331E+03 0.  0.
          5    1    3    3  502    0  0.40439361588E+01  0.13952719515E+02 -0.14739142911E+03  0.14818014434E+03  0.47000000000E+01 0.  1.
         -5    1    3    3    0  502 -0.10313802004E+02 -0.10115623090E+02  0.23489930416E+02  0.27974402107E+02  0.47000000000E+01 0.  1.
        -11    1    1    2    0    0  0.44753131847E+02  0.11497361989E+02 -0.78840672089E+02  0.91383169775E+02  0.00000000000E+00 0.  1.
         11    1    1    2    0    0 -0.38483266002E+02 -0.15334458414E+02 -0.76925240344E+02  0.87370475442E+02  0.00000000000E+00 0. -1.
<mgrwt>
<rscale>  0 0.11454667E+03</rscale>
<asrwt>0</asrwt>
<pdfrwt beam="2">  1        1 0.48813511E-01 0.12521519E+03</pdfrwt>
<pdfrwt beam="1">  1       -1 0.57877520E-02 0.12521519E+03</pdfrwt>
<totfact> 0.10810449E+04</totfact>
</mgrwt>
</event>
<event>
 7    1  0.8712071E-006  0.1458173E+03  0.7546771E-02  0.1215283E+00
         -1   -1    0    0    0  501 -0.00000000000E+00  0.00000000000E+00  0.93104766579E+03  0.93104766579E+03  0.00000000000E+00 0.  1.
          1   -1    0    0  501    0  0.00000000000E+00 -0.00000000000E+00 -0.19536916213E+02  0.19536916213E+02  0.00000000000E+00 0. -1.
         23    2    1    2    0    0  0.53763908744E+02 -0.52415872406E+02  0.59145988692E+03  0.60916950036E+03  0.12499880308E+03 0.  0.
          5    1    3    3  502    0  0.14048081189E+02 -0.51843479826E+02  0.81979152613E+02  0.98121182466E+02  0.47000000000E+01 0. -1.
         -5    1    3    3    0  502  0.39715827555E+02 -0.57239258012E+00  0.50948073431E+03  0.51104831790E+03  0.47000000000E+01 0. -1.
        -11    1    1    2    0    0  0.19339142911E+01  0.36632201596E+02  0.35545911863E+02  0.51080035909E+02  0.00000000000E+00 0. -1.
         11    1    1    2    0    0 -0.55697823035E+02  0.15783670810E+02  0.28450495079E+03  0.29033504573E+03  0.00000000000E+00 0.  1.
<mgrwt>
<rscale>  0 0.13855783E+03</rscale>
<asrwt>0</asrwt>
<pdfrwt beam="2">  1        1 0.30056801E-02 0.14581729E+03</pdfrwt>
<pdfrwt beam="1">  1       -1 0.14323807E+00 0.14581729E+03</pdfrwt>
<totfact> 0.14182280E+03</totfact>
</mgrwt>
</event>
<event>
 7    1  0.8712071E-006  0.1424077E+03  0.7546771E-02  0.1221616E+00
          1   -1    0    0  501    0  0.00000000000E+00  0.00000000000E+00  0.16974096369E+03  0.16974096369E+03  0.00000000000E+00 0.  1.
         -1   -1    0    0    0  501 -0.00000000000E+00 -0.00000000000E+00 -0.96495224134E+02  0.96495224134E+02  0.00000000000E+00 0. -1.
         23    2    1    2    0    0 -0.55458650315E+02  0.39729321752E+02  0.25074396727E+02  0.14459828769E+03  0.12500343408E+03 0.  0.
          5    1    3    3  502    0 -0.82714948024E+02  0.60175055629E+02  0.35952341725E+02  0.10852401035E+03  0.47000000000E+01 0.  1.
         -5    1    3    3    0  502  0.27256297709E+02 -0.20445733877E+02 -0.10877944998E+02  0.36074277345E+02  0.47000000000E+01 0.  1.
        -11    1    1    2    0    0  0.30827814328E+02 -0.21506007787E+02 -0.23059006246E+02  0.44097395345E+02  0.00000000000E+00 0. -1.
         11    1    1    2    0    0  0.24630835987E+02 -0.18223313965E+02  0.71230349075E+02  0.77540504787E+02  0.00000000000E+00 0.  1.
<mgrwt>
<rscale>  0 0.13401591E+03</rscale>
<asrwt>0</asrwt>
<pdfrwt beam="1">  1        1 0.26113994E-01 0.14240765E+03</pdfrwt>
<pdfrwt beam="2">  1       -1 0.14845419E-01 0.14240765E+03</pdfrwt>
<totfact> 0.56517867E+03</totfact>
</mgrwt>
</event>
<event>
 7    1  0.8712071E-006  0.1677677E+03  0.7546771E-02  0.1186422E+00
          2   -1    0    0  501    0  0.00000000000E+00  0.00000000000E+00  0.10071449670E+04  0.10071449670E+04  0.00000000000E+00 0.  1.
         -2   -1    0    0    0  501 -0.00000000000E+00 -0.00000000000E+00 -0.24679893218E+02  0.24679893218E+02  0.00000000000E+00 0. -1.
         23    2    1    2    0    0  0.11142473669E+03 -0.10409015282E+02  0.57641789807E+03  0.60033622410E+03  0.12498867629E+03 0.  0.
          5    1    3    3  502    0  0.14583458290E+02 -0.48414494240E+02  0.31278997176E+03  0.31688530566E+03  0.47000000000E+01 0.  1.
         -5    1    3    3    0  502  0.96841278404E+02  0.38005478958E+02  0.26362792631E+03  0.28345091844E+03  0.47000000000E+01 0.  1.
        -11    1    1    2    0    0 -0.39570860011E+02  0.13252218874E+02  0.37863201548E+02  0.56347992853E+02  0.00000000000E+00 0. -1.
         11    1    1    2    0    0 -0.71853876683E+02 -0.28432035920E+01  0.36818397417E+03  0.37514064328E+03  0.00000000000E+00 0.  1.
<mgrwt>
<rscale>  0 0.16203147E+03</rscale>
<asrwt>0</asrwt>
<pdfrwt beam="1">  1        2 0.15494535E+00 0.16776766E+03</pdfrwt>
<pdfrwt beam="2">  1       -2 0.37969074E-02 0.16776766E+03</pdfrwt>
<totfact> 0.75648954E+03</totfact>
</mgrwt>
</event>
<event>
 7    1  0.8712071E-006  0.1600151E+03  0.7546771E-02  0.1196302E+00
          1   -1    0    0  501    0  0.00000000000E+00  0.00000000000E+00  0.29330880151E+02  0.29330880151E+02  0.00000000000E+00 0. -1.
         -1   -1    0    0    0  501 -0.00000000000E+00 -0.00000000000E+00 -0.76605206773E+03  0.76605206773E+03  0.00000000000E+00 0.  1.
         23    2    1    2    0    0 -0.91832633685E+02  0.39346973236E+02 -0.46642403611E+03  0.49310873345E+03  0.12499369838E+03 0.  0.
          5    1    3    3  502    0 -0.11340238158E+03  0.49706809921E+02 -0.44016651023E+03  0.45727400301E+03  0.47000000000E+01 0.  1.
         -5    1    3    3    0  502  0.21569747899E+02 -0.10359836685E+02 -0.26257525877E+02  0.35834730441E+02  0.47000000000E+01 0.  1.
        -11    1    1    2    0    0  0.87040216124E+02  0.49732112317E+01 -0.20923052618E+03  0.22666747702E+03  0.00000000000E+00 0.  1.
         11    1    1    2    0    0  0.47924175610E+01 -0.44320184467E+02 -0.61066625299E+02  0.75606737416E+02  0.00000000000E+00 0. -1.
<mgrwt>
<rscale>  0 0.15344555E+03</rscale>
<asrwt>0</asrwt>
<pdfrwt beam="1">  1        1 0.45124438E-02 0.16001513E+03</pdfrwt>
<pdfrwt beam="2">  1       -1 0.11785415E+00 0.16001513E+03</pdfrwt>
<totfact> 0.13049446E+03</totfact>
</mgrwt>
</event>
<event>
 7    1  0.8712071E-006  0.1256916E+03  0.7546771E-02  0.1251155E+00
         -2   -1    0    0    0  501 -0.00000000000E+00  0.00000000000E+00  0.40239870477E+02  0.40239870477E+02  0.00000000000E+00 0.  1.
          2   -1    0    0  501    0  0.00000000000E+00 -0.00000000000E+00 -0.51642964428E+03  0.51642964428E+03  0.00000000000E+00 0. -1.
         23    2    1    2    0    0 -0.94165704157E+01  0.92049012830E+01 -0.76311354132E+02  0.14704349445E+03  0.12499985794E+03 0.  0.
          5    1    3    3  502    0  0.18463661090E+02 -0.42841683526E+02  0.42189836202E+01  0.47076601948E+02  0.47000000000E+01 0. -1.
         -5    1    3    3    0  502 -0.27880231505E+02  0.52046584809E+02 -0.80530337752E+02  0.99966892507E+02  0.47000000000E+01 0. -1.
        -11    1    1    2    0    0  0.16464759906E+02 -0.47262509379E+02 -0.23388851679E+03  0.23918334264E+03  0.00000000000E+00 0.  1.
         11    1    1    2    0    0 -0.70481894904E+01  0.38057608096E+02 -0.16598990288E+03  0.17044267766E+03  0.00000000000E+00 0. -1.
<mgrwt>
<rscale>  0 0.11524423E+03</rscale>
<asrwt>0</asrwt>
<pdfrwt beam="2">  1        2 0.79450715E-01 0.12569155E+03</pdfrwt>
<pdfrwt beam="1">  1       -2 0.61907493E-02 0.12569155E+03</pdfrwt>
<totfact> 0.80522494E+03</totfact>
</mgrwt>
</event>
<event>
 7    1  0.8712071E-006  0.1310774E+03  0.7546771E-02  0.1239182E+00
         -1   -1    0    0    0  501 -0.00000000000E+00  0.00000000000E+00  0.72656636989E+02  0.72656636989E+02  0.00000000000E+00 0. -1.
          1   -1    0    0  501    0  0.00000000000E+00 -0.00000000000E+00 -0.19034903629E+03  0.19034903629E+03  0.00000000000E+00 0.  1.
         23    2    1    2    0    0 -0.14852261892E+02  0.36424504319E+02 -0.41336107651E+02  0.13744075825E+03  0.12503581101E+03 0.  0.
          5    1    3    3  502    0 -0.27979296248E+02 -0.16419945800E+02  0.32113101309E+02  0.45888962881E+02  0.47000000000E+01 0. -1.
         -5    1    3    3    0  502  0.13127034356E+02  0.52844450118E+02 -0.73449208960E+02  0.91551795373E+02  0.47000000000E+01 0. -1.
        -11    1    1    2    0    0  0.13460172486E+00 -0.31853125274E+02  0.13354816245E+02  0.34539699250E+02  0.00000000000E+00 0. -1.
         11    1    1    2    0    0  0.14717660167E+02 -0.45713790448E+01 -0.89711107896E+02  0.91025215776E+02  0.00000000000E+00 0.  1.
<mgrwt>
<rscale>  0 0.12240490E+03</rscale>
<asrwt>0</asrwt>
<pdfrwt beam="2">  1        1 0.29284467E-01 0.13107741E+03</pdfrwt>
<pdfrwt beam="1">  1       -1 0.11177944E-01 0.13107741E+03</pdfrwt>
<totfact> 0.75636156E+03</totfact>
</mgrwt>
</event>
<event>
 7    1  0.8712071E-006  0.1299476E+03  0.7546771E-02  0.1236610E+00
         -2   -1    0    0    0  501 -0.00000000000E+00  0.00000000000E+00  0.27233631085E+02  0.27233631085E+02  0.00000000000E+00 0.  1.
          2   -1    0    0  501    0  0.00000000000E+00 -0.00000000000E+00 -0.54858425178E+03  0.54858425178E+03  0.00000000000E+00 0. -1.
         23    2    1    2    0    0 -0.49565856538E+01 -0.59107456606E+02 -0.21695704285E+03  0.25289667803E+03  0.11562055245E+03 0.  0.
          5    1    3    3  502    0 -0.23101419264E+02  0.22126126720E+02 -0.12348719517E+03  0.12764959235E+03  0.47000000000E+01 0. -1.
         -5    1    3    3    0  502  0.18144833610E+02 -0.81233583326E+02 -0.93469847680E+02  0.12524708568E+03  0.47000000000E+01 0.  1.
        -11    1    1    2    0    0  0.38306429926E+02  0.53797333437E+02 -0.13615129196E+03  0.15132319703E+03  0.00000000000E+00 0.  1.
         11    1    1    2    0    0 -0.33349844272E+02  0.53101231694E+01 -0.16824228589E+03  0.17159800780E+03  0.00000000000E+00 0. -1.
<mgrwt>
<rscale>  0 0.12401930E+03</rscale>
<asrwt>0</asrwt>
<pdfrwt beam="2">  1        2 0.84397589E-01 0.12994757E+03</pdfrwt>
<pdfrwt beam="1">  1       -2 0.41897888E-02 0.12994757E+03</pdfrwt>
<totfact> 0.13564066E+04</totfact>
</mgrwt>
</event>
<event>
 7    1  0.8712071E-006  0.1363492E+03  0.7546771E-02  0.1230429E+00
          3   -1    0    0  501    0  0.00000000000E+00  0.00000000000E+00  0.10176431215E+03  0.10176431215E+03  0.00000000000E+00 0. -1.
         -3   -1    0    0    0  501 -0.00000000000E+00 -0.00000000000E+00 -0.14582175687E+03  0.14582175687E+03  0.00000000000E+00 0.  1.
         23    2    1    2    0    0 -0.44761994742E+02 -0.31039252857E+02 -0.37599235187E+02  0.14143834415E+03  0.12499612522E+03 0.  0.
          5    1    3    3  502    0 -0.47352187202E+02 -0.13673136926E+02  0.38802672671E+02  0.62904067536E+02  0.47000000000E+01 0. -1.
         -5    1    3    3    0  502  0.25901924602E+01 -0.17366115931E+02 -0.76401907858E+02  0.78534276618E+02  0.47000000000E+01 0. -1.
        -11    1    1    2    0    0 -0.14426935113E+02  0.35303065085E+02 -0.23009112352E+02  0.44540567041E+02  0.00000000000E+00 0. -1.
         11    1    1    2    0    0  0.59188929854E+02 -0.42638122278E+01  0.16550902817E+02  0.61607157832E+02  0.00000000000E+00 0.  1.
<mgrwt>
<rscale>  0 0.12801645E+03</rscale>
<asrwt>0</asrwt>
<pdfrwt beam="1">  1        3 0.15656048E-01 0.13634919E+03</pdfrwt>
<pdfrwt beam="2">  1       -3 0.22434116E-01 0.13634919E+03</pdfrwt>
<totfact> 0.14493794E+03</totfact>
</mgrwt>
</event>
<event>
 7    1  0.8712071E-006  0.2327392E+03  0.7546771E-02  0.1127584E+00
         -1   -1    0    0    0  501 -0.00000000000E+00  0.00000000000E+00  0.11415054797E+04  0.11415054797E+04  0.00000000000E+00 0.  1.
          1   -1    0    0  501    0  0.00000000000E+00 -0.00000000000E+00 -0.44764280612E+02  0.44764280612E+02  0.00000000000E+00 0. -1.
         23    2    1    2    0    0 -0.68945509561E+02 -0.18379377941E+03  0.50522486517E+03  0.55625508073E+03  0.12503565018E+03 0.  0.
          5    1    3    3  502    0  0.10224369927E+02 -0.60905452816E+02  0.28661546876E+03  0.29323118671E+03  0.47000000000E+01 0.  1.
         -5    1    3    3    0  502 -0.79169879488E+02 -0.12288832659E+03  0.21860939640E+03  0.26302389402E+03  0.47000000000E+01 0.  1.
        -11    1    1    2    0    0  0.38049486895E+02  0.57812872717E+02  0.99616096901E+02  0.12129904561E+03  0.00000000000E+00 0. -1.
         11    1    1    2    0    0  0.30896022666E+02  0.12598090669E+03  0.49190023705E+03  0.50871563401E+03  0.00000000000E+00 0.  1.
<mgrwt>
<rscale>  0 0.22866280E+03</rscale>
<asrwt>0</asrwt>
<pdfrwt beam="2">  1        1 0.68868133E-02 0.23273923E+03</pdfrwt>
<pdfrwt beam="1">  1       -1 0.17561621E+00 0.23273923E+03</pdfrwt>
<totfact> 0.26284155E+02</totfact>
</mgrwt>
</event>
<event>
 7    1  0.8712071E-006  0.1924732E+03  0.7546771E-02  0.1161542E+00
          2   -1    0    0  501    0  0.00000000000E+00  0.00000000000E+00  0.13366679643E+04  0.13366679643E+04  0.00000000000E+00 0. -1.
         -2   -1    0    0    0  501 -0.00000000000E+00 -0.00000000000E+00 -0.24876670394E+02  0.24876670394E+02  0.00000000000E+00 0.  1.
         23    2    1    2    0    0  0.12401929100E+03  0.77706296857E+02  0.62290184578E+03  0.65196060381E+03  0.12500746510E+03 0.  0.
          5    1    3    3  502    0  0.37632179091E+02  0.32754931960E+02  0.45541394551E+03  0.45816265478E+03  0.47000000000E+01 0.  1.
         -5    1    3    3    0  502  0.86387111907E+02  0.44951364897E+02  0.16748790027E+03  0.19379794902E+03  0.47000000000E+01 0.  1.
        -11    1    1    2    0    0 -0.42793462830E+02  0.14916434925E+01  0.85505608676E+02  0.95628001006E+02  0.00000000000E+00 0.  1.
         11    1    1    2    0    0 -0.81225828168E+02 -0.79197940350E+02  0.60338383944E+03  0.61395602987E+03  0.00000000000E+00 0. -1.
<mgrwt>
<rscale>  0 0.18662358E+03</rscale>
<asrwt>0</asrwt>
<pdfrwt beam="1">  1        2 0.20564117E+00 0.19247317E+03</pdfrwt>
<pdfrwt beam="2">  1       -2 0.38271811E-02 0.19247317E+03</pdfrwt>
<totfact> 0.48821958E+03</totfact>
</mgrwt>
</event>
<event>
 7    1  0.8712071E-006  0.1127634E+03  0.7546771E-02  0.1265046E+00
          3   -1    0    0  501    0  0.00000000000E+00  0.00000000000E+00  0.49815816947E+02  0.49815816947E+02  0.00000000000E+00 0. -1.
         -3   -1    0    0    0  501 -0.00000000000E+00 -0.00000000000E+00 -0.26970469582E+03  0.26970469582E+03  0.00000000000E+00 0.  1.
         23    2    1    2    0    0  0.89072483742E+01  0.16975576807E+02 -0.19066565541E+03  0.22151518996E+03  0.11112190581E+03 0.  0.
          5    1    3    3  502    0 -0.32069320582E+02  0.43299941103E+01 -0.77831175347E+01  0.33613346905E+02  0.47000000000E+01 0. -1.
         -5    1    3    3    0  502  0.40976568956E+02  0.12645582696E+02 -0.18288253787E+03  0.18790184305E+03  0.47000000000E+01 0.  1.
        -11    1    1    2    0    0 -0.21357863935E+02  0.24817781796E+02  0.14895624560E+02  0.35971659347E+02  0.00000000000E+00 0. -1.
         11    1    1    2    0    0  0.12450615561E+02 -0.41793358602E+02 -0.44118848027E+02  0.62033663461E+02  0.00000000000E+00 0.  1.
<mgrwt>
<rscale>  0 0.10761769E+03</rscale>
<asrwt>0</asrwt>
<pdfrwt beam="1">  1        3 0.76639718E-02 0.11276341E+03</pdfrwt>
<pdfrwt beam="2">  1       -3 0.41493031E-01 0.11276341E+03</pdfrwt>
<totfact> 0.14728568E+03</totfact>
</mgrwt>
</event>
<event>
 7    1  0.8712071E-006  0.1355069E+03  0.7546771E-02  0.1231728E+00
         -1   -1    0    0    0  501 -0.00000000000E+00  0.00000000000E+00  0.63977650221E+02  0.63977650221E+02  0.00000000000E+00 0.  1.
          1   -1    0    0  501    0  0.00000000000E+00 -0.00000000000E+00 -0.29481523876E+03  0.29481523876E+03  0.00000000000E+00 0. -1.
         23    2    1    2    0    0 -0.30218810943E+02  0.42710628152E+02 -0.40597771872E+02  0.14145773468E+03  0.12499894930E+03 0.  0.
          5    1    3    3  502    0  0.26440204536E+02 -0.26722758074E+01 -0.60323432568E+02  0.66085036058E+02  0.47000000000E+01 0.  1.
         -5    1    3    3    0  502 -0.56659015480E+02  0.45382903960E+02  0.19725660697E+02  0.75372698618E+02  0.47000000000E+01 0.  1.
        -11    1    1    2    0    0 -0.50466584656E+01 -0.22219831393E+02 -0.13768814424E-01  0.22785738048E+02  0.00000000000E+00 0.  1.
         11    1    1    2    0    0  0.35265469409E+02 -0.20490796760E+02 -0.19022604785E+03  0.19454941625E+03  0.00000000000E+00 0. -1.
<mgrwt>
<rscale>  0 0.12716241E+03</rscale>
<asrwt>0</asrwt>
<pdfrwt beam="2">  1        1 0.45356190E-01 0.13550687E+03</pdfrwt>
<pdfrwt beam="1">  1       -1 0.98427156E-02 0.13550687E+03</pdfrwt>
<totfact> 0.53581486E+03</totfact>
</mgrwt>
</event>
<event>
 7    1  0.8712071E-006  0.1514545E+03  0.7546771E-02  0.1208723E+00
         -1   -1    0    0    0  501 -0.00000000000E+00  0.00000000000E+00  0.16090427247E+03  0.16090427247E+03  0.00000000000E+00 0.  1.
          1   -1    0    0  501    0  0.00000000000E+00 -0.00000000000E+00 -0.11799283369E+03  0.11799283369E+03  0.00000000000E+00 0. -1.
         23    2    1    2    0    0 -0.31708269867E+02 -0.79425239619E+02  0.40961377371E+02  0.15689578697E+03  0.12499868185E+03 0.  0.
          5    1    3    3  502    0  0.24902363820E+02  0.22952045361E+02  0.12508343591E+02  0.36407042855E+02  0.47000000000E+01 0.  1.
         -5    1    3    3    0  502 -0.56610633687E+02 -0.10237728498E+03  0.28453033780E+02  0.12048874411E+03  0.47000000000E+01 0.  1.
        -11    1    1    2    0    0  0.84756472961E+01  0.54975387881E+02 -0.39750554223E+02  0.68368387656E+02  0.00000000000E+00 0. -1.
         11    1    1    2    0    0  0.23232622571E+02  0.24449851738E+02  0.41700615634E+02  0.53632931542E+02  0.00000000000E+00 0.  1.
<mgrwt>
<rscale>  0 0.14347916E+03</rscale>
<asrwt>0</asrwt>
<pdfrwt beam="2">  1        1 0.18152744E-01 0.15145446E+03</pdfrwt>
<pdfrwt beam="1">  1       -1 0.24754504E-01 0.15145446E+03</pdfrwt>
<totfact> 0.39615688E+03</totfact>
</mgrwt>
</event>
<event>
 7    1  0.8712071E-006  0.1983926E+03  0.7546771E-02  0.1155178E+00
          2   -1    0    0  501    0  0.00000000000E+00  0.00000000000E+00  0.48852350944E+03  0.48852350944E+03  0.00000000000E+00 0.  1.
         -2   -1    0    0    0  501 -0.00000000000E+00 -0.00000000000E+00 -0.73440851688E+02  0.73440851688E+02  0.00000000000E+00 0. -1.
         23    2    1    2    0    0  0.25058331707E+02 -0.15202748101E+03  0.22677521762E+03  0.30130819761E+03  0.12497742056E+03 0.  0.
          5    1    3    3  502    0  0.10102329065E+01 -0.10995968001E+03  0.22738290980E+03  0.25262072256E+03  0.47000000000E+01 0. -1.
         -5    1    3    3    0  502  0.24048098800E+02 -0.42067800994E+02 -0.60769218040E+00  0.48687475044E+02  0.47000000000E+01 0. -1.
        -11    1    1    2    0    0  0.12580895041E+02  0.11964740840E+03  0.16885678277E+03  0.20733160479E+03  0.00000000000E+00 0.  1.
         11    1    1    2    0    0 -0.37639226748E+02  0.32380072612E+02  0.19450657363E+02  0.53324558736E+02  0.00000000000E+00 0. -1.
<mgrwt>
<rscale>  0 0.19368651E+03</rscale>
<asrwt>0</asrwt>
<pdfrwt beam="1">  1        2 0.75157461E-01 0.19839262E+03</pdfrwt>
<pdfrwt beam="2">  1       -2 0.11298593E-01 0.19839262E+03</pdfrwt>
<totfact> 0.34339835E+03</totfact>
</mgrwt>
</event>
<event>
 7    1  0.8712071E-006  0.1361920E+03  0.7546771E-02  0.1237742E+00
         -2   -1    0    0    0  501 -0.00000000000E+00  0.00000000000E+00  0.79472057456E+02  0.79472057456E+02  0.00000000000E+00 0. -1.
          2   -1    0    0  501    0  0.00000000000E+00 -0.00000000000E+00 -0.18113502908E+03  0.18113502908E+03  0.00000000000E+00 0.  1.
         23    2    1    2    0    0 -0.50943778428E+02 -0.17950614334E+02 -0.19418911552E+02  0.13756940674E+03  0.12502301560E+03 0.  0.
          5    1    3    3  502    0 -0.91379223684E+01 -0.69157236625E+02 -0.10480815008E+02  0.70697683739E+02  0.47000000000E+01 0.  1.
         -5    1    3    3    0  502 -0.41805856060E+02  0.51206622291E+02 -0.89380965440E+01  0.66871723001E+02  0.47000000000E+01 0.  1.
        -11    1    1    2    0    0  0.38940550919E+02 -0.59754033680E+01 -0.31330672184E+01  0.39520729516E+02  0.00000000000E+00 0. -1.
         11    1    1    2    0    0  0.12003227509E+02  0.23926017702E+02 -0.79110992853E+02  0.83516950279E+02  0.00000000000E+00 0.  1.
<mgrwt>
<rscale>  0 0.12330520E+03</rscale>
<asrwt>0</asrwt>
<pdfrwt beam="2">  1        2 0.27866927E-01 0.13619195E+03</pdfrwt>
<pdfrwt beam="1">  1       -2 0.12226470E-01 0.13619195E+03</pdfrwt>
<totfact> 0.86315256E+03</totfact>
</mgrwt>
</event>
<event>
 7    1  0.8712071E-006  0.1828993E+03  0.7546771E-02  0.1170394E+00
          2   -1    0    0  501    0  0.00000000000E+00  0.00000000000E+00  0.47583815484E+03  0.47583815484E+03  0.00000000000E+00 0. -1.
         -2   -1    0    0    0  501 -0.00000000000E+00 -0.00000000000E+00 -0.62444097282E+02  0.62444097282E+02  0.00000000000E+00 0.  1.
         23    2    1    2    0    0 -0.11231456542E+03  0.72195589110E+02  0.21114558786E+03  0.27934679323E+03  0.12500162767E+03 0.  0.
          5    1    3    3  502    0 -0.47320015722E+02 -0.17693532505E+02  0.13633394804E+03  0.14546917326E+03  0.47000000000E+01 0. -1.
         -5    1    3    3    0  502 -0.64994549703E+02  0.89889121615E+02  0.74811639816E+02  0.13387761997E+03  0.47000000000E+01 0. -1.
        -11    1    1    2    0    0  0.55481063831E+02 -0.84808691798E+02  0.10756635808E+03  0.14778763155E+03  0.00000000000E+00 0.  1.
         11    1    1    2    0    0  0.56833501593E+02  0.12613102688E+02  0.94682111615E+02  0.11114782734E+03  0.00000000000E+00 0. -1.
<mgrwt>
<rscale>  0 0.17734903E+03</rscale>
<asrwt>0</asrwt>
<pdfrwt beam="1">  1        2 0.73205868E-01 0.18289935E+03</pdfrwt>
<pdfrwt beam="2">  1       -2 0.96067845E-02 0.18289935E+03</pdfrwt>
<totfact> 0.45602570E+03</totfact>
</mgrwt>
</event>
<event>
 7    1  0.8712071E-006  0.1636386E+03  0.7546771E-02  0.1191963E+00
          1   -1    0    0  501    0  0.00000000000E+00  0.00000000000E+00  0.65939469128E+02  0.65939469128E+02  0.00000000000E+00 0. -1.
         -1   -1    0    0    0  501 -0.00000000000E+00 -0.00000000000E+00 -0.35590573578E+03  0.35590573578E+03  0.00000000000E+00 0.  1.
         23    2    1    2    0    0  0.95737903161E+02 -0.44546410160E+02 -0.18853325514E+03  0.24964448612E+03  0.12500980919E+03 0.  0.
          5    1    3    3  502    0  0.38323033425E+02 -0.41371101049E+01 -0.17336624487E+03  0.17766180071E+03  0.47000000000E+01 0.  1.
         -5    1    3    3    0  502  0.57414869736E+02 -0.40409300055E+02 -0.15167010272E+02  0.71982685406E+02  0.47000000000E+01 0.  1.
        -11    1    1    2    0    0 -0.24327276212E+02  0.58551800601E+02 -0.29691316022E+02  0.70012170147E+02  0.00000000000E+00 0.  1.
         11    1    1    2    0    0 -0.71410626949E+02 -0.14005390441E+02 -0.71741695484E+02  0.10218854864E+03  0.00000000000E+00 0. -1.
<mgrwt>
<rscale>  0 0.15714112E+03</rscale>
<asrwt>0</asrwt>
<pdfrwt beam="1">  1        1 0.10144534E-01 0.16363857E+03</pdfrwt>
<pdfrwt beam="2">  1       -1 0.54754728E-01 0.16363857E+03</pdfrwt>
<totfact> 0.21334449E+03</totfact>
</mgrwt>
</event>
<event>
 7    1  0.8712071E-006  0.4857714E+03  0.7546771E-02  0.1018080E+00
          1   -1    0    0  501    0  0.00000000000E+00  0.00000000000E+00  0.13864781649E+04  0.13864781649E+04  0.00000000000E+00 0. -1.
         -1   -1    0    0    0  501 -0.00000000000E+00 -0.00000000000E+00 -0.19233252500E+03  0.19233252500E+03  0.00000000000E+00 0.  1.
         23    2    1    2    0    0  0.45841751917E+03 -0.10099831492E+03  0.31778096209E+03  0.58048134520E+03  0.12500628287E+03 0.  0.
          5    1    3    3  502    0  0.34009562149E+03 -0.87287421075E+02  0.16861491858E+03  0.38953460232E+03  0.47000000000E+01 0. -1.
         -5    1    3    3    0  502  0.11832189768E+03 -0.13710893847E+02  0.14916604351E+03  0.19094674288E+03  0.47000000000E+01 0. -1.
        -11    1    1    2    0    0 -0.34644985650E+03  0.78985931574E+02  0.73713699845E+03  0.81831365316E+03  0.00000000000E+00 0. -1.
         11    1    1    2    0    0 -0.11196766268E+03  0.22012383348E+02  0.13922767938E+03  0.18001569157E+03  0.00000000000E+00 0.  1.
<mgrwt>
<rscale>  0 0.48385976E+03</rscale>
<asrwt>0</asrwt>
<pdfrwt beam="1">  1        1 0.21330433E+00 0.48577140E+03</pdfrwt>
<pdfrwt beam="2">  1       -1 0.29589620E-01 0.48577140E+03</pdfrwt>
<totfact> 0.86567985E+01</totfact>
</mgrwt>
</event>
<event>
 7    1  0.8712071E-006  0.1590362E+03  0.7546771E-02  0.1197963E+00
          2   -1    0    0  501    0  0.00000000000E+00  0.00000000000E+00  0.31609636657E+03  0.31609636657E+03  0.00000000000E+00 0. -1.
         -2   -1    0    0    0  501 -0.00000000000E+00 -0.00000000000E+00 -0.67550623765E+02  0.67550623765E+02  0.00000000000E+00 0.  1.
         23    2    1    2    0    0 -0.95472633553E+02  0.23515984050E+02  0.14395480580E+03  0.21451227067E+03  0.12499801154E+03 0.  0.
          5    1    3    3  502    0 -0.99933803449E+02  0.34010930130E+02  0.45097672482E+02  0.11488863522E+03  0.47000000000E+01 0.  1.
         -5    1    3    3    0  502  0.44611698967E+01 -0.10494946079E+02  0.98857133323E+02  0.99623635443E+02  0.47000000000E+01 0.  1.
        -11    1    1    2    0    0  0.94567424359E+02  0.12291048155E+02  0.87599878551E+02  0.12949056466E+03  0.00000000000E+00 0.  1.
         11    1    1    2    0    0  0.90520919375E+00 -0.35807032206E+02  0.16991058451E+02  0.39644155008E+02  0.00000000000E+00 0. -1.
<mgrwt>
<rscale>  0 0.15206117E+03</rscale>
<asrwt>0</asrwt>
<pdfrwt beam="1">  1        2 0.48630209E-01 0.15903625E+03</pdfrwt>
<pdfrwt beam="2">  1       -2 0.10392404E-01 0.15903625E+03</pdfrwt>
<totfact> 0.62156526E+03</totfact>
</mgrwt>
</event>
<event>
 7    1  0.8712071E-006  0.1436339E+03  0.7546771E-02  0.1217961E+00
         -4   -1    0    0    0  501 -0.00000000000E+00  0.00000000000E+00  0.60753086846E+02  0.60753086846E+02  0.00000000000E+00 0.  1.
          4   -1    0    0  501    0  0.00000000000E+00 -0.00000000000E+00 -0.31269941209E+03  0.31269941209E+03  0.00000000000E+00 0. -1.
         23    2    1    2    0    0  0.30974176045E+02 -0.63608851923E+02 -0.77803836370E+02  0.16335274983E+03  0.12500079319E+03 0.  0.
          5    1    3    3  502    0  0.30088534887E+02 -0.94534467754E+02 -0.25726325734E+02  0.10259639058E+03  0.47000000000E+01 0. -1.
         -5    1    3    3    0  502  0.88564115790E+00  0.30925615831E+02 -0.52077510636E+02  0.60756359246E+02  0.47000000000E+01 0. -1.
        -11    1    1    2    0    0 -0.36677672950E+02  0.34498433110E+02 -0.21754098246E+02  0.54851019777E+02  0.00000000000E+00 0.  1.
         11    1    1    2    0    0  0.57034969048E+01  0.29110418813E+02 -0.15238839063E+03  0.15524872933E+03  0.00000000000E+00 0. -1.
<mgrwt>
<rscale>  0 0.13661286E+03</rscale>
<asrwt>0</asrwt>
<pdfrwt beam="2">  1        4 0.48107603E-01 0.14363385E+03</pdfrwt>
<pdfrwt beam="1">  1       -4 0.93466285E-02 0.14363385E+03</pdfrwt>
<totfact> 0.59838462E+02</totfact>
</mgrwt>
</event>
<event>
 7    1  0.8712071E-006  0.1438902E+03  0.7546771E-02  0.1218671E+00
          1   -1    0    0  501    0  0.00000000000E+00  0.00000000000E+00  0.30094798043E+02  0.30094798043E+02  0.00000000000E+00 0. -1.
         -1   -1    0    0    0  501 -0.00000000000E+00 -0.00000000000E+00 -0.67206266086E+03  0.67206266086E+03  0.00000000000E+00 0.  1.
         23    2    1    2    0    0  0.67866193026E+02 -0.21745931812E+02 -0.20631560841E+03  0.25153629162E+03  0.12500268006E+03 0.  0.
          5    1    3    3  502    0  0.10224115364E+03 -0.62344637003E+01 -0.17245152084E+03  0.20063334487E+03  0.47000000000E+01 0.  1.
         -5    1    3    3    0  502 -0.34374960615E+02 -0.15511468112E+02 -0.33864087569E+02  0.50902946743E+02  0.47000000000E+01 0.  1.
        -11    1    1    2    0    0  0.35808060778E+01  0.38659701795E+02 -0.10587057142E+03  0.11276512142E+03  0.00000000000E+00 0. -1.
         11    1    1    2    0    0 -0.71446999104E+02 -0.16913769983E+02 -0.32978168299E+03  0.33785604587E+03  0.00000000000E+00 0.  1.
<mgrwt>
<rscale>  0 0.13610311E+03</rscale>
<asrwt>0</asrwt>
<pdfrwt beam="1">  1        1 0.46299691E-02 0.14389015E+03</pdfrwt>
<pdfrwt beam="2">  1       -1 0.10339425E+00 0.14389015E+03</pdfrwt>
<totfact> 0.16913792E+03</totfact>
</mgrwt>
</event>
<event>
 7    1  0.8712071E-006  0.1396737E+03  0.7546771E-02  0.1224889E+00
          1   -1    0    0  501    0  0.00000000000E+00  0.00000000000E+00  0.23398723760E+03  0.23398723760E+03  0.00000000000E+00 0. -1.
         -1   -1    0    0    0  501 -0.00000000000E+00 -0.00000000000E+00 -0.76062204867E+02  0.76062204867E+02  0.00000000000E+00 0.  1.
         23    2    1    2    0    0  0.48532437577E+02 -0.39099254546E+02  0.33565465766E+02  0.14365022012E+03  0.12499838417E+03 0.  0.
          5    1    3    3  502    0 -0.13527170971E+02  0.23888786295E+02 -0.25048509236E+02  0.37458994648E+02  0.47000000000E+01 0.  1.
         -5    1    3    3    0  502  0.62059608548E+02 -0.62988040841E+02  0.58613975002E+02  0.10619122547E+03  0.47000000000E+01 0.  1.
        -11    1    1    2    0    0 -0.39983700672E+02  0.62663245662E+02  0.54480404236E+02  0.92160149317E+02  0.00000000000E+00 0. -1.
         11    1    1    2    0    0 -0.85487369053E+01 -0.23563991116E+02  0.69879162731E+02  0.74239073027E+02  0.00000000000E+00 0.  1.
<mgrwt>
<rscale>  0 0.13174526E+03</rscale>
<asrwt>0</asrwt>
<pdfrwt beam="1">  1        1 0.35998036E-01 0.13967371E+03</pdfrwt>
<pdfrwt beam="2">  1       -1 0.11701878E-01 0.13967371E+03</pdfrwt>
<totfact> 0.54793106E+03</totfact>
</mgrwt>
</event>
<event>
 7    1  0.8712071E-006  0.2104673E+03  0.7546771E-02  0.1145881E+00
          1   -1    0    0  501    0  0.00000000000E+00  0.00000000000E+00  0.76856828299E+03  0.76856828299E+03  0.00000000000E+00 0. -1.
         -1   -1    0    0    0  501 -0.00000000000E+00 -0.00000000000E+00 -0.61254279515E+02  0.61254279515E+02  0.00000000000E+00 0.  1.
         23    2    1    2    0    0 -0.15536082175E+03 -0.67348738412E+02  0.20653672659E+03  0.29487946369E+03  0.12499456457E+03 0.  0.
          5    1    3    3  502    0 -0.86099399144E+02  0.16678641438E+01  0.16956968288E+03  0.19024157184E+03  0.47000000000E+01 0.  1.
         -5    1    3    3    0  502 -0.69261422606E+02 -0.69016602556E+02  0.36967043712E+02  0.10463789185E+03  0.47000000000E+01 0.  1.
        -11    1    1    2    0    0  0.76423538630E+02  0.69152653005E+02  0.34838019638E+03  0.36330621782E+03  0.00000000000E+00 0. -1.
         11    1    1    2    0    0  0.78937283119E+02 -0.18039145922E+01  0.15239708051E+03  0.17163688100E+03  0.00000000000E+00 0.  1.
<mgrwt>
<rscale>  0 0.20464105E+03</rscale>
<asrwt>0</asrwt>
<pdfrwt beam="1">  1        1 0.11824127E+00 0.21046729E+03</pdfrwt>
<pdfrwt beam="2">  1       -1 0.94237358E-02 0.21046729E+03</pdfrwt>
<totfact> 0.16342753E+03</totfact>
</mgrwt>
</event>
<event>
 7    1  0.8712071E-006  0.1386493E+03  0.7546771E-02  0.1229712E+00
          1   -1    0    0  501    0  0.00000000000E+00  0.00000000000E+00  0.39404850616E+02  0.39404850616E+02  0.00000000000E+00 0. -1.
         -1   -1    0    0    0  501 -0.00000000000E+00 -0.00000000000E+00 -0.37009498567E+03  0.37009498567E+03  0.00000000000E+00 0.  1.
         23    2    1    2    0    0 -0.12912004707E+02  0.58578984876E+02 -0.20454744084E+03  0.24710987869E+03  0.12500167703E+03 0.  0.
          5    1    3    3  502    0 -0.39082361174E+02  0.16103530020E+02 -0.67493077453E+01  0.43062719249E+02  0.47000000000E+01 0. -1.
         -5    1    3    3    0  502  0.26170356467E+02  0.42475454856E+02 -0.19779813309E+03  0.20404715945E+03  0.47000000000E+01 0. -1.
        -11    1    1    2    0    0 -0.29421803701E+02 -0.51161526038E+02 -0.78760677972E+02  0.98419452722E+02  0.00000000000E+00 0.  1.
         11    1    1    2    0    0  0.42333808407E+02 -0.74174588381E+01 -0.47382016245E+02  0.63970504870E+02  0.00000000000E+00 0. -1.
<mgrwt>
<rscale>  0 0.12849082E+03</rscale>
<asrwt>0</asrwt>
<pdfrwt beam="1">  1        1 0.60622849E-02 0.13864933E+03</pdfrwt>
<pdfrwt beam="2">  1       -1 0.56937688E-01 0.13864933E+03</pdfrwt>
<totfact> 0.39313594E+03</totfact>
</mgrwt>
</event>
<event>
 7    1  0.8712071E-006  0.1295004E+03  0.7546771E-02  0.1244474E+00
         -1   -1    0    0    0  501 -0.00000000000E+00  0.00000000000E+00  0.93119650527E+02  0.93119650527E+02  0.00000000000E+00 0.  1.
          1   -1    0    0  501    0  0.00000000000E+00 -0.00000000000E+00 -0.16963722451E+03  0.16963722451E+03  0.00000000000E+00 0. -1.
         23    2    1    2    0    0 -0.10484326470E+02  0.32183081348E+02  0.17419987537E+02  0.13066676612E+03  0.12499870389E+03 0.  0.
          5    1    3    3  502    0  0.38202328244E+02  0.34591126249E+02  0.49910687644E+02  0.71896666400E+02  0.47000000000E+01 0.  1.
         -5    1    3    3    0  502 -0.48686654713E+02 -0.24080449012E+01 -0.32490700106E+02  0.58770099718E+02  0.47000000000E+01 0.  1.
        -11    1    1    2    0    0 -0.99797619607E+01  0.26898435321E+02 -0.18624499360E+02  0.34205166977E+02  0.00000000000E+00 0.  1.
         11    1    1    2    0    0  0.20464088430E+02 -0.59081516669E+02 -0.75313062165E+02  0.97884941947E+02  0.00000000000E+00 0. -1.
<mgrwt>
<rscale>  0 0.11916917E+03</rscale>
<asrwt>0</asrwt>
<pdfrwt beam="2">  1        1 0.26098035E-01 0.12950038E+03</pdfrwt>
<pdfrwt beam="1">  1       -1 0.14326100E-01 0.12950038E+03</pdfrwt>
<totfact> 0.59434880E+03</totfact>
</mgrwt>
</event>
<event>
 7    1  0.8712071E-006  0.1261659E+03  0.7546771E-02  0.1248457E+00
          2   -1    0    0  501    0  0.00000000000E+00  0.00000000000E+00  0.91801156668E+02  0.91801156668E+02  0.00000000000E+00 0. -1.
         -2   -1    0    0    0  501 -0.00000000000E+00 -0.00000000000E+00 -0.14103271313E+03  0.14103271313E+03  0.00000000000E+00 0.  1.
         23    2    1    2    0    0  0.91965117507E+01  0.14428849918E+02 -0.59641001082E+02  0.13955239974E+03  0.12500022290E+03 0.  0.
          5    1    3    3  502    0 -0.17388000637E+02 -0.32204829268E+02  0.21081734644E+02  0.42497330856E+02  0.47000000000E+01 0.  1.
         -5    1    3    3    0  502  0.26584512387E+02  0.46633679186E+02 -0.80722735726E+02  0.97055068886E+02  0.47000000000E+01 0.  1.
        -11    1    1    2    0    0 -0.30651159986E+02 -0.22264712584E+02  0.40530822285E+02  0.55479352826E+02  0.00000000000E+00 0. -1.
         11    1    1    2    0    0  0.21454648235E+02  0.78358626660E+01 -0.30121377660E+02  0.37802117226E+02  0.00000000000E+00 0.  1.
<mgrwt>
<rscale>  0 0.11680864E+03</rscale>
<asrwt>0</asrwt>
<pdfrwt beam="1">  1        2 0.14123255E-01 0.12616586E+03</pdfrwt>
<pdfrwt beam="2">  1       -2 0.21697340E-01 0.12616586E+03</pdfrwt>
<totfact> 0.71881384E+03</totfact>
</mgrwt>
</event>
<event>
 6    1  0.8712071E-006  0.1463550E+03  0.7546771E-02  0.1223095E+00
          2   -1    0    0  501    0  0.00000000000E+00  0.00000000000E+00  0.32119197398E+03  0.32119197398E+03  0.00000000000E+00 0. -1.
         -2   -1    0    0    0  501 -0.00000000000E+00 -0.00000000000E+00 -0.47765344075E+02  0.47765344075E+02  0.00000000000E+00 0.  1.
          5    1    1    2  502    0 -0.24920058054E+02  0.26264469286E+00  0.14337752872E+03  0.14560317310E+03  0.47000000000E+01 0. -1.
         -5    1    1    2    0  502  0.43258451466E+02 -0.38422534383E+02 -0.17270800152E+01  0.58074586327E+02  0.47000000000E+01 0.  1.
        -11    1    1    2    0    0 -0.78795306622E+01  0.66666204032E+02  0.73334545323E+02  0.99420447098E+02  0.00000000000E+00 0. -1.
         11    1    1    2    0    0 -0.10458862750E+02 -0.28506314341E+02  0.58441635881E+02  0.65859111532E+02  0.00000000000E+00 0.  1.
<mgrwt>
<rscale>  0 0.13298310E+03</rscale>
<asrwt>0</asrwt>
<pdfrwt beam="1">  1        2 0.49414149E-01 0.14635498E+03</pdfrwt>
<pdfrwt beam="2">  1       -2 0.73485147E-02 0.14635498E+03</pdfrwt>
<totfact> 0.10432656E+04</totfact>
</mgrwt>
</event>
<event>
 7    1  0.8712071E-006  0.1396168E+03  0.7546771E-02  0.1224706E+00
          4   -1    0    0  501    0  0.00000000000E+00  0.00000000000E+00  0.50717632128E+03  0.50717632128E+03  0.00000000000E+00 0. -1.
         -4   -1    0    0    0  501 -0.00000000000E+00 -0.00000000000E+00 -0.31920140038E+02  0.31920140038E+02  0.00000000000E+00 0.  1.
         23    2    1    2    0    0  0.50548066362E+02  0.36198922228E+02  0.21809720781E+03  0.25895796971E+03  0.12500947580E+03 0.  0.
          5    1    3    3  502    0  0.86774154603E+02  0.45508967053E+02  0.12780168373E+03  0.16110921871E+03  0.47000000000E+01 0.  1.
         -5    1    3    3    0  502 -0.36226088241E+02 -0.93100448252E+01  0.90295524083E+02  0.97848751006E+02  0.47000000000E+01 0.  1.
        -11    1    1    2    0    0 -0.32063930630E+02 -0.36861058082E+02  0.25704039716E+03  0.26164212012E+03  0.00000000000E+00 0. -1.
         11    1    1    2    0    0 -0.18484135732E+02  0.66213585322E+00  0.11857627187E+00  0.18496371482E+02  0.00000000000E+00 0.  1.
<mgrwt>
<rscale>  0 0.13187049E+03</rscale>
<asrwt>0</asrwt>
<pdfrwt beam="1">  1        4 0.78027121E-01 0.13961675E+03</pdfrwt>
<pdfrwt beam="2">  1       -4 0.49107911E-02 0.13961675E+03</pdfrwt>
<totfact> 0.61615962E+02</totfact>
</mgrwt>
</event>
<event>
 7    1  0.8712071E-006  0.1351038E+03  0.7546771E-02  0.1232210E+00
         -1   -1    0    0    0  501 -0.00000000000E+00  0.00000000000E+00  0.10405628834E+03  0.10405628834E+03  0.00000000000E+00 0.  1.
          1   -1    0    0  501    0  0.00000000000E+00 -0.00000000000E+00 -0.23998131959E+03  0.23998131959E+03  0.00000000000E+00 0. -1.
         23    2    1    2    0    0  0.49690630347E+02  0.12621684071E+02  0.38476468727E+02  0.14047585963E+03  0.12499825135E+03 0.  0.
          5    1    3    3  502    0  0.81175154648E+02  0.29932432199E+02  0.52851985046E+02  0.10149275123E+03  0.47000000000E+01 0. -1.
         -5    1    3    3    0  502 -0.31484524301E+02 -0.17310748128E+02 -0.14375516319E+02  0.38983108402E+02  0.47000000000E+01 0. -1.
        -11    1    1    2    0    0 -0.57307091581E+02 -0.48919967327E+01 -0.18163262911E+03  0.19052151147E+03  0.00000000000E+00 0. -1.
         11    1    1    2    0    0  0.76164612346E+01 -0.77296873384E+01  0.72311291307E+01  0.13040236830E+02  0.00000000000E+00 0.  1.
<mgrwt>
<rscale>  0 0.12684715E+03</rscale>
<asrwt>0</asrwt>
<pdfrwt beam="2">  1        1 0.36920203E-01 0.13510377E+03</pdfrwt>
<pdfrwt beam="1">  1       -1 0.16008660E-01 0.13510377E+03</pdfrwt>
<totfact> 0.32537829E+03</totfact>
</mgrwt>
</event>
<event>
 7    1  0.8712071E-006  0.1940892E+03  0.7546771E-02  0.1158900E+00
         -4   -1    0    0    0  501 -0.00000000000E+00  0.00000000000E+00  0.67528337079E+02  0.67528337079E+02  0.00000000000E+00 0.  1.
          4   -1    0    0  501    0  0.00000000000E+00 -0.00000000000E+00 -0.75113616540E+03  0.75113616540E+03  0.00000000000E+00 0. -1.
         23    2    1    2    0    0  0.14415987097E+03  0.35548995784E+02 -0.12023775345E+03  0.22831502241E+03  0.12499933042E+03 0.  0.
          5    1    3    3  502    0  0.10564605649E+03  0.55231148205E+02 -0.22605061186E+02  0.12142754125E+03  0.47000000000E+01 0.  1.
         -5    1    3    3    0  502  0.38513814481E+02 -0.19682152421E+02 -0.97632692262E+02  0.10688748116E+03  0.47000000000E+01 0.  1.
        -11    1    1    2    0    0 -0.26317113707E+02 -0.50568488017E+02 -0.20662857933E+03  0.21434815663E+03  0.00000000000E+00 0. -1.
         11    1    1    2    0    0 -0.11784275726E+03  0.15019492233E+02 -0.35674149554E+03  0.37600132344E+03  0.00000000000E+00 0.  1.
<mgrwt>
<rscale>  0 0.18951460E+03</rscale>
<asrwt>0</asrwt>
<pdfrwt beam="2">  1        4 0.11555941E+00 0.19408924E+03</pdfrwt>
<pdfrwt beam="1">  1       -4 0.10388975E-01 0.19408924E+03</pdfrwt>
<totfact> 0.76457854E+01</totfact>
</mgrwt>
</event>
<event>
 7    1  0.8712071E-006  0.1360962E+03  0.7546771E-02  0.1229166E+00
         -1   -1    0    0    0  501 -0.00000000000E+00  0.00000000000E+00  0.64450490298E+02  0.64450490298E+02  0.00000000000E+00 0.  1.
          1   -1    0    0  501    0  0.00000000000E+00 -0.00000000000E+00 -0.35925037948E+03  0.35925037948E+03  0.00000000000E+00 0. -1.
         23    2    1    2    0    0 -0.62434391585E+01 -0.53460403918E+02 -0.33089440009E+02  0.14006105231E+03  0.12500076806E+03 0.  0.
          5    1    3    3  502    0 -0.43596967913E+02 -0.77357223341E+02 -0.34671128998E+02  0.95441148359E+02  0.47000000000E+01 0. -1.
         -5    1    3    3    0  502  0.37353528755E+02  0.23896819422E+02  0.15816889886E+01  0.44619903955E+02  0.47000000000E+01 0. -1.
        -11    1    1    2    0    0 -0.34084572751E+02  0.10409876459E+01 -0.41505490647E+02  0.53717292455E+02  0.00000000000E+00 0.  1.
         11    1    1    2    0    0  0.40328011909E+02  0.52419416272E+02 -0.22020495853E+03  0.22992252501E+03  0.00000000000E+00 0. -1.
<mgrwt>
<rscale>  0 0.12885382E+03</rscale>
<asrwt>0</asrwt>
<pdfrwt beam="2">  1        1 0.55269289E-01 0.13609624E+03</pdfrwt>
<pdfrwt beam="1">  1       -1 0.99154601E-02 0.13609624E+03</pdfrwt>
<totfact> 0.41454717E+03</totfact>
</mgrwt>
</event>
<event>
 7    1  0.8712071E-006  0.1417226E+03  0.7546771E-02  0.1224492E+00
         -1   -1    0    0    0  501 -0.00000000000E+00  0.00000000000E+00  0.44166966708E+02  0.44166966708E+02  0.00000000000E+00 0.  1.
          1   -1    0    0  501    0  0.00000000000E+00 -0.00000000000E+00 -0.35031430828E+03  0.35031430828E+03  0.00000000000E+00 0. -1.
         23    2    1    2    0    0 -0.17207542668E+02  0.59823847341E+02 -0.18479905703E+03  0.23288621792E+03  0.12731970305E+03 0.  0.
          5    1    3    3  502    0 -0.56782773397E+02  0.75416245016E+02 -0.15190127025E+03  0.17890773955E+03  0.47000000000E+01 0. -1.
         -5    1    3    3    0  502  0.39575230729E+02 -0.15592397675E+02 -0.32897786778E+02  0.53978478373E+02  0.47000000000E+01 0.  1.
        -11    1    1    2    0    0 -0.34001156824E+02 -0.37756178203E+02 -0.62021244458E+02  0.80176320831E+02  0.00000000000E+00 0. -1.
         11    1    1    2    0    0  0.51208699493E+02 -0.22067669138E+02 -0.59327040084E+02  0.81418736234E+02  0.00000000000E+00 0.  1.
<mgrwt>
<rscale>  0 0.13201801E+03</rscale>
<asrwt>0</asrwt>
<pdfrwt beam="2">  1        1 0.53894508E-01 0.14172261E+03</pdfrwt>
<pdfrwt beam="1">  1       -1 0.67949180E-02 0.14172261E+03</pdfrwt>
<totfact> 0.75920414E+03</totfact>
</mgrwt>
</event>
<event>
 7    1  0.8712071E-006  0.2055097E+03  0.7546771E-02  0.1149595E+00
          1   -1    0    0  501    0  0.00000000000E+00  0.00000000000E+00  0.10537681976E+03  0.10537681976E+03  0.00000000000E+00 0. -1.
         -1   -1    0    0    0  501 -0.00000000000E+00 -0.00000000000E+00 -0.37908315695E+03  0.37908315695E+03  0.00000000000E+00 0.  1.
         23    2    1    2    0    0 -0.11828469180E+03  0.11232763292E+03 -0.19545936534E+03  0.28361699060E+03  0.12500187368E+03 0.  0.
          5    1    3    3  502    0 -0.11348389269E+03  0.53652795117E+02 -0.67308254800E+02  0.14251213102E+03  0.47000000000E+01 0.  1.
         -5    1    3    3    0  502 -0.48007991119E+01  0.58674837806E+02 -0.12815111054E+03  0.14110485958E+03  0.47000000000E+01 0.  1.
        -11    1    1    2    0    0 -0.68066684025E+01 -0.25287855879E+02 -0.32486280577E+02  0.41727267050E+02  0.00000000000E+00 0. -1.
         11    1    1    2    0    0  0.12509136020E+03 -0.87039777043E+02 -0.45760691276E+02  0.15911571906E+03  0.00000000000E+00 0.  1.
<mgrwt>
<rscale>  0 0.20017130E+03</rscale>
<asrwt>0</asrwt>
<pdfrwt beam="1">  1        1 0.16211818E-01 0.20550969E+03</pdfrwt>
<pdfrwt beam="2">  1       -1 0.58320486E-01 0.20550969E+03</pdfrwt>
<totfact> 0.10277723E+03</totfact>
</mgrwt>
</event>
<event>
 7    1  0.8712071E-006  0.1887710E+03  0.7546771E-02  0.1163785E+00
          1   -1    0    0  501    0  0.00000000000E+00  0.00000000000E+00  0.92840494820E+03  0.92840494820E+03  0.00000000000E+00 0. -1.
         -1   -1    0    0    0  501 -0.00000000000E+00 -0.00000000000E+00 -0.34929421254E+02  0.34929421254E+02  0.00000000000E+00 0.  1.
         23    2    1    2    0    0 -0.13944072981E+03 -0.23779576330E+02  0.48419365410E+03  0.51969027030E+03  0.12500118795E+03 0.  0.
          5    1    3    3  502    0 -0.13080061549E+03  0.95886980022E+01  0.24458259881E+03  0.27756707619E+03  0.47000000000E+01 0. -1.
         -5    1    3    3    0  502 -0.86401143145E+01 -0.33368274333E+02  0.23961105529E+03  0.24212319411E+03  0.47000000000E+01 0. -1.
        -11    1    1    2    0    0  0.45722250815E+02 -0.29385465026E+02  0.76413900446E+02  0.93771605274E+02  0.00000000000E+00 0.  1.
         11    1    1    2    0    0  0.93718478994E+02  0.53165041356E+02  0.33286797240E+03  0.34987249389E+03  0.00000000000E+00 0. -1.
<mgrwt>
<rscale>  0 0.18421522E+03</rscale>
<asrwt>0</asrwt>
<pdfrwt beam="1">  1        1 0.14283151E+00 0.18877098E+03</pdfrwt>
<pdfrwt beam="2">  1       -1 0.53737578E-02 0.18877098E+03</pdfrwt>
<totfact> 0.28416149E+03</totfact>
</mgrwt>
</event>
<event>
 6    1  0.8712071E-006  0.1522963E+03  0.7546771E-02  0.1213184E+00
          1   -1    0    0  501    0  0.00000000000E+00  0.00000000000E+00  0.47098798465E+02  0.47098798465E+02  0.00000000000E+00 0. -1.
         -1   -1    0    0    0  501 -0.00000000000E+00 -0.00000000000E+00 -0.48493078814E+03  0.48493078814E+03  0.00000000000E+00 0.  1.
          5    1    1    2  502    0 -0.46235053713E+01  0.66236757410E+02 -0.80469497253E+02  0.10443234567E+03  0.47000000000E+01 0. -1.
         -5    1    1    2    0  502 -0.45368463823E+02 -0.35432868768E+02 -0.29771397808E+03  0.30326471678E+03  0.47000000000E+01 0.  1.
        -11    1    1    2    0    0  0.18421315029E+02 -0.43194444238E+02 -0.73889686949E+02  0.87548790385E+02  0.00000000000E+00 0. -1.
         11    1    1    2    0    0  0.31570654165E+02  0.12390555595E+02  0.14241172612E+02  0.36783733766E+02  0.00000000000E+00 0.  1.
<mgrwt>
<rscale>  0 0.14010809E+03</rscale>
<asrwt>0</asrwt>
<pdfrwt beam="1">  1        1 0.72459694E-02 0.15229627E+03</pdfrwt>
<pdfrwt beam="2">  1       -1 0.74604732E-01 0.15229627E+03</pdfrwt>
<totfact> 0.18352372E+03</totfact>
</mgrwt>
</event>
<event>
 6    1  0.8712071E-006  0.2346969E+03  0.7546771E-02  0.1158746E+00
         -3   -1    0    0    0  501 -0.00000000000E+00  0.00000000000E+00  0.15109463348E+03  0.15109463348E+03  0.00000000000E+00 0.  1.
          3   -1    0    0  501    0  0.00000000000E+00 -0.00000000000E+00 -0.22642249045E+03  0.22642249045E+03  0.00000000000E+00 0. -1.
          5    1    1    2  502    0  0.85478924310E+01 -0.91084064223E+02 -0.31273134705E+02  0.96796033879E+02  0.47000000000E+01 0. -1.
         -5    1    1    2    0  502 -0.33972235882E+02  0.12275266142E+03  0.55953801682E+02  0.13919499495E+03  0.47000000000E+01 0.  1.
        -11    1    1    2    0    0  0.33885382003E+02  0.11774431291E+02 -0.88942663424E+02  0.95904398870E+02  0.00000000000E+00 0.  1.
         11    1    1    2    0    0 -0.84610385524E+01 -0.43443028489E+02 -0.11065860522E+02  0.45621696229E+02  0.00000000000E+00 0. -1.
<mgrwt>
<rscale>  0 0.18968453E+03</rscale>
<asrwt>0</asrwt>
<pdfrwt beam="2">  1        3 0.34834229E-01 0.23469689E+03</pdfrwt>
<pdfrwt beam="1">  1       -3 0.23245328E-01 0.23469689E+03</pdfrwt>
<totfact> 0.34527570E+02</totfact>
</mgrwt>
</event>
<event>
 7    1  0.8712071E-006  0.1347732E+03  0.7546771E-02  0.1233512E+00
          1   -1    0    0  501    0  0.00000000000E+00  0.00000000000E+00  0.18060745607E+03  0.18060745607E+03  0.00000000000E+00 0. -1.
         -1   -1    0    0    0  501 -0.00000000000E+00 -0.00000000000E+00 -0.93481562022E+02  0.93481562022E+02  0.00000000000E+00 0.  1.
         23    2    1    2    0    0 -0.47063997873E+02 -0.17967228588E+02 -0.64879831772E+01  0.13492932034E+03  0.12500394539E+03 0.  0.
          5    1    3    3  502    0  0.37743776868E+02 -0.29031799834E+02 -0.11206840964E+02  0.49143884444E+02  0.47000000000E+01 0.  1.
         -5    1    3    3    0  502 -0.84807774741E+02  0.11064571246E+02  0.47188577867E+01  0.85785435898E+02  0.47000000000E+01 0.  1.
        -11    1    1    2    0    0  0.36415690116E+02 -0.24792881226E+02  0.10811257210E+02  0.45361577668E+02  0.00000000000E+00 0.  1.
         11    1    1    2    0    0  0.10648307757E+02  0.42760109814E+02  0.82802620012E+02  0.93798120078E+02  0.00000000000E+00 0. -1.
<mgrwt>
<rscale>  0 0.12600145E+03</rscale>
<asrwt>0</asrwt>
<pdfrwt beam="1">  1        1 0.27785762E-01 0.13477324E+03</pdfrwt>
<pdfrwt beam="2">  1       -1 0.14381779E-01 0.13477324E+03</pdfrwt>
<totfact> 0.54770668E+03</totfact>
</mgrwt>
</event>
<event>
 7    1  0.8712071E-006  0.1351048E+03  0.7546771E-02  0.1224292E+00
          1   -1    0    0  501    0  0.00000000000E+00  0.00000000000E+00  0.16217551388E+03  0.16217551388E+03  0.00000000000E+00 0. -1.
         -1   -1    0    0    0  501 -0.00000000000E+00 -0.00000000000E+00 -0.13106188909E+03  0.13106188909E+03  0.00000000000E+00 0.  1.
         23    2    1    2    0    0 -0.49476981844E+02  0.13550092992E+02 -0.51400152298E+02  0.14455201628E+03  0.12498693133E+03 0.  0.
          5    1    3    3  502    0 -0.44156125530E+02 -0.51171717071E+02 -0.39305207497E+02  0.78328139173E+02  0.47000000000E+01 0.  1.
         -5    1    3    3    0  502 -0.53208563135E+01  0.64721810063E+02 -0.12094944800E+02  0.66223877110E+02  0.47000000000E+01 0.  1.
        -11    1    1    2    0    0  0.70865172498E+02 -0.33643567902E+02  0.88993554116E+02  0.11863226799E+03  0.00000000000E+00 0. -1.
         11    1    1    2    0    0 -0.21388190655E+02  0.20093474910E+02 -0.64797770268E+01  0.30053118703E+02  0.00000000000E+00 0.  1.
<mgrwt>
<rscale>  0 0.13215553E+03</rscale>
<asrwt>0</asrwt>
<pdfrwt beam="1">  1        1 0.24950079E-01 0.13510481E+03</pdfrwt>
<pdfrwt beam="2">  1       -1 0.20163368E-01 0.13510481E+03</pdfrwt>
<totfact> 0.36711191E+03</totfact>
</mgrwt>
</event>
<event>
 7    1  0.8712071E-006  0.1415121E+03  0.7546771E-02  0.1221723E+00
          1   -1    0    0  501    0  0.00000000000E+00  0.00000000000E+00  0.57669522446E+02  0.57669522446E+02  0.00000000000E+00 0. -1.
         -1   -1    0    0    0  501 -0.00000000000E+00 -0.00000000000E+00 -0.28232424287E+03  0.28232424287E+03  0.00000000000E+00 0.  1.
         23    2    1    2    0    0 -0.54039291950E+02  0.38445423294E+02 -0.11953611628E+03  0.18524190316E+03  0.12500953542E+03 0.  0.
          5    1    3    3  502    0 -0.61683605527E+02  0.77657413574E+02 -0.98463255418E+02  0.13983076822E+03  0.47000000000E+01 0. -1.
         -5    1    3    3    0  502  0.76443135769E+01 -0.39211990280E+02 -0.21072860865E+02  0.45411134943E+02  0.47000000000E+01 0. -1.
        -11    1    1    2    0    0  0.35102324585E+02 -0.17668559607E+02  0.63367625054E+01  0.39805850687E+02  0.00000000000E+00 0. -1.
         11    1    1    2    0    0  0.18936967365E+02 -0.20776863687E+02 -0.11145536664E+03  0.11494601146E+03  0.00000000000E+00 0.  1.
<mgrwt>
<rscale>  0 0.13394035E+03</rscale>
<asrwt>0</asrwt>
<pdfrwt beam="1">  1        1 0.88722343E-02 0.14151212E+03</pdfrwt>
<pdfrwt beam="2">  1       -1 0.43434498E-01 0.14151212E+03</pdfrwt>
<totfact> 0.38625958E+03</totfact>
</mgrwt>
</event>
<event>
 7    1  0.8712071E-006  0.1256885E+03  0.7546771E-02  0.1248783E+00
         -2   -1    0    0    0  501 -0.00000000000E+00  0.00000000000E+00  0.89583462455E+02  0.89583462455E+02  0.00000000000E+00 0.  1.
          2   -1    0    0  501    0  0.00000000000E+00 -0.00000000000E+00 -0.14501707508E+03  0.14501707508E+03  0.00000000000E+00 0. -1.
         23    2    1    2    0    0 -0.93729572552E+01 -0.91667597449E+01 -0.64028056643E+02  0.14105741771E+03  0.12500288493E+03 0.  0.
          5    1    3    3  502    0 -0.84730869793E+01 -0.20438894746E+02 -0.10027669842E+03  0.10279614715E+03  0.47000000000E+01 0.  1.
         -5    1    3    3    0  502 -0.89987027590E+00  0.11272135001E+02  0.36248641782E+02  0.38261270562E+02  0.47000000000E+01 0.  1.
        -11    1    1    2    0    0  0.11676070131E+02  0.19063708195E+02  0.47945592656E+02  0.52901185610E+02  0.00000000000E+00 0.  1.
         11    1    1    2    0    0 -0.23031128758E+01 -0.98969484501E+01 -0.39351148638E+02  0.40641934215E+02  0.00000000000E+00 0. -1.
<mgrwt>
<rscale>  0 0.11661770E+03</rscale>
<asrwt>0</asrwt>
<pdfrwt beam="2">  1        2 0.22310319E-01 0.12568852E+03</pdfrwt>
<pdfrwt beam="1">  1       -2 0.13782071E-01 0.12568852E+03</pdfrwt>
<totfact> 0.90410975E+03</totfact>
</mgrwt>
</event>
<event>
 7    1  0.8712071E-006  0.1665101E+03  0.7546771E-02  0.1188300E+00
          1   -1    0    0  501    0  0.00000000000E+00  0.00000000000E+00  0.23717999933E+03  0.23717999933E+03  0.00000000000E+00 0.  1.
         -1   -1    0    0    0  501 -0.00000000000E+00 -0.00000000000E+00 -0.10214311359E+03  0.10214311359E+03  0.00000000000E+00 0. -1.
         23    2    1    2    0    0 -0.29369856724E+02 -0.10601359379E+03  0.55550534067E+02  0.17553197978E+03  0.12499657410E+03 0.  0.
          5    1    3    3  502    0  0.25171267759E+02 -0.48260850612E+02  0.75784897339E+02  0.93424531506E+02  0.47000000000E+01 0. -1.
         -5    1    3    3    0  502 -0.54541124483E+02 -0.57752743177E+02 -0.20234363272E+02  0.82107448270E+02  0.47000000000E+01 0. -1.
        -11    1    1    2    0    0 -0.11985456082E+02  0.91257353886E+01  0.53095254694E+02  0.55190907539E+02  0.00000000000E+00 0.  1.
         11    1    1    2    0    0  0.41355312807E+02  0.96887858401E+02  0.26391096972E+02  0.10860022561E+03  0.00000000000E+00 0. -1.
<mgrwt>
<rscale>  0 0.16035212E+03</rscale>
<asrwt>0</asrwt>
<pdfrwt beam="1">  1        1 0.36489231E-01 0.16651010E+03</pdfrwt>
<pdfrwt beam="2">  1       -1 0.15714325E-01 0.16651010E+03</pdfrwt>
<totfact> 0.34329057E+03</totfact>
</mgrwt>
</event>
<event>
 7    1  0.8712071E-006  0.1269016E+03  0.7546771E-02  0.1249277E+00
          3   -1    0    0  501    0  0.00000000000E+00  0.00000000000E+00  0.30577530200E+02  0.30577530200E+02  0.00000000000E+00 0. -1.
         -3   -1    0    0    0  501 -0.00000000000E+00 -0.00000000000E+00 -0.46237195187E+03  0.46237195187E+03  0.00000000000E+00 0.  1.
         23    2    1    2    0    0 -0.17845289527E+02 -0.12940045342E+02 -0.34740240138E+03  0.36985464003E+03  0.12497250552E+03 0.  0.
          5    1    3    3  502    0  0.34792958875E+02  0.29976266248E+02 -0.22600000882E+03  0.23066690381E+03  0.47000000000E+01 0. -1.
         -5    1    3    3    0  502 -0.52638248403E+02 -0.42916311589E+02 -0.12140239256E+03  0.13918773622E+03  0.47000000000E+01 0. -1.
        -11    1    1    2    0    0  0.33976047931E+02  0.24481316031E+02 -0.60875662280E+01  0.42317432935E+02  0.00000000000E+00 0. -1.
         11    1    1    2    0    0 -0.16130758403E+02 -0.11541270690E+02 -0.78304454061E+02  0.80777409104E+02  0.00000000000E+00 0.  1.
<mgrwt>
<rscale>  0 0.11633009E+03</rscale>
<asrwt>0</asrwt>
<pdfrwt beam="1">  1        3 0.47042358E-02 0.12690164E+03</pdfrwt>
<pdfrwt beam="2">  1       -3 0.71134141E-01 0.12690164E+03</pdfrwt>
<totfact> 0.11010716E+03</totfact>
</mgrwt>
</event>
<event>
 7    1  0.8712071E-006  0.1304634E+03  0.7546771E-02  0.1240732E+00
         -2   -1    0    0    0  501 -0.00000000000E+00  0.00000000000E+00  0.15522369291E+04  0.15522369291E+04  0.00000000000E+00 0.  1.
          2   -1    0    0  501    0  0.00000000000E+00 -0.00000000000E+00 -0.88272408390E+01  0.88272408390E+01  0.00000000000E+00 0. -1.
         23    2    1    2    0    0 -0.25121330104E+02 -0.27645035997E+02  0.10455613621E+04  0.10536694302E+04  0.12500150774E+03 0.  0.
          5    1    3    3  502    0 -0.16222261275E+02 -0.56504839075E+02  0.97488695972E+03  0.97666915219E+03  0.47000000000E+01 0. -1.
         -5    1    3    3    0  502 -0.88990688287E+01  0.28859803078E+02  0.70674402414E+02  0.77000278027E+02  0.47000000000E+01 0. -1.
        -11    1    1    2    0    0 -0.33459631145E+01  0.56843555339E+02  0.30741422006E+03  0.31264338782E+03  0.00000000000E+00 0. -1.
         11    1    1    2    0    0  0.28467293219E+02 -0.29198519342E+02  0.19043410603E+03  0.19475135187E+03  0.00000000000E+00 0.  1.
<mgrwt>
<rscale>  0 0.12144524E+03</rscale>
<asrwt>0</asrwt>
<pdfrwt beam="2">  1        2 0.13580383E-02 0.13046343E+03</pdfrwt>
<pdfrwt beam="1">  1       -2 0.23880546E+00 0.13046343E+03</pdfrwt>
<totfact> 0.76268585E+02</totfact>
</mgrwt>
</event>
<event>
 7    1  0.8712071E-006  0.2344753E+03  0.7546771E-02  0.1124892E+00
         -2   -1    0    0    0  501 -0.00000000000E+00  0.00000000000E+00  0.81775138439E+02  0.81775138439E+02  0.00000000000E+00 0.  1.
          2   -1    0    0  501    0  0.00000000000E+00 -0.00000000000E+00 -0.68549164554E+03  0.68549164554E+03  0.00000000000E+00 0. -1.
         23    2    1    2    0    0 -0.17606933551E+03  0.91453716185E+02 -0.21958644955E+03  0.32124268474E+03  0.12495783515E+03 0.  0.
          5    1    3    3  502    0 -0.50034324599E+02 -0.29927243476E+02 -0.67910065787E+02  0.89626673348E+02  0.47000000000E+01 0. -1.
         -5    1    3    3    0  502 -0.12603501091E+03  0.12138095966E+03 -0.15167638376E+03  0.23161601140E+03  0.47000000000E+01 0. -1.
        -11    1    1    2    0    0  0.11818403028E+03  0.70109994829E-01 -0.20975587940E+03  0.24075921347E+03  0.00000000000E+00 0. -1.
         11    1    1    2    0    0  0.57885305231E+02 -0.91523826180E+02 -0.17437417815E+03  0.20526488576E+03  0.00000000000E+00 0.  1.
<mgrwt>
<rscale>  0 0.23250042E+03</rscale>
<asrwt>0</asrwt>
<pdfrwt beam="2">  1        2 0.10546025E+00 0.23447527E+03</pdfrwt>
<pdfrwt beam="1">  1       -2 0.12580790E-01 0.23447527E+03</pdfrwt>
<totfact> 0.19630929E+03</totfact>
</mgrwt>
</event>
<event>
 7    1  0.8712071E-006  0.1359108E+03  0.7546771E-02  0.1231260E+00
         -1   -1    0    0    0  501 -0.00000000000E+00  0.00000000000E+00  0.48027032306E+02  0.48027032306E+02  0.00000000000E+00 0.  1.
          1   -1    0    0  501    0  0.00000000000E+00 -0.00000000000E+00 -0.35075208828E+03  0.35075208828E+03  0.00000000000E+00 0. -1.
         23    2    1    2    0    0 -0.41644162125E+02  0.33396968279E+02 -0.94593202255E+02  0.16558874308E+03  0.12498865626E+03 0.  0.
          5    1    3    3  502    0 -0.72358305997E+02  0.55318981156E+02 -0.88487734638E+02  0.12707510891E+03  0.47000000000E+01 0.  1.
         -5    1    3    3    0  502  0.30714143872E+02 -0.21922012877E+02 -0.61054676164E+01  0.38513634172E+02  0.47000000000E+01 0.  1.
        -11    1    1    2    0    0  0.26341252538E+01 -0.32276112769E+02 -0.18502303010E+03  0.18783558698E+03  0.00000000000E+00 0. -1.
         11    1    1    2    0    0  0.39010036872E+02 -0.11208555102E+01 -0.23108823619E+02  0.45354790517E+02  0.00000000000E+00 0.  1.
<mgrwt>
<rscale>  0 0.12746898E+03</rscale>
<asrwt>0</asrwt>
<pdfrwt beam="2">  1        1 0.53961859E-01 0.13591085E+03</pdfrwt>
<pdfrwt beam="1">  1       -1 0.73887744E-02 0.13591085E+03</pdfrwt>
<totfact> 0.66665949E+03</totfact>
</mgrwt>
</event>
<event>
 7    1  0.8712071E-006  0.1492552E+03  0.7546771E-02  0.1210672E+00
         -2   -1    0    0    0  501 -0.00000000000E+00  0.00000000000E+00  0.29802912690E+03  0.29802912690E+03  0.00000000000E+00 0.  1.
          2   -1    0    0  501    0  0.00000000000E+00 -0.00000000000E+00 -0.83582179148E+02  0.83582179148E+02  0.00000000000E+00 0. -1.
         23    2    1    2    0    0 -0.22589176119E+02 -0.78373094509E+02  0.21207301760E+03  0.25933007219E+03  0.12499803489E+03 0.  0.
          5    1    3    3  502    0 -0.30791418196E+02 -0.11003823060E+03  0.18014529633E+03  0.21337980555E+03  0.47000000000E+01 0.  1.
         -5    1    3    3    0  502  0.82022420770E+01  0.31665136088E+02  0.31927721270E+02  0.45950266637E+02  0.47000000000E+01 0.  1.
        -11    1    1    2    0    0 -0.62009307105E+01  0.32319694046E+02  0.43220744842E+02  0.54323539554E+02  0.00000000000E+00 0.  1.
         11    1    1    2    0    0  0.28790106830E+02  0.46053400462E+02 -0.40846814688E+02  0.67957694307E+02  0.00000000000E+00 0. -1.
<mgrwt>
<rscale>  0 0.14199290E+03</rscale>
<asrwt>0</asrwt>
<pdfrwt beam="2">  1        2 0.12858797E-01 0.14925522E+03</pdfrwt>
<pdfrwt beam="1">  1       -2 0.45850634E-01 0.14925522E+03</pdfrwt>
<totfact> 0.20829282E+03</totfact>
</mgrwt>
</event>
<event>
 7    1  0.8712071E-006  0.1689184E+03  0.7546771E-02  0.1185846E+00
          3   -1    0    0  501    0  0.00000000000E+00  0.00000000000E+00  0.24559724132E+03  0.24559724132E+03  0.00000000000E+00 0. -1.
         -3   -1    0    0    0  501 -0.00000000000E+00 -0.00000000000E+00 -0.10459635264E+03  0.10459635264E+03  0.00000000000E+00 0.  1.
         23    2    1    2    0    0 -0.28295970576E+02  0.11004662511E+03  0.39962932860E+02  0.17358128370E+03  0.12499001719E+03 0.  0.
          5    1    3    3  502    0 -0.15775495752E+02  0.12935686296E+03  0.59210665127E+02  0.14321332734E+03  0.47000000000E+01 0. -1.
         -5    1    3    3    0  502 -0.12520474824E+02 -0.19310237858E+02 -0.19247732267E+02  0.30367956358E+02  0.47000000000E+01 0. -1.
        -11    1    1    2    0    0 -0.24361667277E+01 -0.73218451557E+02  0.10549742365E+03  0.12843902426E+03  0.00000000000E+00 0.  1.
         11    1    1    2    0    0  0.30732137304E+02 -0.36828173549E+02 -0.44594678275E+01  0.48173285995E+02  0.00000000000E+00 0. -1.
<mgrwt>
<rscale>  0 0.16255180E+03</rscale>
<asrwt>0</asrwt>
<pdfrwt beam="1">  1        3 0.37784191E-01 0.16891840E+03</pdfrwt>
<pdfrwt beam="2">  1       -3 0.16091747E-01 0.16891840E+03</pdfrwt>
<totfact> 0.54471925E+02</totfact>
</mgrwt>
</event>
<event>
 7    1  0.8712071E-006  0.1208559E+03  0.7546771E-02  0.1253028E+00
         -3   -1    0    0    0  501 -0.00000000000E+00  0.00000000000E+00  0.46862939153E+03  0.46862939153E+03  0.00000000000E+00 0.  1.
          3   -1    0    0  501    0  0.00000000000E+00 -0.00000000000E+00 -0.25194148258E+02  0.25194148258E+02  0.00000000000E+00 0. -1.
         23    2    1    2    0    0  0.24139594927E+01 -0.20857468395E+02  0.25715080787E+03  0.28413499582E+03  0.11901805190E+03 0.  0.
          5    1    3    3  502    0 -0.10129451770E+02 -0.68517262786E+02  0.12449298608E+03  0.14254057203E+03  0.47000000000E+01 0. -1.
         -5    1    3    3    0  502  0.12543411263E+02  0.47659794391E+02  0.13265782179E+03  0.14159442379E+03  0.47000000000E+01 0.  1.
        -11    1    1    2    0    0 -0.43003541084E+02  0.32629560556E+02  0.10678544363E+03  0.11965418396E+03  0.00000000000E+00 0.  1.
         11    1    1    2    0    0  0.40589581592E+02 -0.11772092161E+02  0.79498991772E+02  0.90034359999E+02  0.00000000000E+00 0. -1.
<mgrwt>
<rscale>  0 0.11417492E+03</rscale>
<asrwt>0</asrwt>
<pdfrwt beam="2">  1        3 0.38760231E-02 0.12085594E+03</pdfrwt>
<pdfrwt beam="1">  1       -3 0.72096823E-01 0.12085594E+03</pdfrwt>
<totfact> 0.14372941E+03</totfact>
</mgrwt>
</event>
<event>
 7    1  0.8712071E-006  0.1320469E+03  0.7546771E-02  0.1237738E+00
         -2   -1    0    0    0  501 -0.00000000000E+00  0.00000000000E+00  0.18508386834E+02  0.18508386834E+02  0.00000000000E+00 0.  1.
          2   -1    0    0  501    0  0.00000000000E+00 -0.00000000000E+00 -0.80149479570E+03  0.80149479570E+03  0.00000000000E+00 0. -1.
         23    2    1    2    0    0 -0.27000760273E+02 -0.32880572901E+02 -0.31850302293E+03  0.34479060964E+03  0.12500486291E+03 0.  0.
          5    1    3    3  502    0  0.17213484510E+02 -0.26002038812E+02 -0.28960571251E+03  0.29131764243E+03  0.47000000000E+01 0.  1.
         -5    1    3    3    0  502 -0.44214244783E+02 -0.68785340889E+01 -0.28897310419E+02  0.53472967211E+02  0.47000000000E+01 0.  1.
        -11    1    1    2    0    0 -0.25813254437E+02  0.38084801266E+02 -0.25460099329E+03  0.25872464509E+03  0.00000000000E+00 0. -1.
         11    1    1    2    0    0  0.52814014710E+02 -0.52042283653E+01 -0.20988239264E+03  0.21648792780E+03  0.00000000000E+00 0.  1.
<mgrwt>
<rscale>  0 0.12330778E+03</rscale>
<asrwt>0</asrwt>
<pdfrwt beam="2">  1        2 0.12330688E+00 0.13204692E+03</pdfrwt>
<pdfrwt beam="1">  1       -2 0.28474443E-02 0.13204692E+03</pdfrwt>
<totfact> 0.15410369E+04</totfact>
</mgrwt>
</event>
<event>
 7    1  0.8712071E-006  0.1163166E+03  0.7546771E-02  0.1284148E+00
         -2   -1    0    0    0  501 -0.00000000000E+00  0.00000000000E+00  0.23389954442E+02  0.23389954442E+02  0.00000000000E+00 0.  1.
          2   -1    0    0  501    0  0.00000000000E+00 -0.00000000000E+00 -0.32968002067E+03  0.32968002067E+03  0.00000000000E+00 0. -1.
         23    2    1    2    0    0 -0.16063945264E+02 -0.27539142840E+02 -0.19422357015E+03  0.22638981760E+03  0.11186196667E+03 0.  0.
          5    1    3    3  502    0 -0.23827639062E+02  0.26220256761E+02 -0.15540578741E+03  0.15946255676E+03  0.47000000000E+01 0. -1.
         -5    1    3    3    0  502  0.77636937982E+01 -0.53759399601E+02 -0.38817782737E+02  0.66927260839E+02  0.47000000000E+01 0.  1.
        -11    1    1    2    0    0  0.30108369013E+02  0.31663951234E+02 -0.91933456615E+02  0.10178840866E+03  0.00000000000E+00 0. -1.
         11    1    1    2    0    0 -0.14044423749E+02 -0.41248083939E+01 -0.20133039460E+02  0.24891748847E+02  0.00000000000E+00 0.  1.
<mgrwt>
<rscale>  0 0.98190247E+02</rscale>
<asrwt>0</asrwt>
<pdfrwt beam="2">  1        2 0.50720004E-01 0.11631661E+03</pdfrwt>
<pdfrwt beam="1">  1       -2 0.35984545E-02 0.11631661E+03</pdfrwt>
<totfact> 0.29085838E+04</totfact>
</mgrwt>
</event>
<event>
 7    1  0.8712071E-006  0.1263626E+03  0.7546771E-02  0.1246822E+00
         -1   -1    0    0    0  501 -0.00000000000E+00  0.00000000000E+00  0.56291840939E+02  0.56291840939E+02  0.00000000000E+00 0.  1.
          1   -1    0    0  501    0  0.00000000000E+00 -0.00000000000E+00 -0.22009306872E+03  0.22009306872E+03  0.00000000000E+00 0. -1.
         23    2    1    2    0    0  0.18343105047E+02  0.23975441487E+01 -0.80895700279E+02  0.15003870024E+03  0.12500111810E+03 0.  0.
          5    1    3    3  502    0 -0.67982716522E+01  0.49105825808E+02 -0.82947040598E+02  0.96746577044E+02  0.47000000000E+01 0. -1.
         -5    1    3    3    0  502  0.25141376700E+02 -0.46708281659E+02  0.20513403195E+01  0.53292123198E+02  0.47000000000E+01 0. -1.
        -11    1    1    2    0    0 -0.46404765083E+02  0.11380341411E+02 -0.12614621986E+02  0.49417032295E+02  0.00000000000E+00 0.  1.
         11    1    1    2    0    0  0.28061660035E+02 -0.13777885560E+02 -0.70290905514E+02  0.76929177120E+02  0.00000000000E+00 0. -1.
<mgrwt>
<rscale>  0 0.11776996E+03</rscale>
<asrwt>0</asrwt>
<pdfrwt beam="2">  1        1 0.33860472E-01 0.12636256E+03</pdfrwt>
<pdfrwt beam="1">  1       -1 0.86602834E-02 0.12636256E+03</pdfrwt>
<totfact> 0.92922837E+03</totfact>
</mgrwt>
</event>
<event>
 7    1  0.8712071E-006  0.1895312E+03  0.7546771E-02  0.1161501E+00
         -2   -1    0    0    0  501 -0.00000000000E+00  0.00000000000E+00  0.11148727732E+03  0.11148727732E+03  0.00000000000E+00 0.  1.
          2   -1    0    0  501    0  0.00000000000E+00 -0.00000000000E+00 -0.34351275503E+03  0.34351275503E+03  0.00000000000E+00 0. -1.
         23    2    1    2    0    0  0.15287132155E+03 -0.71240328245E+01 -0.41477866604E+02  0.19401672137E+03  0.11181092056E+03 0.  0.
          5    1    3    3  502    0  0.13110262429E+03  0.39347728420E+02 -0.39086321749E+02  0.14242883267E+03  0.47000000000E+01 0. -1.
         -5    1    3    3    0  502  0.21768697257E+02 -0.46471761245E+02 -0.23915448548E+01  0.51587888697E+02  0.47000000000E+01 0.  1.
        -11    1    1    2    0    0 -0.49787467100E+01  0.19753051123E+02 -0.12195718752E+01  0.20407310039E+02  0.00000000000E+00 0. -1.
         11    1    1    2    0    0 -0.14789257484E+03 -0.12629018298E+02 -0.18932803923E+03  0.24057600095E+03  0.00000000000E+00 0.  1.
<mgrwt>
<rscale>  0 0.18666830E+03</rscale>
<asrwt>0</asrwt>
<pdfrwt beam="2">  1        2 0.52848115E-01 0.18953120E+03</pdfrwt>
<pdfrwt beam="1">  1       -2 0.17151889E-01 0.18953120E+03</pdfrwt>
<totfact> 0.25405193E+03</totfact>
</mgrwt>
</event>
<event>
 7    1  0.8712071E-006  0.1313355E+03  0.7546771E-02  0.1238469E+00
          3   -1    0    0  501    0  0.00000000000E+00  0.00000000000E+00  0.17256505118E+02  0.17256505118E+02  0.00000000000E+00 0. -1.
         -3   -1    0    0    0  501 -0.00000000000E+00 -0.00000000000E+00 -0.81099222016E+03  0.81099222016E+03  0.00000000000E+00 0.  1.
         23    2    1    2    0    0  0.37297202541E+02  0.15212788565E+02 -0.52911505122E+03  0.54517129350E+03  0.12500596614E+03 0.  0.
          5    1    3    3  502    0  0.57932082377E+02  0.37802970140E+02 -0.49191191769E+03  0.49677420976E+03  0.47000000000E+01 0.  1.
         -5    1    3    3    0  502 -0.20634879836E+02 -0.22590181575E+02 -0.37203133532E+02  0.48397083735E+02  0.47000000000E+01 0.  1.
        -11    1    1    2    0    0 -0.40182352813E+02  0.31485656275E+02 -0.17035450480E+03  0.17783876218E+03  0.00000000000E+00 0.  1.
         11    1    1    2    0    0  0.28851502725E+01 -0.46698444840E+02 -0.94266159018E+02  0.10523866960E+03  0.00000000000E+00 0. -1.
<mgrwt>
<rscale>  0 0.12284956E+03</rscale>
<asrwt>0</asrwt>
<pdfrwt beam="1">  1        3 0.26548470E-02 0.13133546E+03</pdfrwt>
<pdfrwt beam="2">  1       -3 0.12476803E+00 0.13133546E+03</pdfrwt>
<totfact> 0.76448010E+02</totfact>
</mgrwt>
</event>
<event>
 7    1  0.8712071E-006  0.1285971E+03  0.7546771E-02  0.1244009E+00
          1   -1    0    0  501    0  0.00000000000E+00  0.00000000000E+00  0.22092521305E+03  0.22092521305E+03  0.00000000000E+00 0. -1.
         -1   -1    0    0    0  501 -0.00000000000E+00 -0.00000000000E+00 -0.69202804403E+02  0.69202804403E+02  0.00000000000E+00 0.  1.
         23    2    1    2    0    0 -0.24373273934E+02 -0.17896724772E+02  0.24494529903E+02  0.13090906952E+03  0.12499141269E+03 0.  0.
          5    1    3    3  502    0  0.15963356969E+02  0.36725550681E+02  0.44418193630E+02  0.59988838661E+02  0.47000000000E+01 0. -1.
         -5    1    3    3    0  502 -0.40336630903E+02 -0.54622275453E+02 -0.19923663727E+02  0.70920230856E+02  0.47000000000E+01 0. -1.
        -11    1    1    2    0    0  0.31471041331E+02  0.45101204295E+02  0.11703605748E+03  0.12931350982E+03  0.00000000000E+00 0.  1.
         11    1    1    2    0    0 -0.70977673975E+01 -0.27204479523E+02  0.10191821259E+02  0.29905438113E+02  0.00000000000E+00 0. -1.
<mgrwt>
<rscale>  0 0.11944896E+03</rscale>
<asrwt>0</asrwt>
<pdfrwt beam="1">  1        1 0.33988494E-01 0.12859705E+03</pdfrwt>
<pdfrwt beam="2">  1       -1 0.10646585E-01 0.12859705E+03</pdfrwt>
<totfact> 0.67657160E+03</totfact>
</mgrwt>
</event>
<event>
 7    1  0.8712071E-006  0.1314851E+03  0.7546771E-02  0.1236943E+00
         -2   -1    0    0    0  501 -0.00000000000E+00  0.00000000000E+00  0.58262616900E+02  0.58262616900E+02  0.00000000000E+00 0.  1.
          2   -1    0    0  501    0  0.00000000000E+00 -0.00000000000E+00 -0.30307578308E+03  0.30307578308E+03  0.00000000000E+00 0. -1.
         23    2    1    2    0    0  0.19965814908E+02 -0.35564255341E+02 -0.49752822849E+02  0.14058337820E+03  0.12499957129E+03 0.  0.
          5    1    3    3  502    0  0.21615268481E+02 -0.37841983803E+02  0.34729478727E+02  0.55923718245E+02  0.47000000000E+01 0. -1.
         -5    1    3    3    0  502 -0.16494535731E+01  0.22777284624E+01 -0.84482301577E+02  0.84659659955E+02  0.47000000000E+01 0. -1.
        -11    1    1    2    0    0 -0.49050821361E+02 -0.82702349842E+01 -0.79428094220E+02  0.93718738864E+02  0.00000000000E+00 0. -1.
         11    1    1    2    0    0  0.29085006453E+02  0.43834490325E+02 -0.11563224912E+03  0.12703628292E+03  0.00000000000E+00 0.  1.
<mgrwt>
<rscale>  0 0.12380850E+03</rscale>
<asrwt>0</asrwt>
<pdfrwt beam="2">  1        2 0.46627043E-01 0.13148514E+03</pdfrwt>
<pdfrwt beam="1">  1       -2 0.89634795E-02 0.13148514E+03</pdfrwt>
<totfact> 0.80979769E+03</totfact>
</mgrwt>
</event>
<event>
 7    1  0.8712071E-006  0.1756217E+03  0.7546771E-02  0.1179061E+00
         -1   -1    0    0    0  501 -0.00000000000E+00  0.00000000000E+00  0.43030892324E+02  0.43030892324E+02  0.00000000000E+00 0.  1.
          1   -1    0    0  501    0  0.00000000000E+00 -0.00000000000E+00 -0.66052682033E+03  0.66052682033E+03  0.00000000000E+00 0. -1.
         23    2    1    2    0    0 -0.11538365371E+03 -0.43641614591E+02 -0.24044077089E+03  0.29774945101E+03  0.12499997282E+03 0.  0.
          5    1    3    3  502    0  0.17747915887E+02 -0.51044896988E+01 -0.94604896457E+02  0.96505029750E+02  0.47000000000E+01 0. -1.
         -5    1    3    3    0  502 -0.13313156960E+03 -0.38537124892E+02 -0.14583587443E+03  0.20124442126E+03  0.47000000000E+01 0. -1.
        -11    1    1    2    0    0  0.78975740708E+02 -0.14674776755E+02 -0.22579282763E+03  0.23965583177E+03  0.00000000000E+00 0.  1.
         11    1    1    2    0    0  0.36407913004E+02  0.58316391345E+02 -0.15126232949E+03  0.16615242987E+03  0.00000000000E+00 0. -1.
<mgrwt>
<rscale>  0 0.16884178E+03</rscale>
<asrwt>0</asrwt>
<pdfrwt beam="2">  1        1 0.10161950E+00 0.17562167E+03</pdfrwt>
<pdfrwt beam="1">  1       -1 0.66201377E-02 0.17562167E+03</pdfrwt>
<totfact> 0.34737150E+03</totfact>
</mgrwt>
</event>
<event>
 7    1  0.8712071E-006  0.2065919E+03  0.7546771E-02  0.1148786E+00
         -2   -1    0    0    0  501 -0.00000000000E+00  0.00000000000E+00  0.14742724514E+03  0.14742724514E+03  0.00000000000E+00 0.  1.
          2   -1    0    0  501    0  0.00000000000E+00 -0.00000000000E+00 -0.30049495811E+03  0.30049495811E+03  0.00000000000E+00 0. -1.
         23    2    1    2    0    0  0.16227859462E+03 -0.26871760452E+02  0.11677286726E+01  0.20659519225E+03  0.12499510425E+03 0.  0.
          5    1    3    3  502    0  0.45457480994E+02 -0.95319016596E+01  0.58816335597E+02  0.75091218266E+02  0.47000000000E+01 0. -1.
         -5    1    3    3    0  502  0.11682111363E+03 -0.17339858792E+02 -0.57648606924E+02  0.13150397398E+03  0.47000000000E+01 0. -1.
        -11    1    1    2    0    0 -0.95687507900E+02  0.10768734957E+02 -0.14224954122E+03  0.17177600763E+03  0.00000000000E+00 0. -1.
         11    1    1    2    0    0 -0.66591086722E+02  0.16103025494E+02 -0.11985900427E+02  0.69551003371E+02  0.00000000000E+00 0.  1.
<mgrwt>
<rscale>  0 0.20113324E+03</rscale>
<asrwt>0</asrwt>
<pdfrwt beam="2">  1        2 0.46229993E-01 0.20659189E+03</pdfrwt>
<pdfrwt beam="1">  1       -2 0.22681115E-01 0.20659189E+03</pdfrwt>
<totfact> 0.18267177E+03</totfact>
</mgrwt>
</event>
<event>
 7    1  0.8712071E-006  0.1263251E+03  0.7546771E-02  0.1248293E+00
         -2   -1    0    0    0  501 -0.00000000000E+00  0.00000000000E+00  0.89240172656E+03  0.89240172656E+03  0.00000000000E+00 0.  1.
          2   -1    0    0  501    0  0.00000000000E+00 -0.00000000000E+00 -0.26366892561E+02  0.26366892561E+02  0.00000000000E+00 0. -1.
         23    2    1    2    0    0  0.16951661515E+02  0.67396747054E+01  0.78674096942E+03  0.79681829373E+03  0.12500103286E+03 0.  0.
          5    1    3    3  502    0 -0.17221070670E+02  0.50864007145E+02  0.19132213055E+03  0.19877112501E+03  0.47000000000E+01 0.  1.
         -5    1    3    3    0  502  0.34172732185E+02 -0.44124332440E+02  0.59541883887E+03  0.59804716872E+03  0.47000000000E+01 0.  1.
        -11    1    1    2    0    0 -0.32102668553E+02  0.16900302850E+02 -0.16072728733E+01  0.36315078009E+02  0.00000000000E+00 0. -1.
         11    1    1    2    0    0  0.15151007038E+02 -0.23639977556E+02  0.80901137447E+02  0.85635247377E+02  0.00000000000E+00 0.  1.
<mgrwt>
<rscale>  0 0.11690440E+03</rscale>
<asrwt>0</asrwt>
<pdfrwt beam="2">  1        2 0.40564457E-02 0.12632514E+03</pdfrwt>
<pdfrwt beam="1">  1       -2 0.13729255E+00 0.12632514E+03</pdfrwt>
<totfact> 0.80161312E+02</totfact>
</mgrwt>
</event>
<event>
 7    1  0.8712071E-006  0.1348615E+03  0.7546771E-02  0.1248202E+00
         -4   -1    0    0    0  501 -0.00000000000E+00  0.00000000000E+00  0.28884412577E+03  0.28884412577E+03  0.00000000000E+00 0.  1.
          4   -1    0    0  501    0  0.00000000000E+00 -0.00000000000E+00 -0.38754645783E+02  0.38754645783E+02  0.00000000000E+00 0. -1.
         23    2    1    2    0    0 -0.50549539036E+02  0.26243298996E+01  0.16989762906E+03  0.21691666684E+03  0.12500197194E+03 0.  0.
          5    1    3    3  502    0 -0.63882815603E+00 -0.24029789607E+02 -0.11341908426E+02  0.26991994679E+02  0.47000000000E+01 0. -1.
         -5    1    3    3    0  502 -0.49910710880E+02  0.26654119507E+02  0.18123953749E+03  0.18992467216E+03  0.47000000000E+01 0. -1.
        -11    1    1    2    0    0  0.19671579631E+02 -0.28108563651E+02  0.24786430713E+02  0.42325282553E+02  0.00000000000E+00 0. -1.
         11    1    1    2    0    0  0.30877959405E+02  0.25484233751E+02  0.55405420215E+02  0.68356822162E+02  0.00000000000E+00 0.  1.
<mgrwt>
<rscale>  0 0.11695790E+03</rscale>
<asrwt>0</asrwt>
<pdfrwt beam="2">  1        4 0.59622534E-02 0.13486154E+03</pdfrwt>
<pdfrwt beam="1">  1       -4 0.44437556E-01 0.13486154E+03</pdfrwt>
<totfact> 0.14553128E+03</totfact>
</mgrwt>
</event>
<event>
 6    1  0.8712071E-006  0.2323211E+03  0.7546771E-02  0.1138966E+00
          2   -1    0    0  501    0  0.00000000000E+00  0.00000000000E+00  0.12470934740E+04  0.12470934740E+04  0.00000000000E+00 0. -1.
         -2   -1    0    0    0  501 -0.00000000000E+00 -0.00000000000E+00 -0.31898471020E+02  0.31898471020E+02  0.00000000000E+00 0.  1.
          5    1    1    2  502    0 -0.17952612948E+03 -0.22678834835E+02  0.58927610443E+03  0.61645144007E+03  0.47000000000E+01 0. -1.
         -5    1    1    2    0  502  0.42638603354E+02  0.48001759911E+01  0.66693504867E+02  0.79443097730E+02  0.47000000000E+01 0.  1.
        -11    1    1    2    0    0  0.45855134466E+02  0.48742782425E+02  0.18527871181E+03  0.19699429750E+03  0.00000000000E+00 0.  1.
         11    1    1    2    0    0  0.91032391657E+02 -0.30864123581E+02  0.37394668189E+03  0.38610310974E+03  0.00000000000E+00 0. -1.
<mgrwt>
<rscale>  0 0.21331735E+03</rscale>
<asrwt>0</asrwt>
<pdfrwt beam="1">  1        2 0.19186050E+00 0.23232107E+03</pdfrwt>
<pdfrwt beam="2">  1       -2 0.49074580E-02 0.23232107E+03</pdfrwt>
<totfact> 0.37730463E+03</totfact>
</mgrwt>
</event>
<event>
 7    1  0.8712071E-006  0.1421924E+03  0.7546771E-02  0.1220506E+00
          1   -1    0    0  501    0  0.00000000000E+00  0.00000000000E+00  0.14083427038E+03  0.14083427038E+03  0.00000000000E+00 0. -1.
         -1   -1    0    0    0  501 -0.00000000000E+00 -0.00000000000E+00 -0.11791129011E+03  0.11791129011E+03  0.00000000000E+00 0.  1.
         23    2    1    2    0    0 -0.67722506974E+02  0.25194239499E+01  0.32272196713E+01  0.14222898423E+03  0.12500393417E+03 0.  0.
          5    1    3    3  502    0  0.19535238600E+02  0.36549610059E+02 -0.19034026427E+02  0.45846305246E+02  0.47000000000E+01 0. -1.
         -5    1    3    3    0  502 -0.87257745575E+02 -0.34030186109E+02  0.22261246099E+02  0.96382678979E+02  0.47000000000E+01 0. -1.
        -11    1    1    2    0    0  0.37224387707E+02  0.44319847460E+02  0.20899019448E+01  0.57916073841E+02  0.00000000000E+00 0.  1.
         11    1    1    2    0    0  0.30498119267E+02 -0.46839271410E+02  0.17605858655E+02  0.58600502421E+02  0.00000000000E+00 0. -1.
<mgrwt>
<rscale>  0 0.13479704E+03</rscale>
<asrwt>0</asrwt>
<pdfrwt beam="1">  1        1 0.21666811E-01 0.14219237E+03</pdfrwt>
<pdfrwt beam="2">  1       -1 0.18140198E-01 0.14219237E+03</pdfrwt>
<totfact> 0.52093765E+03</totfact>
</mgrwt>
</event>
<event>
 7    1  0.8712071E-006  0.1571908E+03  0.7546771E-02  0.1200225E+00
         -2   -1    0    0    0  501 -0.00000000000E+00  0.00000000000E+00  0.56997219764E+02  0.56997219764E+02  0.00000000000E+00 0.  1.
          2   -1    0    0  501    0  0.00000000000E+00 -0.00000000000E+00 -0.42812614339E+03  0.42812614339E+03  0.00000000000E+00 0. -1.
         23    2    1    2    0    0  0.85497265879E+02  0.42115281025E+02 -0.10664086194E+03  0.18995053573E+03  0.12500181287E+03 0.  0.
          5    1    3    3  502    0  0.18733003926E+02 -0.42731890013E+02 -0.18181714753E+02  0.50295174833E+02  0.47000000000E+01 0.  1.
         -5    1    3    3    0  502  0.66764261953E+02  0.84847171038E+02 -0.88459147185E+02  0.13965536090E+03  0.47000000000E+01 0.  1.
        -11    1    1    2    0    0 -0.29061177566E+02 -0.64171654250E+02 -0.14377186796E+03  0.16010278969E+03  0.00000000000E+00 0.  1.
         11    1    1    2    0    0 -0.56436088313E+02  0.22056373224E+02 -0.12071619373E+03  0.13507003773E+03  0.00000000000E+00 0. -1.
<mgrwt>
<rscale>  0 0.15020217E+03</rscale>
<asrwt>0</asrwt>
<pdfrwt beam="2">  1        2 0.65865560E-01 0.15719075E+03</pdfrwt>
<pdfrwt beam="1">  1       -2 0.87688032E-02 0.15719075E+03</pdfrwt>
<totfact> 0.58617761E+03</totfact>
</mgrwt>
</event>
<event>
 7    1  0.8712071E-006  0.1530410E+03  0.7546771E-02  0.1205236E+00
          3   -1    0    0  501    0  0.00000000000E+00  0.00000000000E+00  0.39978982606E+03  0.39978982606E+03  0.00000000000E+00 0. -1.
         -3   -1    0    0    0  501 -0.00000000000E+00 -0.00000000000E+00 -0.54464866953E+02  0.54464866953E+02  0.00000000000E+00 0.  1.
         23    2    1    2    0    0  0.45387672978E+02  0.75750275129E+02  0.11647230297E+03  0.19232097554E+03  0.12499366077E+03 0.  0.
          5    1    3    3  502    0 -0.10227727732E+02  0.50764525287E+02 -0.89717380764E+01  0.52765760928E+02  0.47000000000E+01 0. -1.
         -5    1    3    3    0  502  0.55615400710E+02  0.24985749842E+02  0.12544404104E+03  0.13955521461E+03  0.47000000000E+01 0. -1.
        -11    1    1    2    0    0 -0.49239428869E+02 -0.83651047147E+01  0.15022437278E+03  0.15830937594E+03  0.00000000000E+00 0. -1.
         11    1    1    2    0    0  0.38517558908E+01 -0.67385170414E+02  0.78628283358E+02  0.10362434154E+03  0.00000000000E+00 0.  1.
<mgrwt>
<rscale>  0 0.14618908E+03</rscale>
<asrwt>0</asrwt>
<pdfrwt beam="1">  1        3 0.61506125E-01 0.15304104E+03</pdfrwt>
<pdfrwt beam="2">  1       -3 0.83792106E-02 0.15304104E+03</pdfrwt>
<totfact> 0.60949416E+02</totfact>
</mgrwt>
</event>
<event>
 7    1  0.8712071E-006  0.1470003E+03  0.7546771E-02  0.1214077E+00
         -2   -1    0    0    0  501 -0.00000000000E+00  0.00000000000E+00  0.88992434323E+02  0.88992434323E+02  0.00000000000E+00 0.  1.
          2   -1    0    0  501    0  0.00000000000E+00 -0.00000000000E+00 -0.23221505413E+03  0.23221505413E+03  0.00000000000E+00 0. -1.
         23    2    1    2    0    0  0.54863996560E+02  0.54558274233E+02 -0.17439996103E+02  0.14803122225E+03  0.12498970314E+03 0.  0.
          5    1    3    3  502    0 -0.11904611201E+02 -0.22921077133E+01  0.40689659586E+02  0.42716646905E+02  0.47000000000E+01 0. -1.
         -5    1    3    3    0  502  0.66768607761E+02  0.56850381946E+02 -0.58129655689E+02  0.10531457535E+03  0.47000000000E+01 0. -1.
        -11    1    1    2    0    0 -0.35718432293E+02 -0.59081454097E+02 -0.29796303375E+02  0.75194709379E+02  0.00000000000E+00 0.  1.
         11    1    1    2    0    0 -0.19145564267E+02  0.45231798645E+01 -0.95986320324E+02  0.97981556818E+02  0.00000000000E+00 0. -1.
<mgrwt>
<rscale>  0 0.13944570E+03</rscale>
<asrwt>0</asrwt>
<pdfrwt beam="2">  1        2 0.35725392E-01 0.14700030E+03</pdfrwt>
<pdfrwt beam="1">  1       -2 0.13691144E-01 0.14700030E+03</pdfrwt>
<totfact> 0.55285079E+03</totfact>
</mgrwt>
</event>
<event>
 7    1  0.8712071E-006  0.1595859E+03  0.7546771E-02  0.1196467E+00
         -2   -1    0    0    0  501 -0.00000000000E+00  0.00000000000E+00  0.17690423504E+03  0.17690423504E+03  0.00000000000E+00 0.  1.
          2   -1    0    0  501    0  0.00000000000E+00 -0.00000000000E+00 -0.14304223180E+03  0.14304223180E+03  0.00000000000E+00 0. -1.
         23    2    1    2    0    0 -0.98603659732E+02 -0.11154725123E+02  0.77213693388E+02  0.17728395408E+03  0.12498214401E+03 0.  0.
          5    1    3    3  502    0 -0.11523904774E+03  0.22597213159E+02  0.74745191227E+02  0.13928246759E+03  0.47000000000E+01 0. -1.
         -5    1    3    3    0  502  0.16635388010E+02 -0.33751938282E+02  0.24685021607E+01  0.38001486483E+02  0.47000000000E+01 0. -1.
        -11    1    1    2    0    0  0.11184190335E+03 -0.30431738368E+01 -0.49437145364E+02  0.12231886033E+03  0.00000000000E+00 0. -1.
         11    1    1    2    0    0 -0.13238243617E+02  0.14197898960E+02  0.60854552143E+01  0.20343652427E+02  0.00000000000E+00 0.  1.
<mgrwt>
<rscale>  0 0.15330758E+03</rscale>
<asrwt>0</asrwt>
<pdfrwt beam="2">  1        2 0.22006497E-01 0.15958586E+03</pdfrwt>
<pdfrwt beam="1">  1       -2 0.27216036E-01 0.15958586E+03</pdfrwt>
<totfact> 0.29527892E+03</totfact>
</mgrwt>
</event>
<event>
 7    1  0.8712071E-006  0.1518084E+03  0.7546771E-02  0.1204859E+00
         -1   -1    0    0    0  501 -0.00000000000E+00  0.00000000000E+00  0.22176813684E+03  0.22176813684E+03  0.00000000000E+00 0.  1.
          1   -1    0    0  501    0  0.00000000000E+00 -0.00000000000E+00 -0.91364671461E+02  0.91364671461E+02  0.00000000000E+00 0. -1.
         23    2    1    2    0    0 -0.56454491912E+02  0.65097780085E+02  0.84535784981E+02  0.17375870233E+03  0.12498382721E+03 0.  0.
          5    1    3    3  502    0 -0.80499622544E+02  0.52015731023E+02  0.10271493643E+03  0.14056412654E+03  0.47000000000E+01 0.  1.
         -5    1    3    3    0  502  0.24045130633E+02  0.13082049061E+02 -0.18179151448E+02  0.33194575794E+02  0.47000000000E+01 0.  1.
        -11    1    1    2    0    0  0.26426901529E+02 -0.83840521820E+02  0.91645728009E+01  0.88383276801E+02  0.00000000000E+00 0.  1.
         11    1    1    2    0    0  0.30027590383E+02  0.18742741736E+02  0.36703107598E+02  0.50990829169E+02  0.00000000000E+00 0. -1.
<mgrwt>
<rscale>  0 0.14648541E+03</rscale>
<asrwt>0</asrwt>
<pdfrwt beam="2">  1        1 0.14056103E-01 0.15180839E+03</pdfrwt>
<pdfrwt beam="1">  1       -1 0.34118175E-01 0.15180839E+03</pdfrwt>
<totfact> 0.32192093E+03</totfact>
</mgrwt>
</event>
<event>
 7    1  0.8712071E-006  0.2061346E+03  0.7546771E-02  0.1148552E+00
         -1   -1    0    0    0  501 -0.00000000000E+00  0.00000000000E+00  0.84914404642E+02  0.84914404642E+02  0.00000000000E+00 0.  1.
          1   -1    0    0  501    0  0.00000000000E+00 -0.00000000000E+00 -0.45762324404E+03  0.45762324404E+03  0.00000000000E+00 0. -1.
         23    2    1    2    0    0 -0.88541138364E+02  0.13793616865E+03 -0.18571581445E+03  0.27745597909E+03  0.12500214714E+03 0.  0.
          5    1    3    3  502    0 -0.82921811028E+02  0.16851004554E+02 -0.80219490280E+02  0.11669292918E+03  0.47000000000E+01 0. -1.
         -5    1    3    3    0  502 -0.56193273358E+01  0.12108516409E+03 -0.10549632417E+03  0.16076304991E+03  0.47000000000E+01 0. -1.
        -11    1    1    2    0    0 -0.15728863587E+01 -0.32553415430E+02 -0.37941282405E+00  0.32593600319E+02  0.00000000000E+00 0.  1.
         11    1    1    2    0    0  0.90114024723E+02 -0.10538275322E+03 -0.18661361212E+03  0.23248806928E+03  0.00000000000E+00 0. -1.
<mgrwt>
<rscale>  0 0.20141317E+03</rscale>
<asrwt>0</asrwt>
<pdfrwt beam="2">  1        1 0.70403576E-01 0.20613456E+03</pdfrwt>
<pdfrwt beam="1">  1       -1 0.13063755E-01 0.20613456E+03</pdfrwt>
<totfact> 0.20193708E+03</totfact>
</mgrwt>
</event>
<event>
 7    1  0.8712071E-006  0.1570440E+03  0.7546771E-02  0.1200085E+00
          1   -1    0    0  501    0  0.00000000000E+00  0.00000000000E+00  0.14060119066E+03  0.14060119066E+03  0.00000000000E+00 0. -1.
         -1   -1    0    0    0  501 -0.00000000000E+00 -0.00000000000E+00 -0.15113615487E+03  0.15113615487E+03  0.00000000000E+00 0.  1.
         23    2    1    2    0    0  0.84281735310E+01 -0.94693637696E+02 -0.25411493584E+02  0.15908668174E+03  0.12499963669E+03 0.  0.
          5    1    3    3  502    0  0.37094044845E+02  0.15587774646E+01  0.26577149606E+02  0.45900248706E+02  0.47000000000E+01 0. -1.
         -5    1    3    3    0  502 -0.28665871314E+02 -0.96252415160E+02 -0.51988643190E+02  0.11318643303E+03  0.47000000000E+01 0. -1.
        -11    1    1    2    0    0  0.38255718253E+02  0.20815076607E+02 -0.21921887707E+01  0.43607030222E+02  0.00000000000E+00 0. -1.
         11    1    1    2    0    0 -0.46683891784E+02  0.73878561088E+02  0.17068718142E+02  0.89043633571E+02  0.00000000000E+00 0.  1.
<mgrwt>
<rscale>  0 0.15031639E+03</rscale>
<asrwt>0</asrwt>
<pdfrwt beam="1">  1        1 0.21630952E-01 0.15704403E+03</pdfrwt>
<pdfrwt beam="2">  1       -1 0.23251716E-01 0.15704403E+03</pdfrwt>
<totfact> 0.35167228E+03</totfact>
</mgrwt>
</event>
<event>
 7    1  0.8712071E-006  0.1349205E+03  0.7546771E-02  0.1233385E+00
         -3   -1    0    0    0  501 -0.00000000000E+00  0.00000000000E+00  0.34602642285E+03  0.34602642285E+03  0.00000000000E+00 0.  1.
          3   -1    0    0  501    0  0.00000000000E+00 -0.00000000000E+00 -0.47940770753E+02  0.47940770753E+02  0.00000000000E+00 0. -1.
         23    2    1    2    0    0 -0.15296090279E+02  0.48423419554E+02  0.24125369647E+03  0.27641797493E+03  0.12499901145E+03 0.  0.
          5    1    3    3  502    0  0.38203423923E+02  0.29811501809E+02  0.28962374353E+02  0.56649239780E+02  0.47000000000E+01 0. -1.
         -5    1    3    3    0  502 -0.53499514201E+02  0.18611917745E+02  0.21229132212E+03  0.21976873515E+03  0.47000000000E+01 0. -1.
        -11    1    1    2    0    0  0.20724253671E+02 -0.74159490318E+01 -0.20352862301E+02  0.29978825763E+02  0.00000000000E+00 0. -1.
         11    1    1    2    0    0 -0.54281633921E+01 -0.41007470522E+02  0.77184817932E+02  0.87570392917E+02  0.00000000000E+00 0.  1.
<mgrwt>
<rscale>  0 0.12608401E+03</rscale>
<asrwt>0</asrwt>
<pdfrwt beam="2">  1        3 0.73755034E-02 0.13492054E+03</pdfrwt>
<pdfrwt beam="1">  1       -3 0.53234833E-01 0.13492054E+03</pdfrwt>
<totfact> 0.98818433E+02</totfact>
</mgrwt>
</event>
<event>
 7    1  0.8712071E-006  0.1376890E+03  0.7546771E-02  0.1227473E+00
          2   -1    0    0  501    0  0.00000000000E+00  0.00000000000E+00  0.41045564368E+03  0.41045564368E+03  0.00000000000E+00 0. -1.
         -2   -1    0    0    0  501 -0.00000000000E+00 -0.00000000000E+00 -0.52491167303E+02  0.52491167303E+02  0.00000000000E+00 0.  1.
         23    2    1    2    0    0 -0.33082497452E+02  0.47264669089E+02  0.69072668207E+02  0.15404317971E+03  0.12501946704E+03 0.  0.
          5    1    3    3  502    0 -0.56207983354E+01 -0.29344909205E+02  0.65846590814E+02  0.72460890086E+02  0.47000000000E+01 0. -1.
         -5    1    3    3    0  502 -0.27461699116E+02  0.76609578295E+02  0.32260773930E+01  0.81582289623E+02  0.47000000000E+01 0. -1.
        -11    1    1    2    0    0  0.50172015186E+02 -0.64433167026E+02  0.18495344240E+03  0.20217972197E+03  0.00000000000E+00 0.  1.
         11    1    1    2    0    0 -0.17089517734E+02  0.17168497937E+02  0.10393836577E+03  0.10672390930E+03  0.00000000000E+00 0. -1.
<mgrwt>
<rscale>  0 0.12998834E+03</rscale>
<asrwt>0</asrwt>
<pdfrwt beam="1">  1        2 0.63147020E-01 0.13768903E+03</pdfrwt>
<pdfrwt beam="2">  1       -2 0.80755645E-02 0.13768903E+03</pdfrwt>
<totfact> 0.69172380E+03</totfact>
</mgrwt>
</event>
<event>
 7    1  0.8712071E-006  0.1302562E+03  0.7546771E-02  0.1236038E+00
          1   -1    0    0  501    0  0.00000000000E+00  0.00000000000E+00  0.52184136930E+03  0.52184136930E+03  0.00000000000E+00 0. -1.
         -1   -1    0    0    0  501 -0.00000000000E+00 -0.00000000000E+00 -0.85111175473E+02  0.85111175473E+02  0.00000000000E+00 0.  1.
         23    2    1    2    0    0  0.38036286094E+02  0.48024622847E+02 -0.25049185132E+02  0.13264285987E+03  0.11495017677E+03 0.  0.
          5    1    3    3  502    0 -0.39562887466E+02  0.20950217858E+02  0.43648496790E+01  0.45224723389E+02  0.47000000000E+01 0. -1.
         -5    1    3    3    0  502  0.77599173560E+02  0.27074404990E+02 -0.29414034811E+02  0.87418136486E+02  0.47000000000E+01 0.  1.
        -11    1    1    2    0    0 -0.60854536782E+02 -0.83639566206E+01  0.29760864367E+03  0.30388177834E+03  0.00000000000E+00 0. -1.
         11    1    1    2    0    0  0.22818250687E+02 -0.39660666227E+02  0.16417073529E+03  0.17042790656E+03  0.00000000000E+00 0.  1.
<mgrwt>
<rscale>  0 0.12438229E+03</rscale>
<asrwt>0</asrwt>
<pdfrwt beam="1">  1        1 0.80283286E-01 0.13025616E+03</pdfrwt>
<pdfrwt beam="2">  1       -1 0.13094027E-01 0.13025616E+03</pdfrwt>
<totfact> 0.16765792E+03</totfact>
</mgrwt>
</event>
<event>
 7    1  0.8712071E-006  0.1400359E+03  0.7546771E-02  0.1229451E+00
         -1   -1    0    0    0  501 -0.00000000000E+00  0.00000000000E+00  0.36842434448E+02  0.36842434448E+02  0.00000000000E+00 0.  1.
          1   -1    0    0  501    0  0.00000000000E+00 -0.00000000000E+00 -0.41451386027E+03  0.41451386027E+03  0.00000000000E+00 0. -1.
         23    2    1    2    0    0  0.53682948831E+02 -0.33219503498E+02 -0.16486330195E+03  0.21630984296E+03  0.12499858169E+03 0.  0.
          5    1    3    3  502    0  0.68086984559E+02  0.30214436440E+02 -0.93430823096E+02  0.11958326948E+03  0.47000000000E+01 0. -1.
         -5    1    3    3    0  502 -0.14404035728E+02 -0.63433939939E+02 -0.71432478855E+02  0.96726573478E+02  0.47000000000E+01 0. -1.
        -11    1    1    2    0    0 -0.25501837405E+02  0.37315377378E+02 -0.19771807632E+03  0.20281819150E+03  0.00000000000E+00 0. -1.
         11    1    1    2    0    0 -0.28181111426E+02 -0.40958738804E+01 -0.15090047551E+02  0.32228260256E+02  0.00000000000E+00 0.  1.
<mgrwt>
<rscale>  0 0.12866467E+03</rscale>
<asrwt>0</asrwt>
<pdfrwt beam="2">  1        1 0.63771362E-01 0.14003585E+03</pdfrwt>
<pdfrwt beam="1">  1       -1 0.56680669E-02 0.14003585E+03</pdfrwt>
<totfact> 0.80487643E+03</totfact>
</mgrwt>
</event>
<event>
 7    1  0.8712071E-006  0.2780242E+03  0.7546771E-02  0.1098796E+00
         -1   -1    0    0    0  501 -0.00000000000E+00  0.00000000000E+00  0.27267242079E+03  0.27267242079E+03  0.00000000000E+00 0. -1.
          1   -1    0    0  501    0  0.00000000000E+00 -0.00000000000E+00 -0.27666706396E+03  0.27666706396E+03  0.00000000000E+00 0.  1.
         23    2    1    2    0    0  0.11900731152E+03 -0.21796990787E+03  0.43323200504E+02  0.28137935540E+03  0.12499528397E+03 0.  0.
          5    1    3    3  502    0  0.84032451178E+02 -0.22653071866E+03  0.35839957149E+02  0.24430352408E+03  0.47000000000E+01 0.  1.
         -5    1    3    3    0  502  0.34974860340E+02  0.85608107949E+01  0.74832433559E+01  0.37075831324E+02  0.47000000000E+01 0.  1.
        -11    1    1    2    0    0 -0.60098198107E+02  0.15616840602E+03 -0.67155672649E+02  0.18030598665E+03  0.00000000000E+00 0.  1.
         11    1    1    2    0    0 -0.58909113411E+02  0.61801501850E+02  0.19837828973E+02  0.87654142698E+02  0.00000000000E+00 0. -1.
<mgrwt>
<rscale>  0 0.27438459E+03</rscale>
<asrwt>0</asrwt>
<pdfrwt beam="2">  1        1 0.42564164E-01 0.27802418E+03</pdfrwt>
<pdfrwt beam="1">  1       -1 0.41949603E-01 0.27802418E+03</pdfrwt>
<totfact> 0.55259576E+02</totfact>
</mgrwt>
</event>
<event>
 7    1  0.8712071E-006  0.3076717E+03  0.7546771E-02  0.1082893E+00
         -2   -1    0    0    0  501 -0.00000000000E+00  0.00000000000E+00  0.78992733963E+02  0.78992733963E+02  0.00000000000E+00 0.  1.
          2   -1    0    0  501    0  0.00000000000E+00 -0.00000000000E+00 -0.11626209419E+04  0.11626209419E+04  0.00000000000E+00 0. -1.
         23    2    1    2    0    0  0.27778332235E+03  0.43212697572E+02 -0.60615707606E+03  0.67977077033E+03  0.12502394946E+03 0.  0.
          5    1    3    3  502    0  0.34064307083E+02  0.52423695110E+02 -0.10260129514E+03  0.12024032847E+03  0.47000000000E+01 0. -1.
         -5    1    3    3    0  502  0.24371901527E+03 -0.92109975377E+01 -0.50355578092E+03  0.55953044187E+03  0.47000000000E+01 0. -1.
        -11    1    1    2    0    0 -0.43711500502E+02 -0.39048591195E+02 -0.13307005331E+03  0.14540676338E+03  0.00000000000E+00 0.  1.
         11    1    1    2    0    0 -0.23407182185E+03 -0.41641063769E+01 -0.34440107860E+03  0.41643614217E+03  0.00000000000E+00 0. -1.
<mgrwt>
<rscale>  0 0.30474297E+03</rscale>
<asrwt>0</asrwt>
<pdfrwt beam="2">  1        2 0.17886476E+00 0.30767174E+03</pdfrwt>
<pdfrwt beam="1">  1       -2 0.12152728E-01 0.30767174E+03</pdfrwt>
<totfact> 0.10168575E+03</totfact>
</mgrwt>
</event>
<event>
 7    1  0.8712071E-006  0.1294688E+03  0.7546771E-02  0.1242555E+00
          2   -1    0    0  501    0  0.00000000000E+00  0.00000000000E+00  0.42913513604E+02  0.42913513604E+02  0.00000000000E+00 0. -1.
         -2   -1    0    0    0  501 -0.00000000000E+00 -0.00000000000E+00 -0.32002674667E+03  0.32002674667E+03  0.00000000000E+00 0.  1.
         23    2    1    2    0    0  0.32588204314E+02 -0.86448330887E+01 -0.20471269773E+03  0.24221778028E+03  0.12500176107E+03 0.  0.
          5    1    3    3  502    0  0.21450027094E+02  0.15073485031E+02  0.80277575146E+01  0.27818132648E+02  0.47000000000E+01 0. -1.
         -5    1    3    3    0  502  0.11138177219E+02 -0.23718318119E+02 -0.21274045524E+03  0.21439964763E+03  0.47000000000E+01 0. -1.
        -11    1    1    2    0    0 -0.29632469698E+02  0.27648363426E+02 -0.87395707325E+02  0.96335481103E+02  0.00000000000E+00 0.  1.
         11    1    1    2    0    0 -0.29557346151E+01 -0.19003530337E+02  0.14995171984E+02  0.24386998897E+02  0.00000000000E+00 0. -1.
<mgrwt>
<rscale>  0 0.12032922E+03</rscale>
<asrwt>0</asrwt>
<pdfrwt beam="1">  1        2 0.66020788E-02 0.12946878E+03</pdfrwt>
<pdfrwt beam="2">  1       -2 0.49234885E-01 0.12946878E+03</pdfrwt>
<totfact> 0.40993674E+03</totfact>
</mgrwt>
</event>
<event>
 7    1  0.8712071E-006  0.1373254E+03  0.7546771E-02  0.1228814E+00
          3   -1    0    0  501    0  0.00000000000E+00  0.00000000000E+00  0.11657069416E+03  0.11657069416E+03  0.00000000000E+00 0. -1.
         -3   -1    0    0    0  501 -0.00000000000E+00 -0.00000000000E+00 -0.27615275361E+03  0.27615275361E+03  0.00000000000E+00 0.  1.
         23    2    1    2    0    0  0.30407179055E+01  0.56772124588E+02 -0.22754503905E+03  0.26577245369E+03  0.12500372893E+03 0.  0.
          5    1    3    3  502    0  0.85910999683E+00  0.65022761492E+02 -0.24071623972E+03  0.24938944574E+03  0.47000000000E+01 0.  1.
         -5    1    3    3    0  502  0.21816079087E+01 -0.82506369038E+01  0.13171200668E+02  0.16383007948E+02  0.47000000000E+01 0.  1.
        -11    1    1    2    0    0  0.19980498090E+02 -0.31125625869E+02  0.81831335661E+02  0.89801962038E+02  0.00000000000E+00 0. -1.
         11    1    1    2    0    0 -0.23021215995E+02 -0.25646498719E+02 -0.13868356056E+02  0.37149032049E+02  0.00000000000E+00 0.  1.
<mgrwt>
<rscale>  0 0.12908890E+03</rscale>
<asrwt>0</asrwt>
<pdfrwt beam="1">  1        3 0.17933953E-01 0.13732535E+03</pdfrwt>
<pdfrwt beam="2">  1       -3 0.42485039E-01 0.13732535E+03</pdfrwt>
<totfact> 0.34998906E+02</totfact>
</mgrwt>
</event>
<event>
 7    1  0.8712071E-006  0.1281220E+03  0.7546771E-02  0.1243732E+00
         -2   -1    0    0    0  501 -0.00000000000E+00  0.00000000000E+00  0.44420986625E+02  0.44420986625E+02  0.00000000000E+00 0.  1.
          2   -1    0    0  501    0  0.00000000000E+00 -0.00000000000E+00 -0.29013629869E+03  0.29013629869E+03  0.00000000000E+00 0. -1.
         23    2    1    2    0    0 -0.26044500483E+02 -0.10636160413E+02 -0.11981053831E+03  0.17541322961E+03  0.12499516838E+03 0.  0.
          5    1    3    3  502    0  0.47871410225E+02  0.11931532980E+02 -0.58363296469E+02  0.76566296573E+02  0.47000000000E+01 0.  1.
         -5    1    3    3    0  502 -0.73915910708E+02 -0.22567693393E+02 -0.61447241838E+02  0.98846933035E+02  0.47000000000E+01 0.  1.
        -11    1    1    2    0    0  0.88420399318E+01  0.26403307847E+02  0.31266976621E+01  0.28019503452E+02  0.00000000000E+00 0.  1.
         11    1    1    2    0    0  0.17202460551E+02 -0.15767147434E+02 -0.12903147142E+03  0.13112455226E+03  0.00000000000E+00 0. -1.
<mgrwt>
<rscale>  0 0.11961593E+03</rscale>
<asrwt>0</asrwt>
<pdfrwt beam="2">  1        2 0.44636352E-01 0.12812196E+03</pdfrwt>
<pdfrwt beam="1">  1       -2 0.68339981E-02 0.12812196E+03</pdfrwt>
<totfact> 0.12853273E+04</totfact>
</mgrwt>
</event>
<event>
 7    1  0.8712071E-006  0.1805294E+03  0.7546771E-02  0.1172770E+00
          1   -1    0    0  501    0  0.00000000000E+00  0.00000000000E+00  0.42919958582E+03  0.42919958582E+03  0.00000000000E+00 0. -1.
         -1   -1    0    0    0  501 -0.00000000000E+00 -0.00000000000E+00 -0.79437635173E+02  0.79437635173E+02  0.00000000000E+00 0.  1.
         23    2    1    2    0    0  0.12298568560E+03 -0.42886031262E+02  0.84714258669E+02  0.19941758208E+03  0.12500470343E+03 0.  0.
          5    1    3    3  502    0  0.42256793749E+01  0.24289209760E+02  0.53904861073E+02  0.59461299382E+02  0.47000000000E+01 0.  1.
         -5    1    3    3    0  502  0.11876000623E+03 -0.67175241022E+02  0.30809397596E+02  0.13995628269E+03  0.47000000000E+01 0.  1.
        -11    1    1    2    0    0 -0.49182322387E+02  0.46188164698E+01  0.25368406485E+02  0.55531885872E+02  0.00000000000E+00 0.  1.
         11    1    1    2    0    0 -0.73803363216E+02  0.38267214793E+02  0.23967928549E+03  0.25368775304E+03  0.00000000000E+00 0. -1.
<mgrwt>
<rscale>  0 0.17496192E+03</rscale>
<asrwt>0</asrwt>
<pdfrwt beam="1">  1        1 0.66030704E-01 0.18052941E+03</pdfrwt>
<pdfrwt beam="2">  1       -1 0.12221175E-01 0.18052941E+03</pdfrwt>
<totfact> 0.24260614E+03</totfact>
</mgrwt>
</event>
<event>
 7    1  0.8712071E-006  0.1313078E+03  0.7546771E-02  0.1248996E+00
         -3   -1    0    0    0  501 -0.00000000000E+00  0.00000000000E+00  0.65395613510E+02  0.65395613510E+02  0.00000000000E+00 0.  1.
          3   -1    0    0  501    0  0.00000000000E+00 -0.00000000000E+00 -0.17302299302E+03  0.17302299302E+03  0.00000000000E+00 0. -1.
         23    2    1    2    0    0 -0.37377388270E+02  0.14828169351E+02 -0.69805223928E+02  0.14870947070E+03  0.12499917451E+03 0.  0.
          5    1    3    3  502    0 -0.71408016124E+02  0.20426733066E+02 -0.43168473594E+01  0.74545833966E+02  0.47000000000E+01 0. -1.
         -5    1    3    3    0  502  0.34030627854E+02 -0.55985637149E+01 -0.65488376568E+02  0.74163636732E+02  0.47000000000E+01 0. -1.
        -11    1    1    2    0    0 -0.18231287321E+01 -0.35776028621E+02 -0.96980314069E+01  0.37111990454E+02  0.00000000000E+00 0.  1.
         11    1    1    2    0    0  0.39200517002E+02  0.20947859270E+02 -0.28124124175E+02  0.52597145377E+02  0.00000000000E+00 0. -1.
<mgrwt>
<rscale>  0 0.11649366E+03</rscale>
<asrwt>0</asrwt>
<pdfrwt beam="2">  1        3 0.26618922E-01 0.13130780E+03</pdfrwt>
<pdfrwt beam="1">  1       -3 0.10060864E-01 0.13130780E+03</pdfrwt>
<totfact> 0.22279424E+03</totfact>
</mgrwt>
</event>
<event>
 6    1  0.8712071E-006  0.1482522E+03  0.7546771E-02  0.1218951E+00
          1   -1    0    0  501    0  0.00000000000E+00  0.00000000000E+00  0.11100014639E+03  0.11100014639E+03  0.00000000000E+00 0. -1.
         -1   -1    0    0    0  501 -0.00000000000E+00 -0.00000000000E+00 -0.14418756993E+03  0.14418756993E+03  0.00000000000E+00 0.  1.
          5    1    1    2  502    0  0.67306277994E+02 -0.14357104974E+02 -0.55504667519E+02  0.88538803002E+02  0.47000000000E+01 0. -1.
         -5    1    1    2    0  502 -0.43432854160E+02 -0.15179901426E+02  0.39174602394E+02  0.60610079199E+02  0.47000000000E+01 0.  1.
        -11    1    1    2    0    0 -0.20760142503E+01  0.31199634976E+02 -0.54312800101E+02  0.62670625596E+02  0.00000000000E+00 0.  1.
         11    1    1    2    0    0 -0.21797409583E+02 -0.16626285760E+01  0.37455441683E+02  0.43368208517E+02  0.00000000000E+00 0. -1.
<mgrwt>
<rscale>  0 0.13590252E+03</rscale>
<asrwt>0</asrwt>
<pdfrwt beam="1">  1        1 0.17076946E-01 0.14825221E+03</pdfrwt>
<pdfrwt beam="2">  1       -1 0.22182703E-01 0.14825221E+03</pdfrwt>
<totfact> 0.51206672E+03</totfact>
</mgrwt>
</event>
<event>
 7    1  0.8712071E-006  0.1658122E+03  0.7546771E-02  0.1189689E+00
          2   -1    0    0  501    0  0.00000000000E+00  0.00000000000E+00  0.18956333622E+02  0.18956333622E+02  0.00000000000E+00 0.  1.
         -2   -1    0    0    0  501 -0.00000000000E+00 -0.00000000000E+00 -0.14298985292E+04  0.14298985292E+04  0.00000000000E+00 0. -1.
         23    2    1    2    0    0 -0.86272604126E+01  0.10860131367E+03 -0.10199346034E+04  0.10333248696E+04  0.12500006427E+03 0.  0.
          5    1    3    3  502    0 -0.60384622975E+02  0.29984506797E+02 -0.54110711519E+03  0.54531126291E+03  0.47000000000E+01 0. -1.
         -5    1    3    3    0  502  0.51757362562E+02  0.78616806870E+02 -0.47882748817E+03  0.48801360670E+03  0.47000000000E+01 0. -1.
        -11    1    1    2    0    0 -0.37895587412E+02 -0.72260476395E+02 -0.22884065959E+03  0.24295205181E+03  0.00000000000E+00 0. -1.
         11    1    1    2    0    0  0.46522847825E+02 -0.36340837272E+02 -0.16216693263E+03  0.17257794141E+03  0.00000000000E+00 0.  1.
<mgrwt>
<rscale>  0 0.15912406E+03</rscale>
<asrwt>0</asrwt>
<pdfrwt beam="1">  1        2 0.29163580E-02 0.16581222E+03</pdfrwt>
<pdfrwt beam="2">  1       -2 0.21998447E+00 0.16581222E+03</pdfrwt>
<totfact> 0.34951922E+02</totfact>
</mgrwt>
</event>
<event>
 7    1  0.8712071E-006  0.1850100E+03  0.7546771E-02  0.1167570E+00
          1   -1    0    0  501    0  0.00000000000E+00  0.00000000000E+00  0.94025597946E+03  0.94025597946E+03  0.00000000000E+00 0. -1.
         -1   -1    0    0    0  501 -0.00000000000E+00 -0.00000000000E+00 -0.38837836389E+02  0.38837836389E+02  0.00000000000E+00 0.  1.
         23    2    1    2    0    0 -0.70093720341E+02  0.11700389490E+03  0.27913872402E+03  0.33488376264E+03  0.12500266470E+03 0.  0.
          5    1    3    3  502    0 -0.55261613110E+02  0.14280556729E+03  0.21473986432E+03  0.26378509294E+03  0.47000000000E+01 0.  1.
         -5    1    3    3    0  502 -0.14832107231E+02 -0.25801672383E+02  0.64398859703E+02  0.71098669704E+02  0.47000000000E+01 0.  1.
        -11    1    1    2    0    0 -0.22842076768E+02 -0.30898388099E+02  0.18492479232E+03  0.18887469305E+03  0.00000000000E+00 0. -1.
         11    1    1    2    0    0  0.92935797109E+02 -0.86105506805E+02  0.43735462673E+03  0.45533536016E+03  0.00000000000E+00 0.  1.
<mgrwt>
<rscale>  0 0.18024077E+03</rscale>
<asrwt>0</asrwt>
<pdfrwt beam="1">  1        1 0.14465475E+00 0.18501002E+03</pdfrwt>
<pdfrwt beam="2">  1       -1 0.59750525E-02 0.18501002E+03</pdfrwt>
<totfact> 0.23732019E+03</totfact>
</mgrwt>
</event>
<event>
 7    1  0.8712071E-006  0.1902153E+03  0.7546771E-02  0.1163132E+00
         -1   -1    0    0    0  501 -0.00000000000E+00  0.00000000000E+00  0.53325466156E+03  0.53325466156E+03  0.00000000000E+00 0.  1.
          1   -1    0    0  501    0  0.00000000000E+00 -0.00000000000E+00 -0.70197062046E+02  0.70197062046E+02  0.00000000000E+00 0. -1.
         23    2    1    2    0    0  0.30791201840E+02 -0.14003272489E+03  0.13254518900E+03  0.23184068980E+03  0.12499846467E+03 0.  0.
          5    1    3    3  502    0  0.64212635473E+02 -0.12577139590E+03  0.66160776051E+02  0.15601616861E+03  0.47000000000E+01 0. -1.
         -5    1    3    3    0  502 -0.33421433633E+02 -0.14261328990E+02  0.66384412953E+02  0.75824521190E+02  0.47000000000E+01 0. -1.
        -11    1    1    2    0    0 -0.16822632101E+01  0.11922129583E+03  0.17315333787E+03  0.21023469220E+03  0.00000000000E+00 0.  1.
         11    1    1    2    0    0 -0.29108938630E+02  0.20811429063E+02  0.15735907264E+03  0.16137634161E+03  0.00000000000E+00 0. -1.
<mgrwt>
<rscale>  0 0.18491164E+03</rscale>
<asrwt>0</asrwt>
<pdfrwt beam="2">  1        1 0.10799548E-01 0.19021535E+03</pdfrwt>
<pdfrwt beam="1">  1       -1 0.82039176E-01 0.19021535E+03</pdfrwt>
<totfact> 0.88999791E+02</totfact>
</mgrwt>
</event>
<event>
 7    1  0.8712071E-006  0.1292814E+03  0.7546771E-02  0.1242214E+00
         -3   -1    0    0    0  501 -0.00000000000E+00  0.00000000000E+00  0.11332731275E+03  0.11332731275E+03  0.00000000000E+00 0.  1.
          3   -1    0    0  501    0  0.00000000000E+00 -0.00000000000E+00 -0.11451376339E+03  0.11451376339E+03  0.00000000000E+00 0. -1.
         23    2    1    2    0    0  0.12302936998E+02 -0.30600490773E+02  0.91251302827E+01  0.12960299597E+03  0.12500366501E+03 0.  0.
          5    1    3    3  502    0  0.46271513711E+02 -0.46819261073E+02  0.42982341659E+02  0.78757017992E+02  0.47000000000E+01 0.  1.
         -5    1    3    3    0  502 -0.33968576713E+02  0.16218770300E+02 -0.33857211376E+02  0.50845977974E+02  0.47000000000E+01 0.  1.
        -11    1    1    2    0    0  0.37120970241E+02  0.76854357498E+01  0.11412156548E+02  0.39588756880E+02  0.00000000000E+00 0.  1.
         11    1    1    2    0    0 -0.49423907238E+02  0.22915055023E+02 -0.21723737468E+02  0.58649323295E+02  0.00000000000E+00 0. -1.
<mgrwt>
<rscale>  0 0.12053702E+03</rscale>
<asrwt>0</asrwt>
<pdfrwt beam="2">  1        3 0.17617502E-01 0.12928135E+03</pdfrwt>
<pdfrwt beam="1">  1       -3 0.17434971E-01 0.12928135E+03</pdfrwt>
<totfact> 0.18250044E+03</totfact>
</mgrwt>
</event>
<event>
 7    1  0.8712071E-006  0.1465695E+03  0.7546771E-02  0.1214423E+00
          3   -1    0    0  501    0  0.00000000000E+00  0.00000000000E+00  0.76684208438E+03  0.76684208438E+03  0.00000000000E+00 0. -1.
         -3   -1    0    0    0  501 -0.00000000000E+00 -0.00000000000E+00 -0.24969185123E+02  0.24969185123E+02  0.00000000000E+00 0.  1.
         23    2    1    2    0    0  0.17447573688E+02  0.74523080608E+02  0.29633097816E+03  0.33059742462E+03  0.12499800469E+03 0.  0.
          5    1    3    3  502    0  0.27255850382E+02 -0.25455200433E+02  0.38315176674E+02  0.53674867235E+02  0.47000000000E+01 0. -1.
         -5    1    3    3    0  502 -0.98082766949E+01  0.99978281040E+02  0.25801580148E+03  0.27692255738E+03  0.47000000000E+01 0. -1.
        -11    1    1    2    0    0 -0.29379288176E+02  0.79206095952E+01  0.66571514380E+02  0.73195936751E+02  0.00000000000E+00 0.  1.
         11    1    1    2    0    0  0.11931714488E+02 -0.82443690203E+02  0.37897040672E+03  0.38801790814E+03  0.00000000000E+00 0. -1.
<mgrwt>
<rscale>  0 0.13919038E+03</rscale>
<asrwt>0</asrwt>
<pdfrwt beam="1">  1        3 0.11797569E+00 0.14656947E+03</pdfrwt>
<pdfrwt beam="2">  1       -3 0.38414137E-02 0.14656947E+03</pdfrwt>
<totfact> 0.50150868E+02</totfact>
</mgrwt>
</event>
<event>
 7    1  0.8712071E-006  0.2007616E+03  0.7546771E-02  0.1153282E+00
         -2   -1    0    0    0  501 -0.00000000000E+00  0.00000000000E+00  0.23449824059E+03  0.23449824059E+03  0.00000000000E+00 0.  1.
          2   -1    0    0  501    0  0.00000000000E+00 -0.00000000000E+00 -0.16601812105E+03  0.16601812105E+03  0.00000000000E+00 0. -1.
         23    2    1    2    0    0 -0.15654364126E+03 -0.13226123974E+02  0.84794925864E+02  0.21793439306E+03  0.12499751299E+03 0.  0.
          5    1    3    3  502    0  0.18704486685E+01  0.46802668234E+01 -0.23934111766E+02  0.24906528899E+02  0.47000000000E+01 0.  1.
         -5    1    3    3    0  502 -0.15841408993E+03 -0.17906390797E+02  0.10872903763E+03  0.19302786416E+03  0.47000000000E+01 0.  1.
        -11    1    1    2    0    0  0.64505331025E+02 -0.16090478686E+02 -0.46786983942E+02  0.81294914363E+02  0.00000000000E+00 0.  1.
         11    1    1    2    0    0  0.92038310234E+02  0.29316602659E+02  0.30472177621E+02  0.10128705421E+03  0.00000000000E+00 0. -1.
<mgrwt>
<rscale>  0 0.19585730E+03</rscale>
<asrwt>0</asrwt>
<pdfrwt beam="2">  1        2 0.25541249E-01 0.20076160E+03</pdfrwt>
<pdfrwt beam="1">  1       -2 0.36076652E-01 0.20076160E+03</pdfrwt>
<totfact> 0.15089387E+03</totfact>
</mgrwt>
</event>
<event>
 7    1  0.8712071E-006  0.1307695E+03  0.7546771E-02  0.1241369E+00
          1   -1    0    0  501    0  0.00000000000E+00  0.00000000000E+00  0.72222162564E+02  0.72222162564E+02  0.00000000000E+00 0. -1.
         -1   -1    0    0    0  501 -0.00000000000E+00 -0.00000000000E+00 -0.19127359411E+03  0.19127359411E+03  0.00000000000E+00 0.  1.
         23    2    1    2    0    0 -0.38360219214E+02  0.25722364893E+01 -0.10227483690E+03  0.16601448490E+03  0.12499017607E+03 0.  0.
          5    1    3    3  502    0 -0.26282047013E+02 -0.29752007326E+02 -0.12032312821E+03  0.12678987781E+03  0.47000000000E+01 0. -1.
         -5    1    3    3    0  502 -0.12078172201E+02  0.32324243815E+02  0.18048291304E+02  0.39224607085E+02  0.47000000000E+01 0. -1.
        -11    1    1    2    0    0  0.64334189550E+01  0.39667240694E+02  0.44617945227E+01  0.40432492801E+02  0.00000000000E+00 0. -1.
         11    1    1    2    0    0  0.31926800259E+02 -0.42239477184E+02 -0.21238389163E+02  0.57048778969E+02  0.00000000000E+00 0.  1.
<mgrwt>
<rscale>  0 0.12105368E+03</rscale>
<asrwt>0</asrwt>
<pdfrwt beam="1">  1        1 0.11111102E-01 0.13076952E+03</pdfrwt>
<pdfrwt beam="2">  1       -1 0.29426707E-01 0.13076952E+03</pdfrwt>
<totfact> 0.55784423E+03</totfact>
</mgrwt>
</event>
<event>
 7    1  0.8712071E-006  0.1186755E+03  0.7546771E-02  0.1254697E+00
         -1   -1    0    0    0  501 -0.00000000000E+00  0.00000000000E+00  0.15086231796E+03  0.15086231796E+03  0.00000000000E+00 0.  1.
          1   -1    0    0  501    0  0.00000000000E+00 -0.00000000000E+00 -0.98418208930E+02  0.98418208930E+02  0.00000000000E+00 0. -1.
         23    2    1    2    0    0  0.24389444472E+02 -0.23994341032E+02  0.84662937024E+02  0.14577954402E+03  0.11363665406E+03 0.  0.
          5    1    3    3  502    0 -0.11394758789E+02  0.22651586147E+02 -0.15102412149E+02  0.29884908157E+02  0.47000000000E+01 0. -1.
         -5    1    3    3    0  502  0.35784203261E+02 -0.46645927179E+02  0.99765349173E+02  0.11589463586E+03  0.47000000000E+01 0.  1.
        -11    1    1    2    0    0 -0.36139817600E+02 -0.26017612874E+02 -0.35571362670E+01  0.44672763674E+02  0.00000000000E+00 0.  1.
         11    1    1    2    0    0  0.11750373128E+02  0.50011953907E+02 -0.28661691723E+02  0.58828219204E+02  0.00000000000E+00 0. -1.
<mgrwt>
<rscale>  0 0.11323317E+03</rscale>
<asrwt>0</asrwt>
<pdfrwt beam="2">  1        1 0.15141263E-01 0.11867545E+03</pdfrwt>
<pdfrwt beam="1">  1       -1 0.23209587E-01 0.11867545E+03</pdfrwt>
<totfact> 0.54744741E+03</totfact>
</mgrwt>
</event>
<event>
 6    1  0.8712071E-006  0.1547587E+03  0.7546771E-02  0.1219983E+00
         -1   -1    0    0    0  501 -0.00000000000E+00  0.00000000000E+00  0.13250858868E+03  0.13250858868E+03  0.00000000000E+00 0.  1.
          1   -1    0    0  501    0  0.00000000000E+00 -0.00000000000E+00 -0.44546291334E+03  0.44546291334E+03  0.00000000000E+00 0. -1.
          5    1    1    2  502    0 -0.59533326218E+02  0.76550739196E+01  0.72086719480E+02  0.93922320099E+02  0.47000000000E+01 0. -1.
         -5    1    1    2    0  502  0.79581318271E+02 -0.73156014453E+01  0.83425743692E+01  0.80488463703E+02  0.47000000000E+01 0.  1.
        -11    1    1    2    0    0  0.17121611554E+02  0.33980401325E+02 -0.20504883038E+03  0.20854937089E+03  0.00000000000E+00 0.  1.
         11    1    1    2    0    0 -0.37169603606E+02 -0.34319873800E+02 -0.18833478813E+03  0.19501134734E+03  0.00000000000E+00 0. -1.
<mgrwt>
<rscale>  0 0.13516765E+03</rscale>
<asrwt>0</asrwt>
<pdfrwt beam="2">  1        1 0.68532754E-01 0.15475868E+03</pdfrwt>
<pdfrwt beam="1">  1       -1 0.20385937E-01 0.15475868E+03</pdfrwt>
<totfact> 0.10259310E+03</totfact>
</mgrwt>
</event>
<event>
 7    1  0.8712071E-006  0.1777527E+03  0.7546771E-02  0.1175870E+00
          2   -1    0    0  501    0  0.00000000000E+00  0.00000000000E+00  0.47105996010E+03  0.47105996010E+03  0.00000000000E+00 0. -1.
         -2   -1    0    0    0  501 -0.00000000000E+00 -0.00000000000E+00 -0.59598476072E+02  0.59598476072E+02  0.00000000000E+00 0.  1.
         23    2    1    2    0    0  0.93360036871E+02 -0.85166137771E+02  0.19155906364E+03  0.26132529976E+03  0.12500667952E+03 0.  0.
          5    1    3    3  502    0  0.62821072975E+02  0.88174868792E+01  0.13020443305E+03  0.14491211016E+03  0.47000000000E+01 0. -1.
         -5    1    3    3    0  502  0.30538963896E+02 -0.93983624651E+02  0.61354630589E+02  0.11641318960E+03  0.47000000000E+01 0. -1.
        -11    1    1    2    0    0 -0.41983546235E+02  0.22787072933E+02  0.16621703374E+02  0.50578156059E+02  0.00000000000E+00 0.  1.
         11    1    1    2    0    0 -0.51376490636E+02  0.62379064838E+02  0.20328071701E+03  0.21875498036E+03  0.00000000000E+00 0. -1.
<mgrwt>
<rscale>  0 0.17191018E+03</rscale>
<asrwt>0</asrwt>
<pdfrwt beam="1">  1        2 0.72470760E-01 0.17775274E+03</pdfrwt>
<pdfrwt beam="2">  1       -2 0.91689967E-02 0.17775274E+03</pdfrwt>
<totfact> 0.49559680E+03</totfact>
</mgrwt>
</event>
<event>
 7    1  0.8712071E-006  0.1269886E+03  0.7546771E-02  0.1243916E+00
         -4   -1    0    0    0  501 -0.00000000000E+00  0.00000000000E+00  0.76819652278E+03  0.76819652278E+03  0.00000000000E+00 0.  1.
          4   -1    0    0  501    0  0.00000000000E+00 -0.00000000000E+00 -0.35423227118E+02  0.35423227118E+02  0.00000000000E+00 0. -1.
         23    2    1    2    0    0  0.23745926558E+02  0.33044985943E+02  0.67832783726E+03  0.69011214302E+03  0.12029245622E+03 0.  0.
          5    1    3    3  502    0  0.34487551059E+02 -0.38855573434E+02  0.34455475633E+03  0.34848130061E+03  0.47000000000E+01 0. -1.
         -5    1    3    3    0  502 -0.10741624501E+02  0.71900559377E+02  0.33377308093E+03  0.34163084241E+03  0.47000000000E+01 0.  1.
        -11    1    1    2    0    0 -0.30057827912E+02 -0.47681821750E+02 -0.42711564092E+00  0.56366759459E+02  0.00000000000E+00 0. -1.
         11    1    1    2    0    0  0.63119013539E+01  0.14636835807E+02  0.54872574049E+02  0.57140847420E+02  0.00000000000E+00 0.  1.
<mgrwt>
<rscale>  0 0.11950493E+03</rscale>
<asrwt>0</asrwt>
<pdfrwt beam="2">  1        4 0.54497278E-02 0.12698864E+03</pdfrwt>
<pdfrwt beam="1">  1       -4 0.11818407E+00 0.12698864E+03</pdfrwt>
<totfact> 0.19770143E+02</totfact>
</mgrwt>
</event>
<event>
 7    1  0.8712071E-006  0.1328041E+03  0.7546771E-02  0.1236482E+00
         -4   -1    0    0    0  501 -0.00000000000E+00  0.00000000000E+00  0.21111299214E+02  0.21111299214E+02  0.00000000000E+00 0.  1.
          4   -1    0    0  501    0  0.00000000000E+00 -0.00000000000E+00 -0.64936440135E+03  0.64936440135E+03  0.00000000000E+00 0. -1.
         23    2    1    2    0    0 -0.37470755104E+02 -0.24654298139E+02 -0.34667068282E+03  0.37123779765E+03  0.12500019269E+03 0.  0.
          5    1    3    3  502    0 -0.58008427545E+02 -0.53376464029E+02 -0.13346911286E+03  0.15508100679E+03  0.47000000000E+01 0. -1.
         -5    1    3    3    0  502  0.20537672441E+02  0.28722165890E+02 -0.21320156996E+03  0.21615679086E+03  0.47000000000E+01 0. -1.
        -11    1    1    2    0    0  0.20879799170E+02 -0.32636051678E+02 -0.77908596314E+02  0.87010500872E+02  0.00000000000E+00 0.  1.
         11    1    1    2    0    0  0.16590955934E+02  0.57290349816E+02 -0.20367382300E+03  0.21222740204E+03  0.00000000000E+00 0. -1.
<mgrwt>
<rscale>  0 0.12410060E+03</rscale>
<asrwt>0</asrwt>
<pdfrwt beam="2">  1        4 0.99902209E-01 0.13280414E+03</pdfrwt>
<pdfrwt beam="1">  1       -4 0.32478924E-02 0.13280414E+03</pdfrwt>
<totfact> 0.67438060E+02</totfact>
</mgrwt>
</event>
<event>
 6    1  0.8712071E-006  0.1627899E+03  0.7546771E-02  0.1195736E+00
         -2   -1    0    0    0  501 -0.00000000000E+00  0.00000000000E+00  0.34198512319E+02  0.34198512319E+02  0.00000000000E+00 0.  1.
          2   -1    0    0  501    0  0.00000000000E+00 -0.00000000000E+00 -0.76592810164E+03  0.76592810164E+03  0.00000000000E+00 0. -1.
          5    1    1    2  502    0  0.25981542353E+02 -0.60470922130E+02 -0.15695256264E+03  0.17025853836E+03  0.47000000000E+01 0. -1.
         -5    1    1    2    0  502 -0.83004179829E+02 -0.13594997452E+02 -0.72915947192E+02  0.11141518379E+03  0.47000000000E+01 0.  1.
        -11    1    1    2    0    0  0.26793470195E+02 -0.13146552596E+02 -0.59512608245E+02  0.66576816013E+02  0.00000000000E+00 0.  1.
         11    1    1    2    0    0  0.30229167281E+02  0.87212472178E+02 -0.44234847124E+03  0.45187607579E+03  0.00000000000E+00 0. -1.
<mgrwt>
<rscale>  0 0.15392142E+03</rscale>
<asrwt>0</asrwt>
<pdfrwt beam="2">  1        2 0.11783508E+00 0.16278991E+03</pdfrwt>
<pdfrwt beam="1">  1       -2 0.52613100E-02 0.16278991E+03</pdfrwt>
<totfact> 0.66215042E+03</totfact>
</mgrwt>
</event>
<event>
 7    1  0.8712071E-006  0.2903611E+03  0.7546771E-02  0.1091745E+00
         -2   -1    0    0    0  501 -0.00000000000E+00  0.00000000000E+00  0.22970681712E+03  0.22970681712E+03  0.00000000000E+00 0.  1.
          2   -1    0    0  501    0  0.00000000000E+00 -0.00000000000E+00 -0.40182920436E+03  0.40182920436E+03  0.00000000000E+00 0. -1.
         23    2    1    2    0    0  0.44122974899E+02  0.25833662603E+03  0.23361657928E+02  0.29129940468E+03  0.12499970737E+03 0.  0.
          5    1    3    3  502    0  0.54139111720E+02  0.25377063166E+03 -0.59985144101E+01  0.25959323775E+03  0.47000000000E+01 0.  1.
         -5    1    3    3    0  502 -0.10016136822E+02  0.45659943675E+01  0.29360172338E+02  0.31706166926E+02  0.47000000000E+01 0.  1.
        -11    1    1    2    0    0 -0.38843223175E+02 -0.84181833629E+02 -0.11662753737E+03  0.14898778330E+03  0.00000000000E+00 0. -1.
         11    1    1    2    0    0 -0.52797517236E+01 -0.17415479240E+03 -0.78856507792E+02  0.19124883350E+03  0.00000000000E+00 0.  1.
<mgrwt>
<rscale>  0 0.28734221E+03</rscale>
<asrwt>0</asrwt>
<pdfrwt beam="2">  1        2 0.61819877E-01 0.29036111E+03</pdfrwt>
<pdfrwt beam="1">  1       -2 0.35339511E-01 0.29036111E+03</pdfrwt>
<totfact> 0.60153651E+02</totfact>
</mgrwt>
</event>
<event>
 7    1  0.8712071E-006  0.1677989E+03  0.7546771E-02  0.1186197E+00
         -2   -1    0    0    0  501 -0.00000000000E+00  0.00000000000E+00  0.40898208284E+02  0.40898208284E+02  0.00000000000E+00 0.  1.
          2   -1    0    0  501    0  0.00000000000E+00 -0.00000000000E+00 -0.60713419765E+03  0.60713419765E+03  0.00000000000E+00 0. -1.
         23    2    1    2    0    0 -0.49078288026E+02  0.10054903570E+03 -0.28008366670E+03  0.32650167894E+03  0.12505078593E+03 0.  0.
          5    1    3    3  502    0 -0.78399610553E+02  0.61558850328E+02 -0.24953793225E+03  0.26875129883E+03  0.47000000000E+01 0.  1.
         -5    1    3    3    0  502  0.29321322527E+02  0.38990185372E+02 -0.30545734444E+02  0.57750380110E+02  0.47000000000E+01 0.  1.
        -11    1    1    2    0    0  0.49815360680E+02 -0.11770168727E+02 -0.61769585346E+02  0.80222121047E+02  0.00000000000E+00 0.  1.
         11    1    1    2    0    0 -0.73707265365E+00 -0.88778866973E+02 -0.22438273733E+03  0.24130860595E+03  0.00000000000E+00 0. -1.
<mgrwt>
<rscale>  0 0.16223473E+03</rscale>
<asrwt>0</asrwt>
<pdfrwt beam="2">  1        2 0.93405254E-01 0.16779895E+03</pdfrwt>
<pdfrwt beam="1">  1       -2 0.62920325E-02 0.16779895E+03</pdfrwt>
<totfact> 0.66594487E+03</totfact>
</mgrwt>
</event>
<event>
 7    1  0.8712071E-006  0.1448409E+03  0.7546771E-02  0.1215285E+00
         -2   -1    0    0    0  501 -0.00000000000E+00  0.00000000000E+00  0.11197825217E+03  0.11197825217E+03  0.00000000000E+00 0.  1.
          2   -1    0    0  501    0  0.00000000000E+00 -0.00000000000E+00 -0.18451721366E+03  0.18451721366E+03  0.00000000000E+00 0. -1.
         23    2    1    2    0    0  0.68980693998E+02  0.24422464142E+02  0.16859167522E+02  0.14581880327E+03  0.12499639578E+03 0.  0.
          5    1    3    3  502    0  0.26755809011E+02  0.13190255888E+02 -0.54329770971E+02  0.62158428069E+02  0.47000000000E+01 0.  1.
         -5    1    3    3    0  502  0.42224884987E+02  0.11232208254E+02  0.71188938493E+02  0.83660375198E+02  0.47000000000E+01 0.  1.
        -11    1    1    2    0    0 -0.80991910228E+02 -0.47311765818E+02 -0.59163319989E+02  0.11089811152E+03  0.00000000000E+00 0.  1.
         11    1    1    2    0    0  0.12011216230E+02  0.22889301676E+02 -0.30234809015E+02  0.39778551038E+02  0.00000000000E+00 0. -1.
<mgrwt>
<rscale>  0 0.13855599E+03</rscale>
<asrwt>0</asrwt>
<pdfrwt beam="2">  1        2 0.28387263E-01 0.14484092E+03</pdfrwt>
<pdfrwt beam="1">  1       -2 0.17227424E-01 0.14484092E+03</pdfrwt>
<totfact> 0.48570579E+03</totfact>
</mgrwt>
</event>
<event>
 7    1  0.8712071E-006  0.1333621E+03  0.7546771E-02  0.1235573E+00
         -1   -1    0    0    0  501 -0.00000000000E+00  0.00000000000E+00  0.15693234901E+03  0.15693234901E+03  0.00000000000E+00 0.  1.
          1   -1    0    0  501    0  0.00000000000E+00 -0.00000000000E+00 -0.11068870198E+03  0.11068870198E+03  0.00000000000E+00 0. -1.
         23    2    1    2    0    0  0.38319701524E+02 -0.26311097116E+02  0.85532175057E+02  0.15843357224E+03  0.12499908194E+03 0.  0.
          5    1    3    3  502    0 -0.36480869462E+02  0.14362078029E+02  0.27422034440E+01  0.39581975718E+02  0.47000000000E+01 0.  1.
         -5    1    3    3    0  502  0.74800570986E+02 -0.40673175144E+02  0.82789971613E+02  0.11885159652E+03  0.47000000000E+01 0.  1.
        -11    1    1    2    0    0 -0.43675546078E+02  0.53563267263E+02 -0.11803857171E+02  0.70113536277E+02  0.00000000000E+00 0.  1.
         11    1    1    2    0    0  0.53558445540E+01 -0.27252170148E+02 -0.27484670854E+02  0.39073942476E+02  0.00000000000E+00 0. -1.
<mgrwt>
<rscale>  0 0.12467809E+03</rscale>
<asrwt>0</asrwt>
<pdfrwt beam="2">  1        1 0.17029031E-01 0.13336208E+03</pdfrwt>
<pdfrwt beam="1">  1       -1 0.24143438E-01 0.13336208E+03</pdfrwt>
<totfact> 0.44477100E+03</totfact>
</mgrwt>
</event>
<event>
 7    1  0.8712071E-006  0.1354127E+03  0.7546771E-02  0.1231165E+00
          1   -1    0    0  501    0  0.00000000000E+00  0.00000000000E+00  0.23140919017E+03  0.23140919017E+03  0.00000000000E+00 0. -1.
         -1   -1    0    0    0  501 -0.00000000000E+00 -0.00000000000E+00 -0.66678156306E+02  0.66678156306E+02  0.00000000000E+00 0.  1.
         23    2    1    2    0    0 -0.50685545504E+02 -0.11881505530E+02  0.58083496360E+02  0.14734410994E+03  0.12500559782E+03 0.  0.
          5    1    3    3  502    0 -0.40778390764E+02  0.54411047477E+02  0.27033449944E+02  0.73323506849E+02  0.47000000000E+01 0.  1.
         -5    1    3    3    0  502 -0.99071547396E+01 -0.66292553007E+02  0.31050046417E+02  0.74020603089E+02  0.47000000000E+01 0.  1.
        -11    1    1    2    0    0 -0.23715981511E+02  0.20478487154E+02  0.36783413664E+02  0.48320137996E+02  0.00000000000E+00 0. -1.
         11    1    1    2    0    0  0.74401527015E+02 -0.85969816241E+01  0.69864123839E+02  0.10242309854E+03  0.00000000000E+00 0.  1.
<mgrwt>
<rscale>  0 0.12753170E+03</rscale>
<asrwt>0</asrwt>
<pdfrwt beam="1">  1        1 0.35601413E-01 0.13541268E+03</pdfrwt>
<pdfrwt beam="2">  1       -1 0.10258178E-01 0.13541268E+03</pdfrwt>
<totfact> 0.67858729E+03</totfact>
</mgrwt>
</event>
<event>
 7    1  0.8712071E-006  0.1576786E+03  0.7546771E-02  0.1199733E+00
         -2   -1    0    0    0  501 -0.00000000000E+00  0.00000000000E+00  0.30708658797E+02  0.30708658797E+02  0.00000000000E+00 0.  1.
          2   -1    0    0  501    0  0.00000000000E+00 -0.00000000000E+00 -0.78977755632E+03  0.78977755632E+03  0.00000000000E+00 0. -1.
         23    2    1    2    0    0 -0.94407636329E+00  0.96080833353E+02 -0.25669284342E+03  0.30125361844E+03  0.12502043410E+03 0.  0.
          5    1    3    3  502    0  0.62269373215E-01 -0.12208870817E+02  0.79245280068E+01  0.15295376695E+02  0.47000000000E+01 0. -1.
         -5    1    3    3    0  502 -0.10063457365E+01  0.10828970417E+03 -0.26461737143E+03  0.28595824175E+03  0.47000000000E+01 0. -1.
        -11    1    1    2    0    0 -0.41942054995E+02 -0.67314084183E+02 -0.32049065954E+03  0.33015842372E+03  0.00000000000E+00 0. -1.
         11    1    1    2    0    0  0.42886131358E+02 -0.28766749170E+02 -0.18188539456E+03  0.18907417295E+03  0.00000000000E+00 0.  1.
<mgrwt>
<rscale>  0 0.15060386E+03</rscale>
<asrwt>0</asrwt>
<pdfrwt beam="2">  1        2 0.12150423E+00 0.15767856E+03</pdfrwt>
<pdfrwt beam="1">  1       -2 0.47244095E-02 0.15767856E+03</pdfrwt>
<totfact> 0.74860563E+03</totfact>
</mgrwt>
</event>
<event>
 7    1  0.8712071E-006  0.2136829E+03  0.7546771E-02  0.1142171E+00
          2   -1    0    0  501    0  0.00000000000E+00  0.00000000000E+00  0.92121038693E+02  0.92121038693E+02  0.00000000000E+00 0. -1.
         -2   -1    0    0    0  501 -0.00000000000E+00 -0.00000000000E+00 -0.46700596063E+03  0.46700596063E+03  0.00000000000E+00 0.  1.
         23    2    1    2    0    0  0.17256075565E+03 -0.16273823274E+02 -0.15321418981E+03  0.26293526485E+03  0.12497325245E+03 0.  0.
          5    1    3    3  502    0  0.16412340915E+03 -0.33467798711E+02 -0.16876247271E+03  0.23782230588E+03  0.47000000000E+01 0. -1.
         -5    1    3    3    0  502  0.84373465017E+01  0.17193975437E+02  0.15548282893E+02  0.25112958970E+02  0.47000000000E+01 0. -1.
        -11    1    1    2    0    0 -0.79192823424E+02  0.21858659136E+02 -0.38945002797E+02  0.90917641324E+02  0.00000000000E+00 0.  1.
         11    1    1    2    0    0 -0.93367932225E+02 -0.55848358625E+01 -0.18272572932E+03  0.20527409314E+03  0.00000000000E+00 0. -1.
<mgrwt>
<rscale>  0 0.20923720E+03</rscale>
<asrwt>0</asrwt>
<pdfrwt beam="1">  1        2 0.14172467E-01 0.21368286E+03</pdfrwt>
<pdfrwt beam="2">  1       -2 0.71847072E-01 0.21368286E+03</pdfrwt>
<totfact> 0.74881882E+02</totfact>
</mgrwt>
</event>
<event>
 7    1  0.8712071E-006  0.1331051E+03  0.7546771E-02  0.1230374E+00
          3   -1    0    0  501    0  0.00000000000E+00  0.00000000000E+00  0.77758439515E+03  0.77758439515E+03  0.00000000000E+00 0. -1.
         -3   -1    0    0    0  501 -0.00000000000E+00 -0.00000000000E+00 -0.19649689655E+02  0.19649689655E+02  0.00000000000E+00 0.  1.
         23    2    1    2    0    0  0.63424257976E+02 -0.23523750938E+02  0.41934867450E+03  0.43996621430E+03  0.11463400700E+03 0.  0.
          5    1    3    3  502    0 -0.83137013513E+01  0.37567171200E+02  0.12259609968E+03  0.12857800604E+03  0.47000000000E+01 0. -1.
         -5    1    3    3    0  502  0.71737959327E+02 -0.61090922139E+02  0.29675257483E+03  0.31138820826E+03  0.47000000000E+01 0.  1.
        -11    1    1    2    0    0  0.33170650839E+01 -0.13025624784E+02  0.38358230468E+01  0.13977959803E+02  0.00000000000E+00 0.  1.
         11    1    1    2    0    0 -0.66741323060E+02  0.36549375723E+02  0.33475020795E+03  0.34328991070E+03  0.00000000000E+00 0. -1.
<mgrwt>
<rscale>  0 0.12805253E+03</rscale>
<asrwt>0</asrwt>
<pdfrwt beam="1">  1        3 0.11962834E+00 0.13310507E+03</pdfrwt>
<pdfrwt beam="2">  1       -3 0.30230298E-02 0.13310507E+03</pdfrwt>
<totfact> 0.69478372E+02</totfact>
</mgrwt>
</event>
<event>
 7    1  0.8712071E-006  0.2082818E+03  0.7546771E-02  0.1150414E+00
          2   -1    0    0  501    0  0.00000000000E+00  0.00000000000E+00  0.11927307555E+04  0.11927307555E+04  0.00000000000E+00 0.  1.
         -2   -1    0    0    0  501 -0.00000000000E+00 -0.00000000000E+00 -0.30680295818E+02  0.30680295818E+02  0.00000000000E+00 0. -1.
         23    2    1    2    0    0  0.16401138997E+03  0.29259798967E+02  0.64113752161E+03  0.67412063960E+03  0.12500177293E+03 0.  0.
          5    1    3    3  502    0  0.16877230266E+03  0.88802229363E+01  0.62448079223E+03  0.64696313524E+03  0.47000000000E+01 0. -1.
         -5    1    3    3    0  502 -0.47609126888E+01  0.20379576031E+02  0.16656729386E+02  0.27157504353E+02  0.47000000000E+01 0. -1.
        -11    1    1    2    0    0 -0.12525377948E+03 -0.36279899216E+02  0.34023096413E+03  0.36436499464E+03  0.00000000000E+00 0. -1.
         11    1    1    2    0    0 -0.38757610488E+02  0.70201002486E+01  0.18068197393E+03  0.18492541707E+03  0.00000000000E+00 0.  1.
<mgrwt>
<rscale>  0 0.19920192E+03</rscale>
<asrwt>0</asrwt>
<pdfrwt beam="1">  1        2 0.18349700E+00 0.20828182E+03</pdfrwt>
<pdfrwt beam="2">  1       -2 0.47200464E-02 0.20828182E+03</pdfrwt>
<totfact> 0.42856139E+03</totfact>
</mgrwt>
</event>
<event>
 7    1  0.8712071E-006  0.1356250E+03  0.7546771E-02  0.1229884E+00
         -2   -1    0    0    0  501 -0.00000000000E+00  0.00000000000E+00  0.91773782229E+02  0.91773782229E+02  0.00000000000E+00 0.  1.
          2   -1    0    0  501    0  0.00000000000E+00 -0.00000000000E+00 -0.19339611382E+03  0.19339611382E+03  0.00000000000E+00 0. -1.
         23    2    1    2    0    0  0.20312867960E+02 -0.48536905457E+02  0.89060428512E+00  0.13562789189E+03  0.12500275231E+03 0.  0.
          5    1    3    3  502    0  0.18900474306E+02  0.37874797047E+02  0.19908114049E+02  0.47012245058E+02  0.47000000000E+01 0.  1.
         -5    1    3    3    0  502  0.14123936540E+01 -0.86411702505E+02 -0.19017509763E+02  0.88615646830E+02  0.47000000000E+01 0.  1.
        -11    1    1    2    0    0  0.17196170631E+02  0.48015879892E+02 -0.13217582209E+02  0.52687166233E+02  0.00000000000E+00 0.  1.
         11    1    1    2    0    0 -0.37509038591E+02  0.52102556474E+00 -0.89295353669E+02  0.96854837930E+02  0.00000000000E+00 0. -1.
<mgrwt>
<rscale>  0 0.12837706E+03</rscale>
<asrwt>0</asrwt>
<pdfrwt beam="2">  1        2 0.29753248E-01 0.13562497E+03</pdfrwt>
<pdfrwt beam="1">  1       -2 0.14119043E-01 0.13562497E+03</pdfrwt>
<totfact> 0.63728117E+03</totfact>
</mgrwt>
</event>
<event>
 7    1  0.8712071E-006  0.1425377E+03  0.7546771E-02  0.1220033E+00
          2   -1    0    0  501    0  0.00000000000E+00  0.00000000000E+00  0.51429478926E+03  0.51429478926E+03  0.00000000000E+00 0. -1.
         -2   -1    0    0    0  501 -0.00000000000E+00 -0.00000000000E+00 -0.33751916952E+02  0.33751916952E+02  0.00000000000E+00 0.  1.
         23    2    1    2    0    0  0.35788312198E+02  0.58405596663E+02  0.20773541528E+03  0.25193448914E+03  0.12499986819E+03 0.  0.
          5    1    3    3  502    0  0.74489416337E+02  0.28708815917E+02  0.71936627862E+02  0.10756317997E+03  0.47000000000E+01 0.  1.
         -5    1    3    3    0  502 -0.38701104139E+02  0.29696780746E+02  0.13579878742E+03  0.14437130917E+03  0.47000000000E+01 0.  1.
        -11    1    1    2    0    0  0.10340187181E+02 -0.43945943605E+02  0.46930470401E+02  0.65120154194E+02  0.00000000000E+00 0.  1.
         11    1    1    2    0    0 -0.46128499379E+02 -0.14459653059E+02  0.22587698663E+03  0.23099206287E+03  0.00000000000E+00 0. -1.
<mgrwt>
<rscale>  0 0.13513230E+03</rscale>
<asrwt>0</asrwt>
<pdfrwt beam="1">  1        2 0.79122270E-01 0.14253766E+03</pdfrwt>
<pdfrwt beam="2">  1       -2 0.51926030E-02 0.14253766E+03</pdfrwt>
<totfact> 0.10639305E+04</totfact>
</mgrwt>
</event>
<event>
 7    1  0.8712071E-006  0.1822733E+03  0.7546771E-02  0.1169025E+00
          2   -1    0    0  501    0  0.00000000000E+00  0.00000000000E+00  0.10051334202E+03  0.10051334202E+03  0.00000000000E+00 0. -1.
         -2   -1    0    0    0  501 -0.00000000000E+00 -0.00000000000E+00 -0.56385469957E+03  0.56385469957E+03  0.00000000000E+00 0.  1.
         23    2    1    2    0    0 -0.80305111845E+02  0.11270965437E+03 -0.46107320841E+03  0.49579436251E+03  0.11862195919E+03 0.  0.
          5    1    3    3  502    0 -0.17219806013E+02 -0.12309576941E+02 -0.10796932247E+02  0.24222121079E+02  0.47000000000E+01 0. -1.
         -5    1    3    3    0  502 -0.63085305832E+02  0.12501923131E+03 -0.45027627617E+03  0.47157224143E+03  0.47000000000E+01 0.  1.
        -11    1    1    2    0    0  0.70195427764E+02 -0.13044176535E+03 -0.27737582365E+01  0.14815581650E+03  0.00000000000E+00 0. -1.
         11    1    1    2    0    0  0.10109684081E+02  0.17732110981E+02  0.50560909414E+00  0.20417862587E+02  0.00000000000E+00 0.  1.
<mgrwt>
<rscale>  0 0.17874334E+03</rscale>
<asrwt>0</asrwt>
<pdfrwt beam="1">  1        2 0.15463591E-01 0.18227327E+03</pdfrwt>
<pdfrwt beam="2">  1       -2 0.86746875E-01 0.18227327E+03</pdfrwt>
<totfact> 0.44522397E+02</totfact>
</mgrwt>
</event>
<event>
 7    1  0.8712071E-006  0.1308799E+03  0.7546771E-02  0.1239229E+00
         -1   -1    0    0    0  501 -0.00000000000E+00  0.00000000000E+00  0.63979652811E+02  0.63979652811E+02  0.00000000000E+00 0.  1.
          1   -1    0    0  501    0  0.00000000000E+00 -0.00000000000E+00 -0.21556733298E+03  0.21556733298E+03  0.00000000000E+00 0. -1.
         23    2    1    2    0    0 -0.38167193047E+02  0.68879959691E+01 -0.60237728657E+02  0.14407683044E+03  0.12500148000E+03 0.  0.
          5    1    3    3  502    0 -0.67314448746E+00 -0.29502615996E+02 -0.82004438574E+02  0.87279295483E+02  0.47000000000E+01 0. -1.
         -5    1    3    3    0  502 -0.37494048560E+02  0.36390611965E+02  0.21766709917E+02  0.56797534957E+02  0.47000000000E+01 0. -1.
        -11    1    1    2    0    0  0.32298476310E+02  0.23967404622E+02 -0.95656259410E+02  0.10376776002E+03  0.00000000000E+00 0. -1.
         11    1    1    2    0    0  0.58687167375E+01 -0.30855400591E+02  0.43063078980E+01  0.31702395327E+02  0.00000000000E+00 0.  1.
<mgrwt>
<rscale>  0 0.12237554E+03</rscale>
<asrwt>0</asrwt>
<pdfrwt beam="2">  1        1 0.33164206E-01 0.13087990E+03</pdfrwt>
<pdfrwt beam="1">  1       -1 0.98430234E-02 0.13087990E+03</pdfrwt>
<totfact> 0.78720158E+03</totfact>
</mgrwt>
</event>
<event>
 7    1  0.8712071E-006  0.1370390E+03  0.7546771E-02  0.1229622E+00
         -2   -1    0    0    0  501 -0.00000000000E+00  0.00000000000E+00  0.81826818377E+02  0.81826818377E+02  0.00000000000E+00 0.  1.
          2   -1    0    0  501    0  0.00000000000E+00 -0.00000000000E+00 -0.18258623659E+03  0.18258623659E+03  0.00000000000E+00 0. -1.
         23    2    1    2    0    0 -0.21493787517E+02 -0.51866268578E+02 -0.70285246508E+02  0.15401199215E+03  0.12501034010E+03 0.  0.
          5    1    3    3  502    0  0.36924519115E+02 -0.40691070645E+02 -0.76193663117E+02  0.94057150932E+02  0.47000000000E+01 0. -1.
         -5    1    3    3    0  502 -0.58418306632E+02 -0.11175197933E+02  0.59084166091E+01  0.59954841218E+02  0.47000000000E+01 0. -1.
        -11    1    1    2    0    0  0.24475288096E+02  0.70066077516E+02 -0.45114569188E+02  0.86854011415E+02  0.00000000000E+00 0. -1.
         11    1    1    2    0    0 -0.29815005788E+01 -0.18199808938E+02  0.14640397486E+02  0.23547051400E+02  0.00000000000E+00 0.  1.
<mgrwt>
<rscale>  0 0.12855057E+03</rscale>
<asrwt>0</asrwt>
<pdfrwt beam="2">  1        2 0.28090189E-01 0.13703896E+03</pdfrwt>
<pdfrwt beam="1">  1       -2 0.12588742E-01 0.13703896E+03</pdfrwt>
<totfact> 0.81694210E+03</totfact>
</mgrwt>
</event>
<event>
 7    1  0.8712071E-006  0.2569969E+03  0.7546771E-02  0.1110921E+00
          2   -1    0    0  501    0  0.00000000000E+00  0.00000000000E+00  0.95300318956E+03  0.95300318956E+03  0.00000000000E+00 0. -1.
         -2   -1    0    0    0  501 -0.00000000000E+00 -0.00000000000E+00 -0.70273187507E+02  0.70273187507E+02  0.00000000000E+00 0.  1.
         23    2    1    2    0    0 -0.14073634080E+03  0.17497468619E+03  0.32514028175E+03  0.41444375143E+03  0.12499824739E+03 0.  0.
          5    1    3    3  502    0 -0.76724524995E+02  0.16120379020E+03  0.28839225325E+03  0.33921305465E+03  0.47000000000E+01 0. -1.
         -5    1    3    3    0  502 -0.64011815805E+02  0.13770895993E+02  0.36748028505E+02  0.75230696781E+02  0.47000000000E+01 0. -1.
        -11    1    1    2    0    0  0.11703886653E+03 -0.11631062572E+03  0.28800909121E+03  0.33192694159E+03  0.00000000000E+00 0.  1.
         11    1    1    2    0    0  0.23697474274E+02 -0.58664060467E+02  0.26958062909E+03  0.27690568405E+03  0.00000000000E+00 0. -1.
<mgrwt>
<rscale>  0 0.25380907E+03</rscale>
<asrwt>0</asrwt>
<pdfrwt beam="1">  1        2 0.14661587E+00 0.25699693E+03</pdfrwt>
<pdfrwt beam="2">  1       -2 0.10811260E-01 0.25699693E+03</pdfrwt>
<totfact> 0.16440233E+03</totfact>
</mgrwt>
</event>
<event>
 7    1  0.8712071E-006  0.1278037E+03  0.7546771E-02  0.1245044E+00
          2   -1    0    0  501    0  0.00000000000E+00  0.00000000000E+00  0.37354605873E+03  0.37354605873E+03  0.00000000000E+00 0. -1.
         -2   -1    0    0    0  501 -0.00000000000E+00 -0.00000000000E+00 -0.33526108509E+02  0.33526108509E+02  0.00000000000E+00 0.  1.
         23    2    1    2    0    0  0.57451479642E+01  0.26029784541E+02  0.18094577762E+03  0.22152915937E+03  0.12499295022E+03 0.  0.
          5    1    3    3  502    0  0.29115531733E+02  0.13958013941E+01  0.18469951300E+03  0.18704454697E+03  0.47000000000E+01 0.  1.
         -5    1    3    3    0  502 -0.23370383769E+02  0.24633983146E+02 -0.37537353749E+01  0.34484612401E+02  0.47000000000E+01 0.  1.
        -11    1    1    2    0    0  0.15375908763E+02  0.16799864291E+02  0.37968346889E+01  0.23088307953E+02  0.00000000000E+00 0.  1.
         11    1    1    2    0    0 -0.21121056728E+02 -0.42829648831E+02  0.15527733790E+03  0.16245469991E+03  0.00000000000E+00 0. -1.
<mgrwt>
<rscale>  0 0.11882741E+03</rscale>
<asrwt>0</asrwt>
<pdfrwt beam="1">  1        2 0.57468621E-01 0.12780373E+03</pdfrwt>
<pdfrwt beam="2">  1       -2 0.51578631E-02 0.12780373E+03</pdfrwt>
<totfact> 0.15053383E+04</totfact>
</mgrwt>
</event>
<event>
 7    1  0.8712071E-006  0.1433498E+03  0.7546771E-02  0.1219303E+00
         -1   -1    0    0    0  501 -0.00000000000E+00  0.00000000000E+00  0.52789322098E+02  0.52789322098E+02  0.00000000000E+00 0.  1.
          1   -1    0    0  501    0  0.00000000000E+00 -0.00000000000E+00 -0.36857784070E+03  0.36857784070E+03  0.00000000000E+00 0. -1.
         23    2    1    2    0    0 -0.61640662971E+02 -0.33524850904E+02 -0.93592605503E+02  0.17119794768E+03  0.12500269807E+03 0.  0.
          5    1    3    3  502    0  0.23113384506E+02 -0.37966099855E+02 -0.69880769133E+02  0.82952186084E+02  0.47000000000E+01 0.  1.
         -5    1    3    3    0  502 -0.84754047476E+02  0.44412489513E+01 -0.23711836370E+02  0.88245761597E+02  0.47000000000E+01 0.  1.
        -11    1    1    2    0    0  0.48843067206E+02  0.48024399983E+02 -0.22033912951E+03  0.23074080741E+03  0.00000000000E+00 0. -1.
         11    1    1    2    0    0  0.12797595765E+02 -0.14499549079E+02 -0.18567835840E+01  0.19428407710E+02  0.00000000000E+00 0.  1.
<mgrwt>
<rscale>  0 0.13565178E+03</rscale>
<asrwt>0</asrwt>
<pdfrwt beam="2">  1        1 0.56704281E-01 0.14334979E+03</pdfrwt>
<pdfrwt beam="1">  1       -1 0.81214345E-02 0.14334979E+03</pdfrwt>
<totfact> 0.54506799E+03</totfact>
</mgrwt>
</event>
<event>
 7    1  0.8712071E-006  0.1826710E+03  0.7546771E-02  0.1170726E+00
         -1   -1    0    0    0  501 -0.00000000000E+00  0.00000000000E+00  0.64739458405E+03  0.64739458405E+03  0.00000000000E+00 0.  1.
          1   -1    0    0  501    0  0.00000000000E+00 -0.00000000000E+00 -0.72393898111E+02  0.72393898111E+02  0.00000000000E+00 0. -1.
         23    2    1    2    0    0 -0.59601048466E+02  0.11912630182E+03  0.51745319086E+03  0.54874992651E+03  0.12500126542E+03 0.  0.
          5    1    3    3  502    0 -0.69746249827E+02  0.19424819740E+02  0.30909112173E+03  0.31749216450E+03  0.47000000000E+01 0.  1.
         -5    1    3    3    0  502  0.10145201362E+02  0.99701482084E+02  0.20836206913E+03  0.23125776201E+03  0.47000000000E+01 0.  1.
        -11    1    1    2    0    0 -0.61046805253E+01 -0.74258069834E+02  0.52825216719E+02  0.91334722757E+02  0.00000000000E+00 0.  1.
         11    1    1    2    0    0  0.65705728991E+02 -0.44868231990E+02  0.47222783613E+01  0.79703832888E+02  0.00000000000E+00 0. -1.
<mgrwt>
<rscale>  0 0.17701234E+03</rscale>
<asrwt>0</asrwt>
<pdfrwt beam="2">  1        1 0.11137523E-01 0.18267095E+03</pdfrwt>
<pdfrwt beam="1">  1       -1 0.99599163E-01 0.18267095E+03</pdfrwt>
<totfact> 0.56359410E+02</totfact>
</mgrwt>
</event>
<event>
 7    1  0.8712071E-006  0.1545138E+03  0.7546771E-02  0.1203623E+00
          2   -1    0    0  501    0  0.00000000000E+00  0.00000000000E+00  0.35926549529E+03  0.35926549529E+03  0.00000000000E+00 0. -1.
         -2   -1    0    0    0  501 -0.00000000000E+00 -0.00000000000E+00 -0.58475157431E+02  0.58475157431E+02  0.00000000000E+00 0.  1.
         23    2    1    2    0    0 -0.24141879663E+02 -0.87542139962E+02  0.11771019432E+03  0.19424264154E+03  0.12501222869E+03 0.  0.
          5    1    3    3  502    0 -0.58675763630E+01  0.12734375650E+02 -0.18732772613E+02  0.23866284699E+02  0.47000000000E+01 0. -1.
         -5    1    3    3    0  502 -0.18274303300E+02 -0.10027651561E+03  0.13644296694E+03  0.17037635684E+03  0.47000000000E+01 0. -1.
        -11    1    1    2    0    0 -0.15375232820E+02  0.84185701983E+02  0.10130672836E+03  0.13261479335E+03  0.00000000000E+00 0.  1.
         11    1    1    2    0    0  0.39517112483E+02  0.33564379791E+01  0.81773415175E+02  0.90883217836E+02  0.00000000000E+00 0. -1.
<mgrwt>
<rscale>  0 0.14746540E+03</rscale>
<asrwt>0</asrwt>
<pdfrwt beam="1">  1        2 0.55271613E-01 0.15451380E+03</pdfrwt>
<pdfrwt beam="2">  1       -2 0.89961783E-02 0.15451380E+03</pdfrwt>
<totfact> 0.67915190E+03</totfact>
</mgrwt>
</event>
<event>
 7    1  0.8712071E-006  0.1404483E+03  0.7546771E-02  0.1224023E+00
         -3   -1    0    0    0  501 -0.00000000000E+00  0.00000000000E+00  0.72925232583E+02  0.72925232583E+02  0.00000000000E+00 0.  1.
          3   -1    0    0  501    0  0.00000000000E+00 -0.00000000000E+00 -0.22036004452E+03  0.22036004452E+03  0.00000000000E+00 0. -1.
         23    2    1    2    0    0  0.72495320182E+01 -0.63567300795E+02 -0.62432584848E+02  0.15369952032E+03  0.12502942634E+03 0.  0.
          5    1    3    3  502    0  0.60946773541E+02 -0.17076810664E+02 -0.77522904223E+01  0.63939930203E+02  0.47000000000E+01 0. -1.
         -5    1    3    3    0  502 -0.53697241523E+02 -0.46490490131E+02 -0.54680294426E+02  0.89759590119E+02  0.47000000000E+01 0. -1.
        -11    1    1    2    0    0 -0.45940879275E+02  0.27039275157E+02 -0.61581860368E+02  0.81449446382E+02  0.00000000000E+00 0. -1.
         11    1    1    2    0    0  0.38691347256E+02  0.36528025638E+02 -0.23420366721E+02  0.58136310400E+02  0.00000000000E+00 0.  1.
<mgrwt>
<rscale>  0 0.13234066E+03</rscale>
<asrwt>0</asrwt>
<pdfrwt beam="2">  1        3 0.33901545E-01 0.14044826E+03</pdfrwt>
<pdfrwt beam="1">  1       -3 0.11219267E-01 0.14044826E+03</pdfrwt>
<totfact> 0.12021048E+03</totfact>
</mgrwt>
</event>
<event>
 7    1  0.8712071E-006  0.2123701E+03  0.7546771E-02  0.1143114E+00
          2   -1    0    0  501    0  0.00000000000E+00  0.00000000000E+00  0.27429175783E+04  0.27429175783E+04  0.00000000000E+00 0. -1.
         -2   -1    0    0    0  501 -0.00000000000E+00 -0.00000000000E+00 -0.16122403409E+02  0.16122403409E+02  0.00000000000E+00 0.  1.
         23    2    1    2    0    0  0.16309375366E+03 -0.53646787756E+02  0.17505720463E+04  0.17634068075E+04  0.12499411557E+03 0.  0.
          5    1    3    3  502    0  0.87379094582E+02 -0.90565012828E+02  0.11653621033E+04  0.11721467696E+04  0.47000000000E+01 0.  1.
         -5    1    3    3    0  502  0.75714659076E+02  0.36918225072E+02  0.58520994302E+03  0.59126003784E+03  0.47000000000E+01 0.  1.
        -11    1    1    2    0    0 -0.16326796403E+02  0.45759843306E+02  0.23096097875E+03  0.23601589193E+03  0.00000000000E+00 0.  1.
         11    1    1    2    0    0 -0.14676695726E+03  0.78869444497E+01  0.74526214986E+03  0.75961728236E+03  0.00000000000E+00 0. -1.
<mgrwt>
<rscale>  0 0.20805724E+03</rscale>
<asrwt>0</asrwt>
<pdfrwt beam="1">  1        2 0.42198695E+00 0.21237015E+03</pdfrwt>
<pdfrwt beam="2">  1       -2 0.24803719E-02 0.21237015E+03</pdfrwt>
<totfact> 0.16639112E+03</totfact>
</mgrwt>
</event>
<event>
 7    1  0.8712071E-006  0.2006788E+03  0.7546771E-02  0.1153280E+00
         -1   -1    0    0    0  501 -0.00000000000E+00  0.00000000000E+00  0.16594688483E+03  0.16594688483E+03  0.00000000000E+00 0.  1.
          1   -1    0    0  501    0  0.00000000000E+00 -0.00000000000E+00 -0.22077149437E+03  0.22077149437E+03  0.00000000000E+00 0. -1.
         23    2    1    2    0    0  0.18303298080E+02  0.15591879804E+03 -0.25664724889E+02  0.20231323423E+03  0.12500513724E+03 0.  0.
          5    1    3    3  502    0 -0.42558181846E+02  0.69836181146E+02  0.24451454526E+02  0.85488330593E+02  0.47000000000E+01 0. -1.
         -5    1    3    3    0  502  0.60861479926E+02  0.86082616898E+02 -0.50116179415E+02  0.11682490364E+03  0.47000000000E+01 0. -1.
        -11    1    1    2    0    0 -0.31154460378E+02 -0.11688072907E+03  0.17505478091E+02  0.12222171244E+03  0.00000000000E+00 0.  1.
         11    1    1    2    0    0  0.12851162298E+02 -0.39038068972E+02 -0.46665362741E+02  0.62183432530E+02  0.00000000000E+00 0. -1.
<mgrwt>
<rscale>  0 0.19585949E+03</rscale>
<asrwt>0</asrwt>
<pdfrwt beam="2">  1        1 0.33964845E-01 0.20067876E+03</pdfrwt>
<pdfrwt beam="1">  1       -1 0.25530290E-01 0.20067876E+03</pdfrwt>
<totfact> 0.17228010E+03</totfact>
</mgrwt>
</event>
<event>
 7    1  0.8712071E-006  0.1281696E+03  0.7546771E-02  0.1243930E+00
         -2   -1    0    0    0  501 -0.00000000000E+00  0.00000000000E+00  0.30343148356E+02  0.30343148356E+02  0.00000000000E+00 0.  1.
          2   -1    0    0  501    0  0.00000000000E+00 -0.00000000000E+00 -0.42387182527E+03  0.42387182527E+03  0.00000000000E+00 0. -1.
         23    2    1    2    0    0  0.15272814886E+02  0.22613526356E+02 -0.25204968428E+03  0.28276580034E+03  0.12523108259E+03 0.  0.
          5    1    3    3  502    0  0.30476666825E+02 -0.46980914646E+02 -0.12451368616E+03  0.13660813154E+03  0.47000000000E+01 0.  1.
         -5    1    3    3    0  502 -0.15203851940E+02  0.69594441001E+02 -0.12753599812E+03  0.14615766880E+03  0.47000000000E+01 0.  1.
        -11    1    1    2    0    0  0.20331911311E+02  0.19730349117E+02 -0.95183888043E+02  0.99310854577E+02  0.00000000000E+00 0. -1.
         11    1    1    2    0    0 -0.35604726196E+02 -0.42343875472E+02 -0.46295104595E+02  0.72138318715E+02  0.00000000000E+00 0.  1.
<mgrwt>
<rscale>  0 0.11949662E+03</rscale>
<asrwt>0</asrwt>
<pdfrwt beam="2">  1        2 0.65211046E-01 0.12816963E+03</pdfrwt>
<pdfrwt beam="1">  1       -2 0.46681770E-02 0.12816963E+03</pdfrwt>
<totfact> 0.15279209E+04</totfact>
</mgrwt>
</event>
<event>
 7    1  0.8712071E-006  0.1334351E+03  0.7546771E-02  0.1235217E+00
         -2   -1    0    0    0  501 -0.00000000000E+00  0.00000000000E+00  0.55088755562E+03  0.55088755562E+03  0.00000000000E+00 0.  1.
          2   -1    0    0  501    0  0.00000000000E+00 -0.00000000000E+00 -0.30827298153E+02  0.30827298153E+02  0.00000000000E+00 0. -1.
         23    2    1    2    0    0  0.36115602116E+02  0.29675250834E+02  0.41083085031E+03  0.43195707617E+03  0.12497988182E+03 0.  0.
          5    1    3    3  502    0  0.20695220307E+02  0.73546853810E+02  0.16728535343E+03  0.18396714739E+03  0.47000000000E+01 0. -1.
         -5    1    3    3    0  502  0.15420381809E+02 -0.43871602975E+02  0.24354549689E+03  0.24798992878E+03  0.47000000000E+01 0. -1.
        -11    1    1    2    0    0 -0.37393064001E+02 -0.45048885437E+02  0.11820552217E+03  0.13190977517E+03  0.00000000000E+00 0.  1.
         11    1    1    2    0    0  0.12774618848E+01  0.15373634602E+02 -0.89761150182E+01  0.17848002425E+02  0.00000000000E+00 0. -1.
<mgrwt>
<rscale>  0 0.12490570E+03</rscale>
<asrwt>0</asrwt>
<pdfrwt beam="2">  1        2 0.47426616E-02 0.13343511E+03</pdfrwt>
<pdfrwt beam="1">  1       -2 0.84751925E-01 0.13343511E+03</pdfrwt>
<totfact> 0.20271541E+03</totfact>
</mgrwt>
</event>
<event>
 7    1  0.8712071E-006  0.1389161E+03  0.7546771E-02  0.1225689E+00
         -2   -1    0    0    0  501 -0.00000000000E+00  0.00000000000E+00  0.62546576627E+03  0.62546576627E+03  0.00000000000E+00 0.  1.
          2   -1    0    0  501    0  0.00000000000E+00 -0.00000000000E+00 -0.25212275670E+02  0.25212275670E+02  0.00000000000E+00 0. -1.
         23    2    1    2    0    0  0.35868266186E+02  0.48853120201E+02  0.37152017634E+03  0.39664204711E+03  0.12499804892E+03 0.  0.
          5    1    3    3  502    0  0.21976203876E+02  0.51225756628E+02  0.50754080069E+02  0.75532101272E+02  0.47000000000E+01 0. -1.
         -5    1    3    3    0  502  0.13892062310E+02 -0.23726364269E+01  0.32076609627E+03  0.32110994584E+03  0.47000000000E+01 0. -1.
        -11    1    1    2    0    0  0.31389781760E+02 -0.20730180160E+02  0.78993108860E+02  0.87492685499E+02  0.00000000000E+00 0.  1.
         11    1    1    2    0    0 -0.67258047946E+02 -0.28122940041E+02  0.14974020540E+03  0.16654330934E+03  0.00000000000E+00 0. -1.
<mgrwt>
<rscale>  0 0.13119812E+03</rscale>
<asrwt>0</asrwt>
<pdfrwt beam="2">  1        2 0.38788121E-02 0.13891606E+03</pdfrwt>
<pdfrwt beam="1">  1       -2 0.96225491E-01 0.13891606E+03</pdfrwt>
<totfact> 0.19918871E+03</totfact>
</mgrwt>
</event>
<event>
 7    1  0.8712071E-006  0.1292022E+03  0.7546771E-02  0.1242370E+00
         -2   -1    0    0    0  501 -0.00000000000E+00  0.00000000000E+00  0.40577982180E+02  0.40577982180E+02  0.00000000000E+00 0.  1.
          2   -1    0    0  501    0  0.00000000000E+00 -0.00000000000E+00 -0.33661600592E+03  0.33661600592E+03  0.00000000000E+00 0. -1.
         23    2    1    2    0    0 -0.31065051333E+02  0.10593484634E+02 -0.12214305632E+03  0.17779802755E+03  0.12496380701E+03 0.  0.
          5    1    3    3  502    0 -0.25045979470E+02  0.32611553294E+02  0.10844099605E+02  0.42784331152E+02  0.47000000000E+01 0.  1.
         -5    1    3    3    0  502 -0.60190718628E+01 -0.22018068660E+02 -0.13298715593E+03  0.13501369640E+03  0.47000000000E+01 0.  1.
        -11    1    1    2    0    0  0.22986533983E+02 -0.44338367531E+02 -0.49751645151E+02  0.70494664869E+02  0.00000000000E+00 0.  1.
         11    1    1    2    0    0  0.80785173501E+01  0.33744882896E+02 -0.12414332226E+03  0.12890129568E+03  0.00000000000E+00 0. -1.
<mgrwt>
<rscale>  0 0.12044202E+03</rscale>
<asrwt>0</asrwt>
<pdfrwt beam="2">  1        2 0.51787081E-01 0.12920222E+03</pdfrwt>
<pdfrwt beam="1">  1       -2 0.62427661E-02 0.12920222E+03</pdfrwt>
<totfact> 0.12614192E+04</totfact>
</mgrwt>
</event>
<event>
 7    1  0.8712071E-006  0.1458178E+03  0.7546771E-02  0.1215414E+00
          1   -1    0    0  501    0  0.00000000000E+00  0.00000000000E+00  0.76481578075E+02  0.76481578075E+02  0.00000000000E+00 0. -1.
         -1   -1    0    0    0  501 -0.00000000000E+00 -0.00000000000E+00 -0.22907284778E+03  0.22907284778E+03  0.00000000000E+00 0.  1.
         23    2    1    2    0    0  0.30451151677E+01 -0.74982144191E+02 -0.92079242037E+02  0.17245697971E+03  0.12502491097E+03 0.  0.
          5    1    3    3  502    0  0.36824551501E+02  0.13617843100E+02 -0.60746949742E+02  0.72482930038E+02  0.47000000000E+01 0.  1.
         -5    1    3    3    0  502 -0.33779436333E+02 -0.88599987291E+02 -0.31332292295E+02  0.99974049670E+02  0.47000000000E+01 0.  1.
        -11    1    1    2    0    0  0.14842297858E+02  0.34497610633E+02  0.19006818564E+02  0.42090831508E+02  0.00000000000E+00 0. -1.
         11    1    1    2    0    0 -0.17887413026E+02  0.40484533558E+02 -0.79518846236E+02  0.91006614644E+02  0.00000000000E+00 0.  1.
<mgrwt>
<rscale>  0 0.13846176E+03</rscale>
<asrwt>0</asrwt>
<pdfrwt beam="1">  1        1 0.11766397E-01 0.14581777E+03</pdfrwt>
<pdfrwt beam="2">  1       -1 0.35241976E-01 0.14581777E+03</pdfrwt>
<totfact> 0.38353023E+03</totfact>
</mgrwt>
</event>
<event>
 7    1  0.8712071E-006  0.1846700E+03  0.7546771E-02  0.1168579E+00
         -1   -1    0    0    0  501 -0.00000000000E+00  0.00000000000E+00  0.82142227872E+02  0.82142227872E+02  0.00000000000E+00 0.  1.
          1   -1    0    0  501    0  0.00000000000E+00 -0.00000000000E+00 -0.39064977101E+03  0.39064977101E+03  0.00000000000E+00 0. -1.
         23    2    1    2    0    0 -0.18225339341E+02  0.13471984169E+03 -0.10805507506E+03  0.21396008964E+03  0.12498568707E+03 0.  0.
          5    1    3    3  502    0  0.44222661766E+02  0.10729433711E+02 -0.25629300785E+02  0.52437730883E+02  0.47000000000E+01 0.  1.
         -5    1    3    3    0  502 -0.62448001107E+02  0.12399040798E+03 -0.82425774277E+02  0.16152235876E+03  0.47000000000E+01 0.  1.
        -11    1    1    2    0    0  0.10353088269E+02 -0.57775049531E+02 -0.19183128246E+02  0.61750588615E+02  0.00000000000E+00 0.  1.
         11    1    1    2    0    0  0.78722510720E+01 -0.76944792159E+02 -0.18126933983E+03  0.19708132063E+03  0.00000000000E+00 0. -1.
<mgrwt>
<rscale>  0 0.17920083E+03</rscale>
<asrwt>0</asrwt>
<pdfrwt beam="2">  1        1 0.60099966E-01 0.18467003E+03</pdfrwt>
<pdfrwt beam="1">  1       -1 0.12637266E-01 0.18467003E+03</pdfrwt>
<totfact> 0.25986991E+03</totfact>
</mgrwt>
</event>
<event>
 7    1  0.8712071E-006  0.1305900E+03  0.7546771E-02  0.1239328E+00
          2   -1    0    0  501    0  0.00000000000E+00  0.00000000000E+00  0.26123142060E+02  0.26123142060E+02  0.00000000000E+00 0. -1.
         -2   -1    0    0    0  501 -0.00000000000E+00 -0.00000000000E+00 -0.51124327033E+03  0.51124327033E+03  0.00000000000E+00 0.  1.
         23    2    1    2    0    0 -0.26125210022E+02  0.27282797649E+02 -0.26924643637E+03  0.29924469122E+03  0.12500745610E+03 0.  0.
          5    1    3    3  502    0 -0.17915567853E+02 -0.88710804324E+01 -0.25991662677E+03  0.26072668930E+03  0.47000000000E+01 0. -1.
         -5    1    3    3    0  502 -0.82096421689E+01  0.36153878082E+02 -0.93298095947E+01  0.38518001921E+02  0.47000000000E+01 0. -1.
        -11    1    1    2    0    0  0.36514198161E+02 -0.23266727526E+02 -0.22146585653E+03  0.22565848729E+03  0.00000000000E+00 0.  1.
         11    1    1    2    0    0 -0.10388988140E+02 -0.40160701229E+01  0.55921646209E+01  0.12463233888E+02  0.00000000000E+00 0. -1.
<mgrwt>
<rscale>  0 0.12231374E+03</rscale>
<asrwt>0</asrwt>
<pdfrwt beam="1">  1        2 0.40189452E-02 0.13058998E+03</pdfrwt>
<pdfrwt beam="2">  1       -2 0.78652805E-01 0.13058998E+03</pdfrwt>
<totfact> 0.29656667E+03</totfact>
</mgrwt>
</event>
<event>
 7    1  0.8712071E-006  0.1317265E+03  0.7546771E-02  0.1237112E+00
         -2   -1    0    0    0  501 -0.00000000000E+00  0.00000000000E+00  0.47870018383E+02  0.47870018383E+02  0.00000000000E+00 0.  1.
          2   -1    0    0  501    0  0.00000000000E+00 -0.00000000000E+00 -0.44375417248E+03  0.44375417248E+03  0.00000000000E+00 0. -1.
         23    2    1    2    0    0  0.38335030836E+02 -0.16017498084E+02 -0.68270511725E+02  0.14836691982E+03  0.12500298113E+03 0.  0.
          5    1    3    3  502    0 -0.23478239525E+02 -0.46145213666E+02 -0.91477811499E+00  0.51995531486E+02  0.47000000000E+01 0. -1.
         -5    1    3    3    0  502  0.61813270361E+02  0.30127715583E+02 -0.67355733610E+02  0.96371388333E+02  0.47000000000E+01 0. -1.
        -11    1    1    2    0    0 -0.42398520507E+02  0.49332812120E+02 -0.16801110277E+03  0.18016406841E+03  0.00000000000E+00 0. -1.
         11    1    1    2    0    0  0.40634896713E+01 -0.33315314036E+02 -0.15960253960E+03  0.16309320263E+03  0.00000000000E+00 0.  1.
<mgrwt>
<rscale>  0 0.12370208E+03</rscale>
<asrwt>0</asrwt>
<pdfrwt beam="2">  1        2 0.68269873E-01 0.13172654E+03</pdfrwt>
<pdfrwt beam="1">  1       -2 0.73646182E-02 0.13172654E+03</pdfrwt>
<totfact> 0.73108446E+03</totfact>
</mgrwt>
</event>
<event>
 7    1  0.8712071E-006  0.1294200E+03  0.7546771E-02  0.1242499E+00
         -2   -1    0    0    0  501 -0.00000000000E+00  0.00000000000E+00  0.23468276518E+02  0.23468276518E+02  0.00000000000E+00 0.  1.
          2   -1    0    0  501    0  0.00000000000E+00 -0.00000000000E+00 -0.55670602289E+03  0.55670602289E+03  0.00000000000E+00 0. -1.
         23    2    1    2    0    0 -0.27901614471E+02 -0.18622464981E+02 -0.26307542375E+03  0.29318629723E+03  0.12499692001E+03 0.  0.
          5    1    3    3  502    0  0.29043863409E+02 -0.13615287085E+02 -0.21756309552E+03  0.21996525311E+03  0.47000000000E+01 0.  1.
         -5    1    3    3    0  502 -0.56945477880E+02 -0.50071778968E+01 -0.45512328232E+02  0.73221044124E+02  0.47000000000E+01 0.  1.
        -11    1    1    2    0    0  0.12993408007E+02 -0.23734972752E+02 -0.22222105314E+02  0.35014276342E+02  0.00000000000E+00 0.  1.
         11    1    1    2    0    0  0.14908206464E+02  0.42357437733E+02 -0.24794021730E+03  0.25197372583E+03  0.00000000000E+00 0. -1.
<mgrwt>
<rscale>  0 0.12036330E+03</rscale>
<asrwt>0</asrwt>
<pdfrwt beam="2">  1        2 0.85647076E-01 0.12941996E+03</pdfrwt>
<pdfrwt beam="1">  1       -2 0.36105043E-02 0.12941996E+03</pdfrwt>
<totfact> 0.16631721E+04</totfact>
</mgrwt>
</event>
<event>
 7    1  0.8712071E-006  0.1612160E+03  0.7546771E-02  0.1194573E+00
          2   -1    0    0  501    0  0.00000000000E+00  0.00000000000E+00  0.52333185982E+03  0.52333185982E+03  0.00000000000E+00 0. -1.
         -2   -1    0    0    0  501 -0.00000000000E+00 -0.00000000000E+00 -0.43707522840E+02  0.43707522840E+02  0.00000000000E+00 0.  1.
         23    2    1    2    0    0  0.36542616561E+02  0.95021103623E+02  0.21348938148E+03  0.26752255091E+03  0.12500490504E+03 0.  0.
          5    1    3    3  502    0  0.28917218421E+02  0.38724619115E+02  0.20404194366E+03  0.20974033093E+03  0.47000000000E+01 0.  1.
         -5    1    3    3    0  502  0.76253981403E+01  0.56296484508E+02  0.94474378212E+01  0.57782219982E+02  0.47000000000E+01 0.  1.
        -11    1    1    2    0    0 -0.33922151362E+02 -0.64325484233E+02  0.25742823399E+03  0.26750285219E+03  0.00000000000E+00 0. -1.
         11    1    1    2    0    0 -0.26204651987E+01 -0.30695619390E+02  0.87067215096E+01  0.32013979557E+02  0.00000000000E+00 0.  1.
<mgrwt>
<rscale>  0 0.15490434E+03</rscale>
<asrwt>0</asrwt>
<pdfrwt beam="1">  1        2 0.80512590E-01 0.16121600E+03</pdfrwt>
<pdfrwt beam="2">  1       -2 0.67242346E-02 0.16121600E+03</pdfrwt>
<totfact> 0.71009820E+03</totfact>
</mgrwt>
</event>
<event>
 7    1  0.8712071E-006  0.1318242E+03  0.7546771E-02  0.1237861E+00
          1   -1    0    0  501    0  0.00000000000E+00  0.00000000000E+00  0.16096583982E+03  0.16096583982E+03  0.00000000000E+00 0. -1.
         -1   -1    0    0    0  501 -0.00000000000E+00 -0.00000000000E+00 -0.84713465954E+02  0.84713465954E+02  0.00000000000E+00 0.  1.
         23    2    1    2    0    0 -0.41750517478E+02 -0.30100449909E+01  0.31631808993E+02  0.13556622177E+03  0.12500185224E+03 0.  0.
          5    1    3    3  502    0 -0.52451671049E+02 -0.56379248840E+02  0.20196715214E+02  0.79748321619E+02  0.47000000000E+01 0.  1.
         -5    1    3    3    0  502  0.10701153571E+02  0.53369203849E+02  0.11435093779E+02  0.55817900148E+02  0.47000000000E+01 0.  1.
        -11    1    1    2    0    0  0.15534062710E+02  0.46813889959E+02  0.26129998021E+02  0.55817776684E+02  0.00000000000E+00 0.  1.
         11    1    1    2    0    0  0.26216454768E+02 -0.43803844968E+02  0.18490566848E+02  0.54295307320E+02  0.00000000000E+00 0. -1.
<mgrwt>
<rscale>  0 0.12323058E+03</rscale>
<asrwt>0</asrwt>
<pdfrwt beam="1">  1        1 0.24763975E-01 0.13182424E+03</pdfrwt>
<pdfrwt beam="2">  1       -1 0.13032841E-01 0.13182424E+03</pdfrwt>
<totfact> 0.73625810E+03</totfact>
</mgrwt>
</event>
<event>
 7    1  0.8712071E-006  0.1358374E+03  0.7546771E-02  0.1233367E+00
         -1   -1    0    0    0  501 -0.00000000000E+00  0.00000000000E+00  0.35788793951E+03  0.35788793951E+03  0.00000000000E+00 0.  1.
          1   -1    0    0  501    0  0.00000000000E+00 -0.00000000000E+00 -0.39297094132E+02  0.39297094132E+02  0.00000000000E+00 0. -1.
         23    2    1    2    0    0  0.20606878839E+01  0.53123154173E+02  0.19524702545E+03  0.23785124257E+03  0.12500198679E+03 0.  0.
          5    1    3    3  502    0  0.45591670692E+02 -0.36002877966E+01  0.14004318658E+03  0.14739656243E+03  0.47000000000E+01 0.  1.
         -5    1    3    3    0  502 -0.43530982808E+02  0.56723441969E+02  0.55203838868E+02  0.90454680138E+02  0.47000000000E+01 0.  1.
        -11    1    1    2    0    0 -0.39982350921E+02 -0.22555366143E+02  0.32466382125E+02  0.56226318529E+02  0.00000000000E+00 0. -1.
         11    1    1    2    0    0  0.37921663037E+02 -0.30567788029E+02  0.90877437799E+02  0.10310747254E+03  0.00000000000E+00 0.  1.
<mgrwt>
<rscale>  0 0.12609526E+03</rscale>
<asrwt>0</asrwt>
<pdfrwt beam="2">  1        1 0.60457070E-02 0.13583745E+03</pdfrwt>
<pdfrwt beam="1">  1       -1 0.55059681E-01 0.13583745E+03</pdfrwt>
<totfact> 0.41960049E+03</totfact>
</mgrwt>
</event>
<event>
 7    1  0.8712071E-006  0.1276605E+03  0.7546771E-02  0.1247784E+00
          2   -1    0    0  501    0  0.00000000000E+00  0.00000000000E+00  0.24664727101E+03  0.24664727101E+03  0.00000000000E+00 0. -1.
         -2   -1    0    0    0  501 -0.00000000000E+00 -0.00000000000E+00 -0.64137621602E+02  0.64137621602E+02  0.00000000000E+00 0.  1.
         23    2    1    2    0    0 -0.20281946660E+02 -0.16655581816E+02  0.26581261168E+02  0.13039850858E+03  0.12493374976E+03 0.  0.
          5    1    3    3  502    0  0.15334856567E+02 -0.29617295638E+02 -0.40824230580E+02  0.52924945246E+02  0.47000000000E+01 0. -1.
         -5    1    3    3    0  502 -0.35616803228E+02  0.12961713822E+02  0.67405491749E+02  0.77473563331E+02  0.47000000000E+01 0. -1.
        -11    1    1    2    0    0 -0.13917240092E+02 -0.13522252094E+02  0.16128322496E+01  0.19471571620E+02  0.00000000000E+00 0.  1.
         11    1    1    2    0    0  0.34199186752E+02  0.30177833910E+02  0.15431555599E+03  0.16091481241E+03  0.00000000000E+00 0. -1.
<mgrwt>
<rscale>  0 0.11720288E+03</rscale>
<asrwt>0</asrwt>
<pdfrwt beam="1">  1        2 0.37945734E-01 0.12766052E+03</pdfrwt>
<pdfrwt beam="2">  1       -2 0.98673265E-02 0.12766052E+03</pdfrwt>
<totfact> 0.86516751E+03</totfact>
</mgrwt>
</event>
<event>
 7    1  0.8712071E-006  0.1179209E+03  0.7546771E-02  0.1331752E+00
         -2   -1    0    0    0  501 -0.00000000000E+00  0.00000000000E+00  0.49838430678E+02  0.49838430678E+02  0.00000000000E+00 0.  1.
          2   -1    0    0  501    0  0.00000000000E+00 -0.00000000000E+00 -0.12047969288E+03  0.12047969288E+03  0.00000000000E+00 0. -1.
         23    2    1    2    0    0 -0.10104319069E+02 -0.20924481699E+02 -0.27573917326E+02  0.12110182828E+03  0.11560882621E+03 0.  0.
          5    1    3    3  502    0  0.93811910646E+01 -0.61634639992E+02 -0.39789796685E+02  0.74109064985E+02  0.47000000000E+01 0. -1.
         -5    1    3    3    0  502 -0.19485510134E+02  0.40710158293E+02  0.12215879359E+02  0.46992763293E+02  0.47000000000E+01 0.  1.
        -11    1    1    2    0    0  0.30858129247E+01  0.11089929272E+02 -0.17628581517E+02  0.21054112637E+02  0.00000000000E+00 0. -1.
         11    1    1    2    0    0  0.70185061445E+01  0.98345524269E+01 -0.25438763362E+02  0.28162182645E+02  0.00000000000E+00 0.  1.
<mgrwt>
<rscale>  0 0.79055797E+02</rscale>
<asrwt>0</asrwt>
<pdfrwt beam="2">  1        2 0.18535337E-01 0.11792087E+03</pdfrwt>
<pdfrwt beam="1">  1       -2 0.76674509E-02 0.11792087E+03</pdfrwt>
<totfact> 0.27828092E+04</totfact>
</mgrwt>
</event>
<event>
 7    1  0.8712071E-006  0.2009038E+03  0.7546771E-02  0.1155511E+00
          1   -1    0    0  501    0  0.00000000000E+00  0.00000000000E+00  0.18469583843E+03  0.18469583843E+03  0.00000000000E+00 0. -1.
         -1   -1    0    0    0  501 -0.00000000000E+00 -0.00000000000E+00 -0.22308820085E+03  0.22308820085E+03  0.00000000000E+00 0.  1.
         23    2    1    2    0    0 -0.14126581182E+03  0.69133241704E+02 -0.10061001365E+03  0.22468806491E+03  0.12500766764E+03 0.  0.
          5    1    3    3  502    0 -0.76051050789E+02 -0.21461644175E+01  0.10979069177E+02  0.77012974931E+02  0.47000000000E+01 0. -1.
         -5    1    3    3    0  502 -0.65214761031E+02  0.71279406122E+02 -0.11158908283E+03  0.14767508998E+03  0.47000000000E+01 0. -1.
        -11    1    1    2    0    0  0.59535519575E+02  0.33757124674E+01  0.39424498098E+02  0.71485415128E+02  0.00000000000E+00 0. -1.
         11    1    1    2    0    0  0.81730292244E+02 -0.72508954172E+02  0.22793153135E+02  0.11161055925E+03  0.00000000000E+00 0.  1.
<mgrwt>
<rscale>  0 0.19330805E+03</rscale>
<asrwt>0</asrwt>
<pdfrwt beam="1">  1        1 0.28414745E-01 0.20090384E+03</pdfrwt>
<pdfrwt beam="2">  1       -1 0.34321261E-01 0.20090384E+03</pdfrwt>
<totfact> 0.13060950E+03</totfact>
</mgrwt>
</event>
<event>
 7    1  0.8712071E-006  0.1375338E+03  0.7546771E-02  0.1227255E+00
         -3   -1    0    0    0  501 -0.00000000000E+00  0.00000000000E+00  0.17831178462E+03  0.17831178462E+03  0.00000000000E+00 0.  1.
          3   -1    0    0  501    0  0.00000000000E+00 -0.00000000000E+00 -0.87973076012E+02  0.87973076012E+02  0.00000000000E+00 0. -1.
         23    2    1    2    0    0 -0.53243408014E+02  0.21233627169E+02  0.69468640863E+02  0.15408257562E+03  0.12501928102E+03 0.  0.
          5    1    3    3  502    0 -0.60914971758E+02 -0.37757528133E+02  0.15177693761E+02  0.73407881749E+02  0.47000000000E+01 0. -1.
         -5    1    3    3    0  502  0.76715637445E+01  0.58991155302E+02  0.54290947102E+02  0.80674693872E+02  0.47000000000E+01 0. -1.
        -11    1    1    2    0    0  0.38205685284E+02  0.19730812472E+02 -0.24304640267E+02  0.49393267632E+02  0.00000000000E+00 0. -1.
         11    1    1    2    0    0  0.15037722730E+02 -0.40964439641E+02  0.45174708007E+02  0.62809017374E+02  0.00000000000E+00 0.  1.
<mgrwt>
<rscale>  0 0.13013559E+03</rscale>
<asrwt>0</asrwt>
<pdfrwt beam="2">  1        3 0.13534319E-01 0.13753381E+03</pdfrwt>
<pdfrwt beam="1">  1       -3 0.27432582E-01 0.13753381E+03</pdfrwt>
<totfact> 0.12940732E+03</totfact>
</mgrwt>
</event>
<event>
 7    1  0.1138604E-005  0.2479600E+03  0.7546771E-02  0.1117176E+00
         -1   -1    0    0    0  501 -0.00000000000E+00  0.00000000000E+00  0.11734639866E+03  0.11734639866E+03  0.00000000000E+00 0.  1.
          1   -1    0    0  501    0  0.00000000000E+00 -0.00000000000E+00 -0.59056244697E+03  0.59056244697E+03  0.00000000000E+00 0. -1.
         23    2    1    2    0    0 -0.19323789629E+03  0.92294892479E+02 -0.98131244767E+02  0.26667189256E+03  0.12499970137E+03 0.  0.
          5    1    3    3  502    0 -0.89498411087E+02  0.51647927140E+02  0.18750824960E+02  0.10512448526E+03  0.47000000000E+01 0.  1.
         -5    1    3    3    0  502 -0.10373948520E+03  0.40646965339E+02 -0.11688206973E+03  0.16154740730E+03  0.47000000000E+01 0.  1.
        -11    1    1    2    0    0  0.12463763408E+03 -0.29407918856E+02 -0.28148285141E+03  0.30924417724E+03  0.00000000000E+00 0. -1.
         11    1    1    2    0    0  0.68600262215E+02 -0.62886973623E+02 -0.93601952135E+02  0.13199277583E+03  0.00000000000E+00 0.  1.
<mgrwt>
<rscale>  0 0.24397025E+03</rscale>
<asrwt>0</asrwt>
<pdfrwt beam="2">  1        1 0.90855760E-01 0.24795999E+03</pdfrwt>
<pdfrwt beam="1">  1       -1 0.18053292E-01 0.24795999E+03</pdfrwt>
<totfact> 0.85960221E+02</totfact>
</mgrwt>
</event>
<event>
 7    1  0.8712071E-006  0.1289922E+03  0.7546771E-02  0.1234995E+00
         -4   -1    0    0    0  501 -0.00000000000E+00  0.00000000000E+00  0.14624007128E+02  0.14624007128E+02  0.00000000000E+00 0.  1.
          4   -1    0    0  501    0  0.00000000000E+00 -0.00000000000E+00 -0.10204549058E+04  0.10204549058E+04  0.00000000000E+00 0. -1.
         23    2    1    2    0    0 -0.18235300718E+02 -0.26090480001E+02 -0.47842582485E+03  0.49551009754E+03  0.12500299014E+03 0.  0.
          5    1    3    3  502    0 -0.61693807186E+02 -0.14858622487E+02 -0.13631625384E+03  0.15043641703E+03  0.47000000000E+01 0.  1.
         -5    1    3    3    0  502  0.43458506468E+02 -0.11231857514E+02 -0.34210957101E+03  0.34507368051E+03  0.47000000000E+01 0.  1.
        -11    1    1    2    0    0  0.51689660537E+02 -0.20956361702E+02 -0.23611809440E+03  0.24261645576E+03  0.00000000000E+00 0.  1.
         11    1    1    2    0    0 -0.33454359819E+02  0.47046841704E+02 -0.29128697938E+03  0.29695235958E+03  0.00000000000E+00 0. -1.
<mgrwt>
<rscale>  0 0.12504755E+03</rscale>
<asrwt>0</asrwt>
<pdfrwt beam="2">  1        4 0.15699306E+00 0.12899220E+03</pdfrwt>
<pdfrwt beam="1">  1       -4 0.22498472E-02 0.12899220E+03</pdfrwt>
<totfact> 0.39585552E+02</totfact>
</mgrwt>
</event>
<event>
 7    1  0.8712071E-006  0.2776059E+03  0.7546771E-02  0.1099089E+00
          2   -1    0    0  501    0  0.00000000000E+00  0.00000000000E+00  0.24519533392E+03  0.24519533392E+03  0.00000000000E+00 0. -1.
         -2   -1    0    0    0  501 -0.00000000000E+00 -0.00000000000E+00 -0.33181721892E+03  0.33181721892E+03  0.00000000000E+00 0.  1.
         23    2    1    2    0    0 -0.16897679842E+03 -0.18134546639E+03 -0.13656601507E+03  0.30937887040E+03  0.12500268953E+03 0.  0.
          5    1    3    3  502    0 -0.15499188389E+03 -0.80976392101E+02 -0.10027509863E+03  0.20163542733E+03  0.47000000000E+01 0.  1.
         -5    1    3    3    0  502 -0.13984914538E+02 -0.10036907429E+03 -0.36290916445E+02  0.10774344307E+03  0.47000000000E+01 0.  1.
        -11    1    1    2    0    0  0.21251155987E+02  0.51292465873E+02  0.43806792001E+02  0.70721734365E+02  0.00000000000E+00 0. -1.
         11    1    1    2    0    0  0.14772564244E+03  0.13005300052E+03  0.61373380801E+01  0.19691194808E+03  0.00000000000E+00 0.  1.
<mgrwt>
<rscale>  0 0.27386241E+03</rscale>
<asrwt>0</asrwt>
<pdfrwt beam="1">  1        2 0.37722359E-01 0.27760585E+03</pdfrwt>
<pdfrwt beam="2">  1       -2 0.51048803E-01 0.27760585E+03</pdfrwt>
<totfact> 0.50385084E+02</totfact>
</mgrwt>
</event>
<event>
 7    1  0.8712071E-006  0.1351312E+03  0.7546771E-02  0.1232377E+00
          2   -1    0    0  501    0  0.00000000000E+00  0.00000000000E+00  0.22798162335E+02  0.22798162335E+02  0.00000000000E+00 0. -1.
         -2   -1    0    0    0  501 -0.00000000000E+00 -0.00000000000E+00 -0.66106737542E+03  0.66106737542E+03  0.00000000000E+00 0.  1.
         23    2    1    2    0    0 -0.23233015480E+02  0.45772927523E+02 -0.28438555360E+03  0.31485804867E+03  0.12500205525E+03 0.  0.
          5    1    3    3  502    0 -0.67402723350E+02  0.54801915589E+02 -0.15476438681E+03  0.17754008700E+03  0.47000000000E+01 0.  1.
         -5    1    3    3    0  502  0.44169707870E+02 -0.90289880656E+01 -0.12962116678E+03  0.13731796167E+03  0.47000000000E+01 0.  1.
        -11    1    1    2    0    0  0.43656935133E+02  0.18087570838E+01 -0.23945128642E+03  0.24340525498E+03  0.00000000000E+00 0.  1.
         11    1    1    2    0    0 -0.20423919654E+02 -0.47581684607E+02 -0.11443237307E+03  0.12560223410E+03  0.00000000000E+00 0. -1.
<mgrwt>
<rscale>  0 0.12673852E+03</rscale>
<asrwt>0</asrwt>
<pdfrwt beam="1">  1        2 0.35074098E-02 0.13513122E+03</pdfrwt>
<pdfrwt beam="2">  1       -2 0.10170267E+00 0.13513122E+03</pdfrwt>
<totfact> 0.20018055E+03</totfact>
</mgrwt>
</event>
<event>
 7    1  0.8712071E-006  0.1817291E+03  0.7546771E-02  0.1172691E+00
         -1   -1    0    0    0  501 -0.00000000000E+00  0.00000000000E+00  0.13200781566E+03  0.13200781566E+03  0.00000000000E+00 0.  1.
          1   -1    0    0  501    0  0.00000000000E+00 -0.00000000000E+00 -0.22136190614E+03  0.22136190614E+03  0.00000000000E+00 0. -1.
         23    2    1    2    0    0  0.12647467904E+03  0.37495306388E+02 -0.21957999002E+02  0.18305090852E+03  0.12499495570E+03 0.  0.
          5    1    3    3  502    0  0.10286000551E+03  0.10094061428E+02  0.40186765952E+02  0.11099160764E+03  0.47000000000E+01 0. -1.
         -5    1    3    3    0  502  0.23614673529E+02  0.27401244960E+02 -0.62144764954E+02  0.72059300874E+02  0.47000000000E+01 0. -1.
        -11    1    1    2    0    0 -0.42502576231E+02 -0.45606893871E+02 -0.58495003408E+02  0.85487561542E+02  0.00000000000E+00 0. -1.
         11    1    1    2    0    0 -0.83972102808E+02  0.81115874830E+01 -0.89010880689E+01  0.84831251731E+02  0.00000000000E+00 0.  1.
<mgrwt>
<rscale>  0 0.17504084E+03</rscale>
<asrwt>0</asrwt>
<pdfrwt beam="2">  1        1 0.34055677E-01 0.18172914E+03</pdfrwt>
<pdfrwt beam="1">  1       -1 0.20308895E-01 0.18172914E+03</pdfrwt>
<totfact> 0.24913791E+03</totfact>
</mgrwt>
</event>
<event>
 7    1  0.8712071E-006  0.1455901E+03  0.7546771E-02  0.1216529E+00
          1   -1    0    0  501    0  0.00000000000E+00  0.00000000000E+00  0.10733427564E+04  0.10733427564E+04  0.00000000000E+00 0. -1.
         -1   -1    0    0    0  501 -0.00000000000E+00 -0.00000000000E+00 -0.16304591309E+02  0.16304591309E+02  0.00000000000E+00 0.  1.
         23    2    1    2    0    0  0.73821556460E+02 -0.11013210942E+02  0.50978897649E+03  0.53017098156E+03  0.12500222448E+03 0.  0.
          5    1    3    3  502    0 -0.17828297856E+02 -0.66547823729E+01  0.99948632513E+01  0.22002764015E+02  0.47000000000E+01 0. -1.
         -5    1    3    3    0  502  0.91649854316E+02 -0.43584285688E+01  0.49979411324E+03  0.50816821755E+03  0.47000000000E+01 0. -1.
        -11    1    1    2    0    0 -0.86630369144E+02 -0.11071234329E+02  0.47206534609E+03  0.48007612320E+03  0.00000000000E+00 0. -1.
         11    1    1    2    0    0  0.12808812684E+02  0.22084445270E+02  0.75183842491E+02  0.79400242928E+02  0.00000000000E+00 0.  1.
<mgrwt>
<rscale>  0 0.13764790E+03</rscale>
<asrwt>0</asrwt>
<pdfrwt beam="1">  1        1 0.16512960E+00 0.14559007E+03</pdfrwt>
<pdfrwt beam="2">  1       -1 0.25083995E-02 0.14559007E+03</pdfrwt>
<totfact> 0.67631955E+03</totfact>
</mgrwt>
</event>
<event>
 7    1  0.8712071E-006  0.1421730E+03  0.7546771E-02  0.1220913E+00
         -2   -1    0    0    0  501 -0.00000000000E+00  0.00000000000E+00  0.10740638921E+03  0.10740638921E+03  0.00000000000E+00 0.  1.
          2   -1    0    0  501    0  0.00000000000E+00 -0.00000000000E+00 -0.16433782193E+03  0.16433782193E+03  0.00000000000E+00 0. -1.
         23    2    1    2    0    0 -0.61547194645E+02  0.28298207219E+02  0.46574270468E+01  0.14224926731E+03  0.12499726686E+03 0.  0.
          5    1    3    3  502    0  0.28485632195E+02 -0.22073365540E+02 -0.10597360992E+02  0.37855762677E+02  0.47000000000E+01 0. -1.
         -5    1    3    3    0  502 -0.90032826841E+02  0.50371572759E+02  0.15254788039E+02  0.10439350463E+03  0.47000000000E+01 0. -1.
        -11    1    1    2    0    0  0.19804496816E+02  0.32672483649E+02 -0.10371333126E+02  0.39588809439E+02  0.00000000000E+00 0. -1.
         11    1    1    2    0    0  0.41742697829E+02 -0.60970690868E+02 -0.51217526644E+02  0.89906134399E+02  0.00000000000E+00 0.  1.
<mgrwt>
<rscale>  0 0.13450995E+03</rscale>
<asrwt>0</asrwt>
<pdfrwt beam="2">  1        2 0.25282742E-01 0.14217300E+03</pdfrwt>
<pdfrwt beam="1">  1       -2 0.16524060E-01 0.14217300E+03</pdfrwt>
<totfact> 0.59028574E+03</totfact>
</mgrwt>
</event>
<event>
 7    1  0.8712071E-006  0.1517900E+03  0.7546771E-02  0.1207545E+00
         -1   -1    0    0    0  501 -0.00000000000E+00  0.00000000000E+00  0.29295160351E+02  0.29295160351E+02  0.00000000000E+00 0.  1.
          1   -1    0    0  501    0  0.00000000000E+00 -0.00000000000E+00 -0.66771789668E+03  0.66771789668E+03  0.00000000000E+00 0. -1.
         23    2    1    2    0    0  0.84265229917E+02  0.17707013684E+02 -0.40610234331E+03  0.43354275823E+03  0.12500417058E+03 0.  0.
          5    1    3    3  502    0  0.93313382959E+02  0.41684063335E+02 -0.18927779009E+03  0.21515836121E+03  0.47000000000E+01 0.  1.
         -5    1    3    3    0  502 -0.90481530420E+01 -0.23977049651E+02 -0.21682455322E+03  0.21838439702E+03  0.47000000000E+01 0.  1.
        -11    1    1    2    0    0 -0.46679315912E+02 -0.25023714812E+02 -0.21502902878E+03  0.22145570224E+03  0.00000000000E+00 0. -1.
         11    1    1    2    0    0 -0.37585914005E+02  0.73167011277E+01 -0.17291364237E+02  0.42014596561E+02  0.00000000000E+00 0.  1.
<mgrwt>
<rscale>  0 0.14438657E+03</rscale>
<asrwt>0</asrwt>
<pdfrwt beam="2">  1        1 0.10272582E+00 0.15179002E+03</pdfrwt>
<pdfrwt beam="1">  1       -1 0.45069480E-02 0.15179002E+03</pdfrwt>
<totfact> 0.60330591E+03</totfact>
</mgrwt>
</event>
<event>
 6    1  0.8712071E-006  0.1721300E+03  0.7546771E-02  0.1188393E+00
          2   -1    0    0  501    0  0.00000000000E+00  0.00000000000E+00  0.13256743301E+03  0.13256743301E+03  0.00000000000E+00 0. -1.
         -2   -1    0    0    0  501 -0.00000000000E+00 -0.00000000000E+00 -0.17142670991E+03  0.17142670991E+03  0.00000000000E+00 0.  1.
          5    1    1    2  502    0 -0.28202046378E+02 -0.52245794929E+02  0.33374858425E+02  0.68271148244E+02  0.47000000000E+01 0. -1.
         -5    1    1    2    0  502 -0.55188360863E+02  0.70375787624E+02 -0.55285701667E+02  0.10524782880E+03  0.47000000000E+01 0.  1.
        -11    1    1    2    0    0  0.76465026334E+02 -0.52749699893E+02 -0.43757222688E+01  0.92997731351E+02  0.00000000000E+00 0. -1.
         11    1    1    2    0    0  0.69253809073E+01  0.34619707198E+02 -0.12572711387E+02  0.37477434528E+02  0.00000000000E+00 0.  1.
<mgrwt>
<rscale>  0 0.16026941E+03</rscale>
<asrwt>0</asrwt>
<pdfrwt beam="1">  1        2 0.20394990E-01 0.17213004E+03</pdfrwt>
<pdfrwt beam="2">  1       -2 0.26373340E-01 0.17213004E+03</pdfrwt>
<totfact> 0.34146379E+03</totfact>
</mgrwt>
</event>
<event>
 7    1  0.8712071E-006  0.3227849E+03  0.7546771E-02  0.1075572E+00
          2   -1    0    0  501    0  0.00000000000E+00  0.00000000000E+00  0.16775508928E+04  0.16775508928E+04  0.00000000000E+00 0. -1.
         -2   -1    0    0    0  501 -0.00000000000E+00 -0.00000000000E+00 -0.84381581115E+02  0.84381581115E+02  0.00000000000E+00 0.  1.
         23    2    1    2    0    0 -0.28105079572E+03  0.97855045851E+02  0.33362765071E+03  0.46421706946E+03  0.12499967394E+03 0.  0.
          5    1    3    3  502    0 -0.21500492768E+02 -0.26365266185E+02  0.45278281791E+02  0.56829668768E+02  0.47000000000E+01 0.  1.
         -5    1    3    3    0  502 -0.25955030296E+03  0.12422031204E+03  0.28834936892E+03  0.40738740069E+03  0.47000000000E+01 0.  1.
        -11    1    1    2    0    0  0.37290905499E+02  0.16147173400E+02  0.23136337817E+03  0.23490499271E+03  0.00000000000E+00 0.  1.
         11    1    1    2    0    0  0.24375989023E+03 -0.11400221925E+03  0.10281782828E+04  0.10628104117E+04  0.00000000000E+00 0. -1.
<mgrwt>
<rscale>  0 0.32016753E+03</rscale>
<asrwt>0</asrwt>
<pdfrwt beam="1">  1        2 0.25808473E+00 0.32278488E+03</pdfrwt>
<pdfrwt beam="2">  1       -2 0.12981783E-01 0.32278488E+03</pdfrwt>
<totfact> 0.47547428E+02</totfact>
</mgrwt>
</event>
<event>
 7    1  0.8712071E-006  0.1466449E+03  0.7546771E-02  0.1214738E+00
         -3   -1    0    0    0  501 -0.00000000000E+00  0.00000000000E+00  0.27923895900E+02  0.27923895900E+02  0.00000000000E+00 0.  1.
          3   -1    0    0  501    0  0.00000000000E+00 -0.00000000000E+00 -0.65670265425E+03  0.65670265425E+03  0.00000000000E+00 0. -1.
         23    2    1    2    0    0 -0.66579768214E+02  0.38230777252E+02 -0.27564038179E+03  0.31222160960E+03  0.12494100834E+03 0.  0.
          5    1    3    3  502    0 -0.19080833928E+01  0.20874903662E+02  0.63108906695E+01  0.22390170303E+02  0.47000000000E+01 0. -1.
         -5    1    3    3    0  502 -0.64671684821E+02  0.17355873590E+02 -0.28195127246E+03  0.28983143930E+03  0.47000000000E+01 0. -1.
        -11    1    1    2    0    0  0.85824791022E+02 -0.20864154909E+02 -0.22590639166E+03  0.24255907632E+03  0.00000000000E+00 0.  1.
         11    1    1    2    0    0 -0.19245022808E+02 -0.17366622342E+02 -0.12723198490E+03  0.12984586423E+03  0.00000000000E+00 0. -1.
<mgrwt>
<rscale>  0 0.13895801E+03</rscale>
<asrwt>0</asrwt>
<pdfrwt beam="2">  1        3 0.10103117E+00 0.14664485E+03</pdfrwt>
<pdfrwt beam="1">  1       -3 0.42959843E-02 0.14664485E+03</pdfrwt>
<totfact> 0.60221878E+02</totfact>
</mgrwt>
</event>
<event>
 7    1  0.8712071E-006  0.1300517E+03  0.7546771E-02  0.1241415E+00
         -3   -1    0    0    0  501 -0.00000000000E+00  0.00000000000E+00  0.29398218037E+03  0.29398218037E+03  0.00000000000E+00 0.  1.
          3   -1    0    0  501    0  0.00000000000E+00 -0.00000000000E+00 -0.45295628117E+02  0.45295628117E+02  0.00000000000E+00 0. -1.
         23    2    1    2    0    0  0.18589543346E+02  0.30674439458E+02  0.16950683243E+03  0.21364924633E+03  0.12500776719E+03 0.  0.
          5    1    3    3  502    0  0.50450277202E+02 -0.16027691840E+02  0.13990968538E+03  0.14966271225E+03  0.47000000000E+01 0. -1.
         -5    1    3    3    0  502 -0.31860733856E+02  0.46702131297E+02  0.29597147051E+02  0.63986534077E+02  0.47000000000E+01 0. -1.
        -11    1    1    2    0    0 -0.43077899784E+02  0.95638579867E+01  0.60665589588E+02  0.75016575431E+02  0.00000000000E+00 0.  1.
         11    1    1    2    0    0  0.24488356438E+02 -0.40238297444E+02  0.18514130238E+02  0.50611986730E+02  0.00000000000E+00 0. -1.
<mgrwt>
<rscale>  0 0.12102559E+03</rscale>
<asrwt>0</asrwt>
<pdfrwt beam="2">  1        3 0.69685583E-02 0.13005166E+03</pdfrwt>
<pdfrwt beam="1">  1       -3 0.45228027E-01 0.13005166E+03</pdfrwt>
<totfact> 0.14885996E+03</totfact>
</mgrwt>
</event>
<event>
 7    1  0.8712071E-006  0.1469377E+03  0.7546771E-02  0.1215726E+00
         -1   -1    0    0    0  501 -0.00000000000E+00  0.00000000000E+00  0.90360039643E+02  0.90360039643E+02  0.00000000000E+00 0.  1.
          1   -1    0    0  501    0  0.00000000000E+00 -0.00000000000E+00 -0.20095258232E+03  0.20095258232E+03  0.00000000000E+00 0. -1.
         23    2    1    2    0    0  0.22422353383E+02  0.73925713184E+02 -0.27828201803E+02  0.14954962959E+03  0.12499163929E+03 0.  0.
          5    1    3    3  502    0  0.41041291945E+02 -0.18822544871E+01 -0.53157207975E+02  0.67347674690E+02  0.47000000000E+01 0.  1.
         -5    1    3    3    0  502 -0.18618938562E+02  0.75807967671E+02  0.25329006172E+02  0.82201954899E+02  0.47000000000E+01 0.  1.
        -11    1    1    2    0    0 -0.16299267455E+02 -0.34460214653E+02 -0.93021265212E+02  0.10052924100E+03  0.00000000000E+00 0. -1.
         11    1    1    2    0    0 -0.61230859287E+01 -0.39465498531E+02  0.10256924342E+02  0.41233751376E+02  0.00000000000E+00 0.  1.
<mgrwt>
<rscale>  0 0.13823366E+03</rscale>
<asrwt>0</asrwt>
<pdfrwt beam="2">  1        1 0.30915781E-01 0.14693768E+03</pdfrwt>
<pdfrwt beam="1">  1       -1 0.13901545E-01 0.14693768E+03</pdfrwt>
<totfact> 0.50824310E+03</totfact>
</mgrwt>
</event>
<event>
 7    1  0.8712071E-006  0.2399187E+03  0.7546771E-02  0.1122643E+00
          1   -1    0    0  501    0  0.00000000000E+00  0.00000000000E+00  0.17902878226E+03  0.17902878226E+03  0.00000000000E+00 0. -1.
         -1   -1    0    0    0  501 -0.00000000000E+00 -0.00000000000E+00 -0.35523849065E+03  0.35523849065E+03  0.00000000000E+00 0.  1.
         23    2    1    2    0    0  0.31728472044E+02  0.20230408014E+03  0.14379931368E+02  0.24034922763E+03  0.12500932771E+03 0.  0.
          5    1    3    3  502    0  0.36288946985E+02  0.20686425475E+03  0.39706436759E+02  0.21379522606E+03  0.47000000000E+01 0. -1.
         -5    1    3    3    0  502 -0.45604749415E+01 -0.45601746033E+01 -0.25326505391E+02  0.26554001571E+02  0.47000000000E+01 0. -1.
        -11    1    1    2    0    0  0.92089982438E+01 -0.92318821228E+02 -0.35287997193E+02  0.99261337627E+02  0.00000000000E+00 0. -1.
         11    1    1    2    0    0 -0.40937470288E+02 -0.10998525892E+03 -0.15530164257E+03  0.19465670766E+03  0.00000000000E+00 0.  1.
<mgrwt>
<rscale>  0 0.23576975E+03</rscale>
<asrwt>0</asrwt>
<pdfrwt beam="1">  1        1 0.27542889E-01 0.23991867E+03</pdfrwt>
<pdfrwt beam="2">  1       -1 0.54652076E-01 0.23991867E+03</pdfrwt>
<totfact> 0.58901108E+02</totfact>
</mgrwt>
</event>
<event>
 6    1  0.8712071E-006  0.1425550E+03  0.7546771E-02  0.1244329E+00
          2   -1    0    0  501    0  0.00000000000E+00  0.00000000000E+00  0.46922143321E+03  0.46922143321E+03  0.00000000000E+00 0. -1.
         -2   -1    0    0    0  501 -0.00000000000E+00 -0.00000000000E+00 -0.33091667309E+02  0.33091667309E+02  0.00000000000E+00 0.  1.
          5    1    1    2  502    0 -0.42251944028E+02  0.25952184094E+02  0.16061343826E+01  0.49833846942E+02  0.47000000000E+01 0. -1.
         -5    1    1    2    0  502  0.52699926351E+02  0.96973060488E+01  0.14499195050E+03  0.15464823210E+03  0.47000000000E+01 0.  1.
        -11    1    1    2    0    0 -0.14408882771E+01 -0.45870804660E+02  0.27084323658E+03  0.27470396007E+03  0.00000000000E+00 0. -1.
         11    1    1    2    0    0 -0.90070940449E+01  0.10221314517E+02  0.18688444437E+02  0.23127061402E+02  0.00000000000E+00 0.  1.
<mgrwt>
<rscale>  0 0.11925608E+03</rscale>
<asrwt>0</asrwt>
<pdfrwt beam="1">  1        2 0.72187908E-01 0.14255498E+03</pdfrwt>
<pdfrwt beam="2">  1       -2 0.50910261E-02 0.14255498E+03</pdfrwt>
<totfact> 0.12121006E+04</totfact>
</mgrwt>
</event>
<event>
 7    1  0.8712071E-006  0.1604632E+03  0.7546771E-02  0.1195904E+00
         -2   -1    0    0    0  501 -0.00000000000E+00  0.00000000000E+00  0.53068689583E+02  0.53068689583E+02  0.00000000000E+00 0. -1.
          2   -1    0    0  501    0  0.00000000000E+00 -0.00000000000E+00 -0.42464820854E+03  0.42464820854E+03  0.00000000000E+00 0.  1.
         23    2    1    2    0    0  0.94631608473E+02 -0.34184363058E+02 -0.24179556908E+03  0.29019569498E+03  0.12499892863E+03 0.  0.
          5    1    3    3  502    0  0.75690720939E+02 -0.12925046702E+02 -0.40686353115E+02  0.87026498254E+02  0.47000000000E+01 0.  1.
         -5    1    3    3    0  502  0.18940887534E+02 -0.21259316356E+02 -0.20110921597E+03  0.20316919673E+03  0.47000000000E+01 0.  1.
        -11    1    1    2    0    0 -0.41303269619E+02 -0.17316167629E+02 -0.96237067315E+02  0.10614792917E+03  0.00000000000E+00 0.  1.
         11    1    1    2    0    0 -0.53328338854E+02  0.51500530688E+02 -0.33546882556E+02  0.81373273962E+02  0.00000000000E+00 0. -1.
<mgrwt>
<rscale>  0 0.15377944E+03</rscale>
<asrwt>0</asrwt>
<pdfrwt beam="2">  1        2 0.65330496E-01 0.16046322E+03</pdfrwt>
<pdfrwt beam="1">  1       -2 0.81644135E-02 0.16046322E+03</pdfrwt>
<totfact> 0.66166487E+03</totfact>
</mgrwt>
</event>
<event>
 7    1  0.8712071E-006  0.1324986E+03  0.7546771E-02  0.1237027E+00
         -1   -1    0    0    0  501 -0.00000000000E+00  0.00000000000E+00  0.58328112273E+02  0.58328112273E+02  0.00000000000E+00 0.  1.
          1   -1    0    0  501    0  0.00000000000E+00 -0.00000000000E+00 -0.38179968060E+03  0.38179968060E+03  0.00000000000E+00 0. -1.
         23    2    1    2    0    0 -0.27375139886E+02  0.34296945055E+02 -0.38707009656E+02  0.13803658545E+03  0.12502074868E+03 0.  0.
          5    1    3    3  502    0  0.38233635470E+02  0.40238179595E+02  0.91826174019E+01  0.56456465004E+02  0.47000000000E+01 0.  1.
         -5    1    3    3    0  502 -0.65608775356E+02 -0.59412345400E+01 -0.47889627058E+02  0.81580120442E+02  0.47000000000E+01 0.  1.
        -11    1    1    2    0    0  0.53398550889E+02 -0.28086626912E+02 -0.25512687931E+03  0.26216404863E+03  0.00000000000E+00 0. -1.
         11    1    1    2    0    0 -0.26023411002E+02 -0.62103181434E+01 -0.29637679365E+02  0.39927158799E+02  0.00000000000E+00 0.  1.
<mgrwt>
<rscale>  0 0.12375538E+03</rscale>
<asrwt>0</asrwt>
<pdfrwt beam="2">  1        1 0.58738413E-01 0.13249855E+03</pdfrwt>
<pdfrwt beam="1">  1       -1 0.89735557E-02 0.13249855E+03</pdfrwt>
<totfact> 0.44649930E+03</totfact>
</mgrwt>
</event>
<event>
 7    1  0.8712071E-006  0.2379800E+03  0.7546771E-02  0.1123894E+00
          2   -1    0    0  501    0  0.00000000000E+00  0.00000000000E+00  0.16628947479E+04  0.16628947479E+04  0.00000000000E+00 0. -1.
         -2   -1    0    0    0  501 -0.00000000000E+00 -0.00000000000E+00 -0.36243709142E+02  0.36243709142E+02  0.00000000000E+00 0.  1.
         23    2    1    2    0    0  0.20091817312E+03 -0.25655129984E+02  0.54187360574E+03  0.59182891224E+03  0.12493261699E+03 0.  0.
          5    1    3    3  502    0  0.72154628981E+02 -0.20318253446E+02  0.36665816088E+03  0.37427185153E+03  0.47000000000E+01 0.  1.
         -5    1    3    3    0  502  0.12876354414E+03 -0.53368765379E+01  0.17521544486E+03  0.21755706071E+03  0.47000000000E+01 0.  1.
        -11    1    1    2    0    0 -0.12512510192E+03  0.59006810000E+02  0.62405555888E+03  0.63920531547E+03  0.00000000000E+00 0.  1.
         11    1    1    2    0    0 -0.75793071202E+02 -0.33351680016E+02  0.46072187413E+03  0.46810422931E+03  0.00000000000E+00 0. -1.
<mgrwt>
<rscale>  0 0.23394444E+03</rscale>
<asrwt>0</asrwt>
<pdfrwt beam="1">  1        2 0.25582990E+00 0.23797995E+03</pdfrwt>
<pdfrwt beam="2">  1       -2 0.55759565E-02 0.23797995E+03</pdfrwt>
<totfact> 0.18545536E+03</totfact>
</mgrwt>
</event>
<event>
 7    1  0.8712071E-006  0.1530445E+03  0.7546771E-02  0.1206252E+00
          1   -1    0    0  501    0  0.00000000000E+00  0.00000000000E+00  0.57163057982E+02  0.57163057982E+02  0.00000000000E+00 0. -1.
         -1   -1    0    0    0  501 -0.00000000000E+00 -0.00000000000E+00 -0.35108496641E+03  0.35108496641E+03  0.00000000000E+00 0.  1.
         23    2    1    2    0    0  0.82184312655E+02 -0.32333182567E+02 -0.20168423441E+03  0.25317809499E+03  0.12499168544E+03 0.  0.
          5    1    3    3  502    0  0.44684949376E+02  0.24982735931E+02 -0.13927324449E+02  0.53262952994E+02  0.47000000000E+01 0.  1.
         -5    1    3    3    0  502  0.37499363279E+02 -0.57315918498E+02 -0.18775690996E+03  0.19991514200E+03  0.47000000000E+01 0.  1.
        -11    1    1    2    0    0 -0.38380771578E+01 -0.22549150930E+02 -0.40002740636E+02  0.46080519770E+02  0.00000000000E+00 0.  1.
         11    1    1    2    0    0 -0.78346235497E+02  0.54882333497E+02 -0.52234933374E+02  0.10898940963E+03  0.00000000000E+00 0. -1.
<mgrwt>
<rscale>  0 0.14539210E+03</rscale>
<asrwt>0</asrwt>
<pdfrwt beam="1">  1        1 0.87943166E-02 0.15304449E+03</pdfrwt>
<pdfrwt beam="2">  1       -1 0.54013072E-01 0.15304449E+03</pdfrwt>
<totfact> 0.26404624E+03</totfact>
</mgrwt>
</event>
<event>
 7    1  0.1382243E-005  0.2116196E+03  0.7546771E-02  0.1143832E+00
         -1   -1    0    0    0  501 -0.00000000000E+00  0.00000000000E+00  0.12731728189E+03  0.12731728189E+03  0.00000000000E+00 0.  1.
          1   -1    0    0  501    0  0.00000000000E+00 -0.00000000000E+00 -0.32773093513E+03  0.32773093513E+03  0.00000000000E+00 0. -1.
         23    2    1    2    0    0 -0.17002149193E+03 -0.15808523314E+02 -0.12985177833E+03  0.24828279206E+03  0.12500257346E+03 0.  0.
          5    1    3    3  502    0 -0.14858953521E+03 -0.45144422871E+02 -0.54765848945E+02  0.16473693302E+03  0.47000000000E+01 0.  1.
         -5    1    3    3    0  502 -0.21431956722E+02  0.29335899556E+02 -0.75085929386E+02  0.83545859044E+02  0.47000000000E+01 0.  1.
        -11    1    1    2    0    0  0.72783149681E+02 -0.14801543980E+02 -0.73891677967E+02  0.10476856711E+03  0.00000000000E+00 0. -1.
         11    1    1    2    0    0  0.97238342246E+02  0.30610067295E+02  0.33298030489E+01  0.10199685785E+03  0.00000000000E+00 0.  1.
<mgrwt>
<rscale>  0 0.20716413E+03</rscale>
<asrwt>0</asrwt>
<pdfrwt beam="2">  1        1 0.50420143E-01 0.21161961E+03</pdfrwt>
<pdfrwt beam="1">  1       -1 0.19587274E-01 0.21161961E+03</pdfrwt>
<totfact> 0.16236953E+03</totfact>
</mgrwt>
</event>
<event>
 7    1  0.8712071E-006  0.1456169E+03  0.7546771E-02  0.1215743E+00
          1   -1    0    0  501    0  0.00000000000E+00  0.00000000000E+00  0.25279850856E+03  0.25279850856E+03  0.00000000000E+00 0. -1.
         -1   -1    0    0    0  501 -0.00000000000E+00 -0.00000000000E+00 -0.77391533835E+02  0.77391533835E+02  0.00000000000E+00 0.  1.
         23    2    1    2    0    0  0.60223782058E+02 -0.44174273674E+02  0.41173911590E+02  0.15132607214E+03  0.12500407486E+03 0.  0.
          5    1    3    3  502    0 -0.10478760658E+02 -0.68295406007E+02  0.89402446637E+01  0.69828968782E+02  0.47000000000E+01 0. -1.
         -5    1    3    3    0  502  0.70702542715E+02  0.24121132333E+02  0.32233666927E+02  0.81497103353E+02  0.47000000000E+01 0. -1.
        -11    1    1    2    0    0 -0.51010267463E+02  0.48995495662E+02  0.14656151055E+03  0.16273562105E+03  0.00000000000E+00 0. -1.
         11    1    1    2    0    0 -0.92135145943E+01 -0.48212219883E+01 -0.12328447417E+02  0.16128349214E+02  0.00000000000E+00 0.  1.
<mgrwt>
<rscale>  0 0.13822074E+03</rscale>
<asrwt>0</asrwt>
<pdfrwt beam="1">  1        1 0.38892078E-01 0.14561693E+03</pdfrwt>
<pdfrwt beam="2">  1       -1 0.11906390E-01 0.14561693E+03</pdfrwt>
<totfact> 0.48591166E+03</totfact>
</mgrwt>
</event>
<event>
 7    1  0.1025907E-005  0.2089929E+03  0.7546771E-02  0.1146258E+00
         -1   -1    0    0    0  501 -0.00000000000E+00  0.00000000000E+00  0.61046528180E+02  0.61046528180E+02  0.00000000000E+00 0.  1.
          1   -1    0    0  501    0  0.00000000000E+00 -0.00000000000E+00 -0.68470472340E+03  0.68470472340E+03  0.00000000000E+00 0. -1.
         23    2    1    2    0    0  0.13579070541E+03  0.98048384078E+02 -0.24585559397E+03  0.32268094674E+03  0.12500167603E+03 0.  0.
          5    1    3    3  502    0  0.74448014845E+02  0.86339057860E+02 -0.23199925848E+03  0.25853952457E+03  0.47000000000E+01 0. -1.
         -5    1    3    3    0  502  0.61342690561E+02  0.11709326218E+02 -0.13856335483E+02  0.64141422176E+02  0.47000000000E+01 0. -1.
        -11    1    1    2    0    0 -0.11725920598E+03 -0.44465468739E+02 -0.19648456076E+03  0.23309457719E+03  0.00000000000E+00 0.  1.
         11    1    1    2    0    0 -0.18531499426E+02 -0.53582915339E+02 -0.18131804050E+03  0.18997572765E+03  0.00000000000E+00 0. -1.
<mgrwt>
<rscale>  0 0.20418207E+03</rscale>
<asrwt>0</asrwt>
<pdfrwt beam="2">  1        1 0.10533919E+00 0.20899287E+03</pdfrwt>
<pdfrwt beam="1">  1       -1 0.93917737E-02 0.20899287E+03</pdfrwt>
<totfact> 0.19471635E+03</totfact>
</mgrwt>
</event>
<event>
 7    1  0.9868366E-006  0.1545535E+03  0.7546771E-02  0.1203348E+00
         -1   -1    0    0    0  501 -0.00000000000E+00  0.00000000000E+00  0.44057876574E+02  0.44057876574E+02  0.00000000000E+00 0.  1.
          1   -1    0    0  501    0  0.00000000000E+00 -0.00000000000E+00 -0.47631303128E+03  0.47631303128E+03  0.00000000000E+00 0. -1.
         23    2    1    2    0    0  0.18790040862E+02 -0.88932093095E+02 -0.18104939714E+03  0.23804554265E+03  0.12499925340E+03 0.  0.
          5    1    3    3  502    0  0.31155635228E+02  0.21943174248E+02 -0.73953129796E+02  0.83326657854E+02  0.47000000000E+01 0.  1.
         -5    1    3    3    0  502 -0.12365594366E+02 -0.11087526734E+03 -0.10709626735E+03  0.15471888479E+03  0.47000000000E+01 0.  1.
        -11    1    1    2    0    0 -0.39997839364E+02  0.83495672088E+02 -0.13263959586E+03  0.16175480457E+03  0.00000000000E+00 0.  1.
         11    1    1    2    0    0  0.21207798502E+02  0.54364210075E+01 -0.11856616170E+03  0.12057056064E+03  0.00000000000E+00 0. -1.
<mgrwt>
<rscale>  0 0.14768400E+03</rscale>
<asrwt>0</asrwt>
<pdfrwt beam="2">  1        1 0.73278925E-01 0.15455354E+03</pdfrwt>
<pdfrwt beam="1">  1       -1 0.67781351E-02 0.15455354E+03</pdfrwt>
<totfact> 0.51851716E+03</totfact>
</mgrwt>
</event>
<event>
 7    1  0.8712071E-006  0.2937532E+03  0.7546771E-02  0.1089952E+00
          2   -1    0    0  501    0  0.00000000000E+00  0.00000000000E+00  0.15601190107E+04  0.15601190107E+04  0.00000000000E+00 0. -1.
         -2   -1    0    0    0  501 -0.00000000000E+00 -0.00000000000E+00 -0.77007806886E+02  0.77007806886E+02  0.00000000000E+00 0.  1.
         23    2    1    2    0    0  0.21669775433E+03  0.15397421975E+03  0.29612745900E+03  0.41711198167E+03  0.12499982480E+03 0.  0.
          5    1    3    3  502    0  0.19562580883E+03  0.88336296949E+02  0.17219971480E+03  0.27522280104E+03  0.47000000000E+01 0. -1.
         -5    1    3    3    0  502  0.21071945506E+02  0.65637922798E+02  0.12392774420E+03  0.14188918063E+03  0.47000000000E+01 0. -1.
        -11    1    1    2    0    0 -0.75889899937E+02 -0.77018936086E+02  0.30612080104E+03  0.32465541464E+03  0.00000000000E+00 0.  1.
         11    1    1    2    0    0 -0.14080785439E+03 -0.76955283661E+02  0.88086294382E+03  0.89535942131E+03  0.00000000000E+00 0. -1.
<mgrwt>
<rscale>  0 0.29076142E+03</rscale>
<asrwt>0</asrwt>
<pdfrwt beam="1">  1        2 0.24001829E+00 0.29375318E+03</pdfrwt>
<pdfrwt beam="2">  1       -2 0.11847356E-01 0.29375318E+03</pdfrwt>
<totfact> 0.63978918E+02</totfact>
</mgrwt>
</event>
<event>
 7    1  0.8712071E-006  0.1576130E+03  0.7546771E-02  0.1199298E+00
         -2   -1    0    0    0  501 -0.00000000000E+00  0.00000000000E+00  0.25434582279E+03  0.25434582279E+03  0.00000000000E+00 0.  1.
          2   -1    0    0  501    0  0.00000000000E+00 -0.00000000000E+00 -0.13410735478E+03  0.13410735478E+03  0.00000000000E+00 0. -1.
         23    2    1    2    0    0  0.59127467040E+02 -0.75643543442E+02  0.18316557559E+03  0.24164332244E+03  0.12499545663E+03 0.  0.
          5    1    3    3  502    0  0.54609620117E+02 -0.64968493834E+02  0.20193049770E+03  0.21909160573E+03  0.47000000000E+01 0. -1.
         -5    1    3    3    0  502  0.45178469228E+01 -0.10675049608E+02 -0.18764922111E+02  0.22551716715E+02  0.47000000000E+01 0. -1.
        -11    1    1    2    0    0 -0.78364267129E+02  0.40707378141E+02 -0.60119701976E+02  0.10682896407E+03  0.00000000000E+00 0. -1.
         11    1    1    2    0    0  0.19236800089E+02  0.34936165301E+02 -0.28074055971E+01  0.39980891058E+02  0.00000000000E+00 0.  1.
<mgrwt>
<rscale>  0 0.15096023E+03</rscale>
<asrwt>0</asrwt>
<pdfrwt beam="2">  1        2 0.20631901E-01 0.15761303E+03</pdfrwt>
<pdfrwt beam="1">  1       -2 0.39130126E-01 0.15761303E+03</pdfrwt>
<totfact> 0.16325412E+03</totfact>
</mgrwt>
</event>
<event>
 7    1  0.8712071E-006  0.1251864E+03  0.7546771E-02  0.1268296E+00
         -2   -1    0    0    0  501 -0.00000000000E+00  0.00000000000E+00  0.76264856360E+03  0.76264856360E+03  0.00000000000E+00 0.  1.
          2   -1    0    0  501    0  0.00000000000E+00 -0.00000000000E+00 -0.14474078520E+02  0.14474078520E+02  0.00000000000E+00 0. -1.
         23    2    1    2    0    0 -0.46029854692E+01 -0.50164147941E+01  0.63310905985E+03  0.64536711194E+03  0.12500110251E+03 0.  0.
          5    1    3    3  502    0 -0.18461761384E+02 -0.25044126139E+02  0.36287739159E+02  0.48030562153E+02  0.47000000000E+01 0.  1.
         -5    1    3    3    0  502  0.13858775915E+02  0.20027711344E+02  0.59682132069E+03  0.59733654979E+03  0.47000000000E+01 0.  1.
        -11    1    1    2    0    0  0.24620545059E+02 -0.67771786389E+01  0.10190048203E+03  0.10505146181E+03  0.00000000000E+00 0.  1.
         11    1    1    2    0    0 -0.20017559590E+02  0.11793593433E+02  0.13164943206E+02  0.26704068372E+02  0.00000000000E+00 0. -1.
<mgrwt>
<rscale>  0 0.10593096E+03</rscale>
<asrwt>0</asrwt>
<pdfrwt beam="2">  1        2 0.22267819E-02 0.12518637E+03</pdfrwt>
<pdfrwt beam="1">  1       -2 0.11733052E+00 0.12518637E+03</pdfrwt>
<totfact> 0.26233800E+03</totfact>
</mgrwt>
</event>
<event>
 7    1  0.8712071E-006  0.1845071E+03  0.7546771E-02  0.1168535E+00
         -1   -1    0    0    0  501 -0.00000000000E+00  0.00000000000E+00  0.17745890340E+03  0.17745890340E+03  0.00000000000E+00 0.  1.
          1   -1    0    0  501    0  0.00000000000E+00 -0.00000000000E+00 -0.19795335013E+03  0.19795335013E+03  0.00000000000E+00 0. -1.
         23    2    1    2    0    0  0.11308423193E+03 -0.75044715218E+02  0.57830340222E+02  0.19335772408E+03  0.12499243344E+03 0.  0.
          5    1    3    3  502    0  0.82333586195E+02 -0.13801747361E+02  0.85236930742E+02  0.11940155781E+03  0.47000000000E+01 0. -1.
         -5    1    3    3    0  502  0.30750645739E+02 -0.61242967857E+02 -0.27406590520E+02  0.73956166269E+02  0.47000000000E+01 0. -1.
        -11    1    1    2    0    0 -0.15642839047E+02  0.64587178444E+01 -0.58949359115E+02  0.61330582826E+02  0.00000000000E+00 0. -1.
         11    1    1    2    0    0 -0.97441392886E+02  0.68585997374E+02 -0.19375427834E+02  0.12072394662E+03  0.00000000000E+00 0.  1.
<mgrwt>
<rscale>  0 0.17924560E+03</rscale>
<asrwt>0</asrwt>
<pdfrwt beam="2">  1        1 0.30454362E-01 0.18450708E+03</pdfrwt>
<pdfrwt beam="1">  1       -1 0.27301370E-01 0.18450708E+03</pdfrwt>
<totfact> 0.17623188E+03</totfact>
</mgrwt>
</event>
<event>
 7    1  0.8712071E-006  0.1282917E+03  0.7546771E-02  0.1243663E+00
         -1   -1    0    0    0  501 -0.00000000000E+00  0.00000000000E+00  0.44886437606E+02  0.44886437606E+02  0.00000000000E+00 0.  1.
          1   -1    0    0  501    0  0.00000000000E+00 -0.00000000000E+00 -0.28297872960E+03  0.28297872960E+03  0.00000000000E+00 0. -1.
         23    2    1    2    0    0 -0.28779222486E+02  0.21871375438E+01 -0.13794737348E+03  0.18838324392E+03  0.12500296605E+03 0.  0.
          5    1    3    3  502    0  0.21139530872E+01 -0.43026097510E+02 -0.39033155499E+01  0.43509076488E+02  0.47000000000E+01 0. -1.
         -5    1    3    3    0  502 -0.30893175573E+02  0.45213235054E+02 -0.13404405793E+03  0.14487416743E+03  0.47000000000E+01 0. -1.
        -11    1    1    2    0    0  0.19346998852E+02 -0.15900432796E+02 -0.11468135833E+03  0.11738374707E+03  0.00000000000E+00 0. -1.
         11    1    1    2    0    0  0.94322236341E+01  0.13713295252E+02  0.14536439823E+02  0.22098176216E+02  0.00000000000E+00 0.  1.
<mgrwt>
<rscale>  0 0.11965782E+03</rscale>
<asrwt>0</asrwt>
<pdfrwt beam="2">  1        1 0.43535189E-01 0.12829173E+03</pdfrwt>
<pdfrwt beam="1">  1       -1 0.69056058E-02 0.12829173E+03</pdfrwt>
<totfact> 0.95890801E+03</totfact>
</mgrwt>
</event>
<event>
 7    1  0.8712071E-006  0.1833959E+03  0.7546771E-02  0.1169518E+00
         -1   -1    0    0    0  501 -0.00000000000E+00  0.00000000000E+00  0.15983674725E+03  0.15983674725E+03  0.00000000000E+00 0.  1.
          1   -1    0    0  501    0  0.00000000000E+00 -0.00000000000E+00 -0.19512570687E+03  0.19512570687E+03  0.00000000000E+00 0. -1.
         23    2    1    2    0    0 -0.12377995752E+03 -0.51841525792E+02 -0.51633212784E+02  0.19052568838E+03  0.12500011037E+03 0.  0.
          5    1    3    3  502    0 -0.16240092033E+02 -0.53536751996E+02 -0.60461767256E+02  0.82508422014E+02  0.47000000000E+01 0.  1.
         -5    1    3    3    0  502 -0.10753986548E+03  0.16952262040E+01  0.88285544715E+01  0.10801726637E+03  0.47000000000E+01 0.  1.
        -11    1    1    2    0    0  0.42992045138E+02 -0.26509457532E+02  0.11446285486E+02  0.51788847595E+02  0.00000000000E+00 0.  1.
         11    1    1    2    0    0  0.80787912377E+02  0.78350983323E+02  0.48979676859E+01  0.11264791814E+03  0.00000000000E+00 0. -1.
<mgrwt>
<rscale>  0 0.17823908E+03</rscale>
<asrwt>0</asrwt>
<pdfrwt beam="2">  1        1 0.30019340E-01 0.18339588E+03</pdfrwt>
<pdfrwt beam="1">  1       -1 0.24590269E-01 0.18339588E+03</pdfrwt>
<totfact> 0.21346416E+03</totfact>
</mgrwt>
</event>
<event>
 7    1  0.8712071E-006  0.1274250E+03  0.7546771E-02  0.1258684E+00
          1   -1    0    0  501    0  0.00000000000E+00  0.00000000000E+00  0.30787125916E+02  0.30787125916E+02  0.00000000000E+00 0. -1.
         -1   -1    0    0    0  501 -0.00000000000E+00 -0.00000000000E+00 -0.40006460118E+03  0.40006460118E+03  0.00000000000E+00 0.  1.
         23    2    1    2    0    0  0.11092688567E+02  0.22092160095E+02 -0.31419888454E+03  0.33905468832E+03  0.12500412533E+03 0.  0.
          5    1    3    3  502    0  0.32259687863E+02  0.64693541496E+02 -0.24081123147E+03  0.25147182938E+03  0.47000000000E+01 0. -1.
         -5    1    3    3    0  502 -0.21166999296E+02 -0.42601381401E+02 -0.73387653070E+02  0.87582858937E+02  0.47000000000E+01 0. -1.
        -11    1    1    2    0    0 -0.19572765152E+02 -0.44933430190E-01 -0.63709112744E+02  0.66647927210E+02  0.00000000000E+00 0.  1.
         11    1    1    2    0    0  0.84800765851E+01 -0.22047226665E+02  0.86305220142E+01  0.25149111570E+02  0.00000000000E+00 0. -1.
<mgrwt>
<rscale>  0 0.11102489E+03</rscale>
<asrwt>0</asrwt>
<pdfrwt beam="1">  1        1 0.47364813E-02 0.12742505E+03</pdfrwt>
<pdfrwt beam="2">  1       -1 0.61548395E-01 0.12742505E+03</pdfrwt>
<totfact> 0.47225224E+03</totfact>
</mgrwt>
</event>
<event>
 7    1  0.8712071E-006  0.1449095E+03  0.7546771E-02  0.1216807E+00
         -2   -1    0    0    0  501 -0.00000000000E+00  0.00000000000E+00  0.13687616512E+03  0.13687616512E+03  0.00000000000E+00 0.  1.
          2   -1    0    0  501    0  0.00000000000E+00 -0.00000000000E+00 -0.13125050358E+03  0.13125050358E+03  0.00000000000E+00 0. -1.
         23    2    1    2    0    0 -0.23621778524E+02 -0.69397651158E+02  0.30857533418E+02  0.14815858061E+03  0.12499902092E+03 0.  0.
          5    1    3    3  502    0  0.19114275904E+02 -0.89405754645E+01  0.63521958643E+02  0.67100064551E+02  0.47000000000E+01 0. -1.
         -5    1    3    3    0  502 -0.42736054428E+02 -0.60457075694E+02 -0.32664425225E+02  0.81058516054E+02  0.47000000000E+01 0. -1.
        -11    1    1    2    0    0  0.54577433736E+02  0.48826658635E+02  0.30030938813E+01  0.73292274078E+02  0.00000000000E+00 0.  1.
         11    1    1    2    0    0 -0.30955655212E+02  0.20570992524E+02 -0.28234965751E+02  0.46675814015E+02  0.00000000000E+00 0. -1.
<mgrwt>
<rscale>  0 0.13744631E+03</rscale>
<asrwt>0</asrwt>
<pdfrwt beam="2">  1        2 0.20192385E-01 0.14490955E+03</pdfrwt>
<pdfrwt beam="1">  1       -2 0.21057871E-01 0.14490955E+03</pdfrwt>
<totfact> 0.50563638E+03</totfact>
</mgrwt>
</event>
<event>
 7    1  0.8712071E-006  0.1369972E+03  0.7546771E-02  0.1229092E+00
          3   -1    0    0  501    0  0.00000000000E+00  0.00000000000E+00  0.80045132603E+02  0.80045132603E+02  0.00000000000E+00 0. -1.
         -3   -1    0    0    0  501 -0.00000000000E+00 -0.00000000000E+00 -0.18723862280E+03  0.18723862280E+03  0.00000000000E+00 0.  1.
         23    2    1    2    0    0 -0.53811596368E+02 -0.15698777188E+02 -0.68275805442E+02  0.15306798155E+03  0.12500432736E+03 0.  0.
          5    1    3    3  502    0 -0.76669767635E+02 -0.45353430585E+02 -0.19346298938E+02  0.91277358735E+02  0.47000000000E+01 0. -1.
         -5    1    3    3    0  502  0.22858171267E+02  0.29654653396E+02 -0.48929506504E+02  0.61790622820E+02  0.47000000000E+01 0. -1.
        -11    1    1    2    0    0  0.28512022399E+02 -0.91657307967E+01 -0.64074389985E+02  0.70728166202E+02  0.00000000000E+00 0.  1.
         11    1    1    2    0    0  0.25299573969E+02  0.24864507985E+02  0.25156705233E+02  0.43487607643E+02  0.00000000000E+00 0. -1.
<mgrwt>
<rscale>  0 0.12890371E+03</rscale>
<asrwt>0</asrwt>
<pdfrwt beam="1">  1        3 0.12314636E-01 0.13699716E+03</pdfrwt>
<pdfrwt beam="2">  1       -3 0.28805942E-01 0.13699716E+03</pdfrwt>
<totfact> 0.13867141E+03</totfact>
</mgrwt>
</event>
<event>
 7    1  0.8712071E-006  0.2767971E+03  0.7546771E-02  0.1098220E+00
         -1   -1    0    0    0  501 -0.00000000000E+00  0.00000000000E+00  0.85314176079E+02  0.85314176079E+02  0.00000000000E+00 0.  1.
          1   -1    0    0  501    0  0.00000000000E+00 -0.00000000000E+00 -0.12470254591E+04  0.12470254591E+04  0.00000000000E+00 0. -1.
         23    2    1    2    0    0  0.13668076532E+03  0.19823977925E+03 -0.21551756648E+03  0.34649017055E+03  0.12500790031E+03 0.  0.
          5    1    3    3  502    0  0.87868264066E+02  0.11729755426E+03 -0.48362880279E+02  0.15440403575E+03  0.47000000000E+01 0.  1.
         -5    1    3    3    0  502  0.48812501254E+02  0.80942224986E+02 -0.16715468620E+03  0.19208613480E+03  0.47000000000E+01 0.  1.
        -11    1    1    2    0    0 -0.35218406481E+02 -0.94592454817E+02 -0.18295373924E+03  0.20895008822E+03  0.00000000000E+00 0.  1.
         11    1    1    2    0    0 -0.10146235884E+03 -0.10364732443E+03 -0.76323997731E+03  0.77689937642E+03  0.00000000000E+00 0. -1.
<mgrwt>
<rscale>  0 0.27541428E+03</rscale>
<asrwt>0</asrwt>
<pdfrwt beam="2">  1        1 0.19185007E+00 0.27679707E+03</pdfrwt>
<pdfrwt beam="1">  1       -1 0.13125258E-01 0.27679707E+03</pdfrwt>
<totfact> 0.42361804E+02</totfact>
</mgrwt>
</event>
<event>
 7    1  0.8712071E-006  0.1758356E+03  0.7546771E-02  0.1177861E+00
         -1   -1    0    0    0  501 -0.00000000000E+00  0.00000000000E+00  0.19531033028E+03  0.19531033028E+03  0.00000000000E+00 0.  1.
          1   -1    0    0  501    0  0.00000000000E+00 -0.00000000000E+00 -0.14427684285E+03  0.14427684285E+03  0.00000000000E+00 0. -1.
         23    2    1    2    0    0  0.64723383506E+02  0.10538133831E+03 -0.55145032529E+01  0.17592200568E+03  0.12499519791E+03 0.  0.
          5    1    3    3  502    0  0.43356453567E+02  0.14650073244E+01  0.41103378942E+02  0.59945859514E+02  0.47000000000E+01 0.  1.
         -5    1    3    3    0  502  0.21366929939E+02  0.10391633098E+03 -0.46617882195E+02  0.11597614617E+03  0.47000000000E+01 0.  1.
        -11    1    1    2    0    0 -0.45329959298E+02 -0.17432539415E+02 -0.12536649802E+02  0.50158411345E+02  0.00000000000E+00 0.  1.
         11    1    1    2    0    0 -0.19393424209E+02 -0.87948798893E+02  0.69084640485E+02  0.11350675610E+03  0.00000000000E+00 0. -1.
<mgrwt>
<rscale>  0 0.16998783E+03</rscale>
<asrwt>0</asrwt>
<pdfrwt beam="2">  1        1 0.22196437E-01 0.17583555E+03</pdfrwt>
<pdfrwt beam="1">  1       -1 0.30047743E-01 0.17583555E+03</pdfrwt>
<totfact> 0.22329566E+03</totfact>
</mgrwt>
</event>
<event>
 7    1  0.8712071E-006  0.1393832E+03  0.7546771E-02  0.1225156E+00
         -2   -1    0    0    0  501 -0.00000000000E+00  0.00000000000E+00  0.18692825858E+03  0.18692825858E+03  0.00000000000E+00 0.  1.
          2   -1    0    0  501    0  0.00000000000E+00 -0.00000000000E+00 -0.97675830457E+02  0.97675830457E+02  0.00000000000E+00 0. -1.
         23    2    1    2    0    0  0.47835509647E+02  0.38887645442E+02  0.10273175310E+03  0.17315164776E+03  0.12500878000E+03 0.  0.
          5    1    3    3  502    0  0.74453911653E+02  0.66596869487E+02  0.81463183881E+02  0.12898398472E+03  0.47000000000E+01 0.  1.
         -5    1    3    3    0  502 -0.26618402006E+02 -0.27709224044E+02  0.21268569214E+02  0.44167663045E+02  0.47000000000E+01 0.  1.
        -11    1    1    2    0    0 -0.23330800808E+02  0.29963646473E+01 -0.46943209539E+02  0.52506850879E+02  0.00000000000E+00 0. -1.
         11    1    1    2    0    0 -0.24504708839E+02 -0.41884010090E+02  0.33463884564E+02  0.58945590392E+02  0.00000000000E+00 0.  1.
<mgrwt>
<rscale>  0 0.13156196E+03</rscale>
<asrwt>0</asrwt>
<pdfrwt beam="2">  1        2 0.15027051E-01 0.13938321E+03</pdfrwt>
<pdfrwt beam="1">  1       -2 0.28758194E-01 0.13938321E+03</pdfrwt>
<totfact> 0.41150524E+03</totfact>
</mgrwt>
</event>
<event>
 7    1  0.8712071E-006  0.1354349E+03  0.7546771E-02  0.1229090E+00
          1   -1    0    0  501    0  0.00000000000E+00  0.00000000000E+00  0.92469583745E+02  0.92469583745E+02  0.00000000000E+00 0. -1.
         -1   -1    0    0    0  501 -0.00000000000E+00 -0.00000000000E+00 -0.16618241418E+03  0.16618241418E+03  0.00000000000E+00 0.  1.
         23    2    1    2    0    0 -0.40045686932E+02  0.33387835962E+02 -0.53847261909E+02  0.14574679279E+03  0.12499678140E+03 0.  0.
          5    1    3    3  502    0 -0.29976031644E+02 -0.22810358414E+02  0.27055919067E+02  0.46615315945E+02  0.47000000000E+01 0. -1.
         -5    1    3    3    0  502 -0.10069655288E+02  0.56198194376E+02 -0.80903180976E+02  0.99131476841E+02  0.47000000000E+01 0. -1.
        -11    1    1    2    0    0 -0.15530838294E+02 -0.29482004459E+02 -0.41426319118E+02  0.53165171313E+02  0.00000000000E+00 0.  1.
         11    1    1    2    0    0  0.55576525225E+02 -0.39058315021E+01  0.21560750589E+02  0.59740033828E+02  0.00000000000E+00 0. -1.
<mgrwt>
<rscale>  0 0.12890482E+03</rscale>
<asrwt>0</asrwt>
<pdfrwt beam="1">  1        1 0.14226090E-01 0.13543486E+03</pdfrwt>
<pdfrwt beam="2">  1       -1 0.25566525E-01 0.13543486E+03</pdfrwt>
<totfact> 0.51116378E+03</totfact>
</mgrwt>
</event>
<event>
 7    1  0.8712071E-006  0.1836074E+03  0.7546771E-02  0.1170320E+00
         -1   -1    0    0    0  501 -0.00000000000E+00  0.00000000000E+00  0.94041466273E+02  0.94041466273E+02  0.00000000000E+00 0.  1.
          1   -1    0    0  501    0  0.00000000000E+00 -0.00000000000E+00 -0.58974274987E+03  0.58974274987E+03  0.00000000000E+00 0. -1.
         23    2    1    2    0    0  0.98107129725E+02 -0.91991868062E+02 -0.23405963259E+02  0.18509328056E+03  0.12499668276E+03 0.  0.
          5    1    3    3  502    0  0.77784911243E+02 -0.11499263632E+03  0.10268174059E+02  0.13928863638E+03  0.47000000000E+01 0.  1.
         -5    1    3    3    0  502  0.20322218482E+02  0.23000768263E+02 -0.33674137318E+02  0.45804644184E+02  0.47000000000E+01 0.  1.
        -11    1    1    2    0    0 -0.81252422963E+02  0.10775522372E+03 -0.37053643980E+03  0.39434806668E+03  0.00000000000E+00 0.  1.
         11    1    1    2    0    0 -0.16854706762E+02 -0.15763355655E+02 -0.10175888053E+03  0.10434286889E+03  0.00000000000E+00 0. -1.
<mgrwt>
<rscale>  0 0.17742335E+03</rscale>
<asrwt>0</asrwt>
<pdfrwt beam="2">  1        1 0.90729654E-01 0.18360742E+03</pdfrwt>
<pdfrwt beam="1">  1       -1 0.14467918E-01 0.18360742E+03</pdfrwt>
<totfact> 0.12244585E+03</totfact>
</mgrwt>
</event>
<event>
 7    1  0.8712071E-006  0.1443385E+03  0.7546771E-02  0.1218989E+00
          2   -1    0    0  501    0  0.00000000000E+00  0.00000000000E+00  0.46253003579E+03  0.46253003579E+03  0.00000000000E+00 0. -1.
         -2   -1    0    0    0  501 -0.00000000000E+00 -0.00000000000E+00 -0.37787438570E+02  0.37787438570E+02  0.00000000000E+00 0.  1.
         23    2    1    2    0    0  0.13240756975E+02 -0.70937121641E+02  0.18097475690E+03  0.23148535956E+03  0.12500486463E+03 0.  0.
          5    1    3    3  502    0 -0.10230960095E+02  0.31735584283E+02  0.20326402285E+02  0.39332842309E+02  0.47000000000E+01 0.  1.
         -5    1    3    3    0  502  0.23471717070E+02 -0.10267270592E+03  0.16064835462E+03  0.19215251725E+03  0.47000000000E+01 0.  1.
        -11    1    1    2    0    0  0.65856612603E+01  0.36171104577E+02  0.20680002715E+02  0.42182724578E+02  0.00000000000E+00 0.  1.
         11    1    1    2    0    0 -0.19826418235E+02  0.34766017064E+02  0.22308783760E+03  0.22664939022E+03  0.00000000000E+00 0. -1.
<mgrwt>
<rscale>  0 0.13587542E+03</rscale>
<asrwt>0</asrwt>
<pdfrwt beam="1">  1        2 0.71158463E-01 0.14433852E+03</pdfrwt>
<pdfrwt beam="2">  1       -2 0.58134524E-02 0.14433852E+03</pdfrwt>
<totfact> 0.10085250E+04</totfact>
</mgrwt>
</event>
<event>
 7    1  0.8712071E-006  0.1423228E+03  0.7546771E-02  0.1220148E+00
          2   -1    0    0  501    0  0.00000000000E+00  0.00000000000E+00  0.85866993012E+02  0.85866993012E+02  0.00000000000E+00 0. -1.
         -2   -1    0    0    0  501 -0.00000000000E+00 -0.00000000000E+00 -0.20376574973E+03  0.20376574973E+03  0.00000000000E+00 0.  1.
         23    2    1    2    0    0 -0.55561570546E+02  0.39267399353E+02 -0.97337851319E+02  0.17242512283E+03  0.12500699545E+03 0.  0.
          5    1    3    3  502    0 -0.39267570422E+02  0.76036218893E+02 -0.10017420875E+03  0.13183478588E+03  0.47000000000E+01 0.  1.
         -5    1    3    3    0  502 -0.16294000124E+02 -0.36768819540E+02  0.28363574270E+01  0.40590336952E+02  0.47000000000E+01 0.  1.
        -11    1    1    2    0    0  0.17420184401E+02 -0.28895973562E+02  0.35264379796E+02  0.48805907378E+02  0.00000000000E+00 0. -1.
         11    1    1    2    0    0  0.38141386146E+02 -0.10371425791E+02 -0.55825285192E+02  0.68401712529E+02  0.00000000000E+00 0.  1.
<mgrwt>
<rscale>  0 0.13505103E+03</rscale>
<asrwt>0</asrwt>
<pdfrwt beam="1">  1        2 0.13210307E-01 0.14232275E+03</pdfrwt>
<pdfrwt beam="2">  1       -2 0.31348577E-01 0.14232275E+03</pdfrwt>
<totfact> 0.41075507E+03</totfact>
</mgrwt>
</event>
<event>
 7    1  0.8712071E-006  0.1540715E+03  0.7546771E-02  0.1204698E+00
          1   -1    0    0  501    0  0.00000000000E+00  0.00000000000E+00  0.82626712407E+02  0.82626712407E+02  0.00000000000E+00 0. -1.
         -1   -1    0    0    0  501 -0.00000000000E+00 -0.00000000000E+00 -0.23790586697E+03  0.23790586697E+03  0.00000000000E+00 0.  1.
         23    2    1    2    0    0 -0.38766949863E+02  0.81302291099E+02 -0.86224771938E+02  0.17655804436E+03  0.12500037117E+03 0.  0.
          5    1    3    3  502    0  0.40341226473E+02  0.17917065871E+02 -0.15913565542E+01  0.44419119965E+02  0.47000000000E+01 0. -1.
         -5    1    3    3    0  502 -0.79108176336E+02  0.63385225228E+02 -0.84633415384E+02  0.13213892439E+03  0.47000000000E+01 0. -1.
        -11    1    1    2    0    0  0.53112495777E+02 -0.23800833163E+02 -0.77629132512E+01  0.58716945502E+02  0.00000000000E+00 0. -1.
         11    1    1    2    0    0 -0.14345545914E+02 -0.57501457936E+02 -0.61291469373E+02  0.85257589517E+02  0.00000000000E+00 0.  1.
<mgrwt>
<rscale>  0 0.14661264E+03</rscale>
<asrwt>0</asrwt>
<pdfrwt beam="1">  1        1 0.12711802E-01 0.15407151E+03</pdfrwt>
<pdfrwt beam="2">  1       -1 0.36600902E-01 0.15407151E+03</pdfrwt>
<totfact> 0.32554141E+03</totfact>
</mgrwt>
</event>
<event>
 7    1  0.8712071E-006  0.1363668E+03  0.7546771E-02  0.1230104E+00
          2   -1    0    0  501    0  0.00000000000E+00  0.00000000000E+00  0.15584983996E+03  0.15584983996E+03  0.00000000000E+00 0. -1.
         -2   -1    0    0    0  501 -0.00000000000E+00 -0.00000000000E+00 -0.97907541536E+02  0.97907541536E+02  0.00000000000E+00 0.  1.
         23    2    1    2    0    0 -0.17760251478E+02  0.51515548824E+02  0.96501583893E+01  0.13670780151E+03  0.12500647637E+03 0.  0.
          5    1    3    3  502    0 -0.57265788085E+02  0.13126384541E+02 -0.32391216198E+02  0.67252905832E+02  0.47000000000E+01 0. -1.
         -5    1    3    3    0  502  0.39505536607E+02  0.38389164283E+02  0.42041374588E+02  0.69454895682E+02  0.47000000000E+01 0. -1.
        -11    1    1    2    0    0  0.50490243215E+02 -0.49348466359E+02  0.19100285064E+02  0.73139296424E+02  0.00000000000E+00 0. -1.
         11    1    1    2    0    0 -0.32729991737E+02 -0.21670824652E+01  0.29191854971E+02  0.43910283558E+02  0.00000000000E+00 0.  1.
<mgrwt>
<rscale>  0 0.12823134E+03</rscale>
<asrwt>0</asrwt>
<pdfrwt beam="1">  1        2 0.23976899E-01 0.13636678E+03</pdfrwt>
<pdfrwt beam="2">  1       -2 0.15062699E-01 0.13636678E+03</pdfrwt>
<totfact> 0.72681293E+03</totfact>
</mgrwt>
</event>
<event>
 7    1  0.8712071E-006  0.3241634E+03  0.7546771E-02  0.1075452E+00
         -2   -1    0    0    0  501 -0.00000000000E+00  0.00000000000E+00  0.10957519739E+03  0.10957519739E+03  0.00000000000E+00 0.  1.
          2   -1    0    0  501    0  0.00000000000E+00 -0.00000000000E+00 -0.95774611561E+03  0.95774611561E+03  0.00000000000E+00 0. -1.
         23    2    1    2    0    0 -0.25976502971E+03  0.14837357748E+03 -0.32217546018E+03  0.45703275990E+03  0.12485722773E+03 0.  0.
          5    1    3    3  502    0 -0.13090483658E+03  0.12369735718E+03 -0.24706925630E+03  0.30578165384E+03  0.47000000000E+01 0.  1.
         -5    1    3    3    0  502 -0.12886019313E+03  0.24676220300E+02 -0.75106203883E+02  0.15125110606E+03  0.47000000000E+01 0.  1.
        -11    1    1    2    0    0  0.24825725635E+02 -0.18651068825E+02 -0.11740945791E+03  0.12144611904E+03  0.00000000000E+00 0.  1.
         11    1    1    2    0    0  0.23493930408E+03 -0.12972250866E+03 -0.40858600011E+03  0.48884243407E+03  0.00000000000E+00 0. -1.
<mgrwt>
<rscale>  0 0.32042977E+03</rscale>
<asrwt>0</asrwt>
<pdfrwt beam="2">  1        2 0.14734556E+00 0.32416341E+03</pdfrwt>
<pdfrwt beam="1">  1       -2 0.16857722E-01 0.32416341E+03</pdfrwt>
<totfact> 0.78547037E+02</totfact>
</mgrwt>
</event>
<event>
 6    1  0.8712071E-006  0.2491151E+03  0.7546771E-02  0.1121276E+00
          2   -1    0    0  501    0  0.00000000000E+00  0.00000000000E+00  0.93978566639E+03  0.93978566639E+03  0.00000000000E+00 0. -1.
         -2   -1    0    0    0  501 -0.00000000000E+00 -0.00000000000E+00 -0.55478149673E+02  0.55478149673E+02  0.00000000000E+00 0.  1.
          5    1    1    2  502    0 -0.44368109398E+02 -0.75353593500E+02  0.26827282171E+03  0.28220398660E+03  0.47000000000E+01 0. -1.
         -5    1    1    2    0  502  0.10460635669E+03 -0.10047678662E+03  0.18628161641E+03  0.23613768255E+03  0.47000000000E+01 0.  1.
        -11    1    1    2    0    0  0.15007479382E+02  0.92285116914E+02  0.21702816317E+03  0.23631121609E+03  0.00000000000E+00 0.  1.
         11    1    1    2    0    0 -0.75245726672E+02  0.83545263207E+02  0.21272491542E+03  0.24061093081E+03  0.00000000000E+00 0. -1.
<mgrwt>
<rscale>  0 0.23778733E+03</rscale>
<asrwt>0</asrwt>
<pdfrwt beam="1">  1        2 0.14458240E+00 0.24911513E+03</pdfrwt>
<pdfrwt beam="2">  1       -2 0.85351006E-02 0.24911513E+03</pdfrwt>
<totfact> 0.24393626E+03</totfact>
</mgrwt>
</event>
<event>
 7    1  0.8712071E-006  0.1694668E+03  0.7546771E-02  0.1183061E+00
          2   -1    0    0  501    0  0.00000000000E+00  0.00000000000E+00  0.68543314858E+03  0.68543314858E+03  0.00000000000E+00 0. -1.
         -2   -1    0    0    0  501 -0.00000000000E+00 -0.00000000000E+00 -0.46373156824E+02  0.46373156824E+02  0.00000000000E+00 0.  1.
         23    2    1    2    0    0  0.11400763696E+03  0.97269825536E+01  0.17639386830E+03  0.24460948258E+03  0.12500658670E+03 0.  0.
          5    1    3    3  502    0  0.37119624221E+01 -0.39433084974E+02  0.82283046811E+02  0.91440344750E+02  0.47000000000E+01 0.  1.
         -5    1    3    3    0  502  0.11029567454E+03  0.49160067528E+02  0.94110821487E+02  0.15316913783E+03  0.47000000000E+01 0.  1.
        -11    1    1    2    0    0 -0.11371565833E+03  0.21428059317E+02  0.40988230597E+03  0.42590364805E+03  0.00000000000E+00 0.  1.
         11    1    1    2    0    0 -0.29197863062E+00 -0.31155041870E+02  0.52783817494E+02  0.61293174781E+02  0.00000000000E+00 0. -1.
<mgrwt>
<rscale>  0 0.16509536E+03</rscale>
<asrwt>0</asrwt>
<pdfrwt beam="1">  1        2 0.10545125E+00 0.16946682E+03</pdfrwt>
<pdfrwt beam="2">  1       -2 0.71343323E-02 0.16946682E+03</pdfrwt>
<totfact> 0.47673896E+03</totfact>
</mgrwt>
</event>
<event>
 6    1  0.8712071E-006  0.1958996E+03  0.7546771E-02  0.1168457E+00
          2   -1    0    0  501    0  0.00000000000E+00  0.00000000000E+00  0.50053574487E+03  0.50053574487E+03  0.00000000000E+00 0. -1.
         -2   -1    0    0    0  501 -0.00000000000E+00 -0.00000000000E+00 -0.69944938371E+02  0.69944938371E+02  0.00000000000E+00 0.  1.
          5    1    1    2  502    0  0.78099497791E+01  0.20729474173E+02  0.13710773972E+03  0.13896520681E+03  0.47000000000E+01 0. -1.
         -5    1    1    2    0  502  0.81043008895E+02  0.31739069488E+02 -0.19783537438E+02  0.89380177759E+02  0.47000000000E+01 0.  1.
        -11    1    1    2    0    0  0.16245326700E+02  0.50919744228E+01  0.28719645080E+02  0.33386477152E+02  0.00000000000E+00 0.  1.
         11    1    1    2    0    0 -0.10509828537E+03 -0.57560518083E+02  0.28454695914E+03  0.30874882152E+03  0.00000000000E+00 0. -1.
<mgrwt>
<rscale>  0 0.17932547E+03</rscale>
<asrwt>0</asrwt>
<pdfrwt beam="1">  1        2 0.77005497E-01 0.19589958E+03</pdfrwt>
<pdfrwt beam="2">  1       -2 0.10760760E-01 0.19589958E+03</pdfrwt>
<totfact> 0.36119204E+03</totfact>
</mgrwt>
</event>
<event>
 7    1  0.8712071E-006  0.1321923E+03  0.7546771E-02  0.1236244E+00
         -1   -1    0    0    0  501 -0.00000000000E+00  0.00000000000E+00  0.21036002348E+03  0.21036002348E+03  0.00000000000E+00 0.  1.
          1   -1    0    0  501    0  0.00000000000E+00 -0.00000000000E+00 -0.67938517211E+02  0.67938517211E+02  0.00000000000E+00 0. -1.
         23    2    1    2    0    0 -0.42049412821E+02 -0.90284930620E+01  0.10400228637E+03  0.16820011273E+03  0.12500054219E+03 0.  0.
          5    1    3    3  502    0  0.38744671094E+02  0.12598546781E+02  0.98545443826E+01  0.42179082069E+02  0.47000000000E+01 0.  1.
         -5    1    3    3    0  502 -0.80794083915E+02 -0.21627039843E+02  0.94147741984E+02  0.12602103066E+03  0.47000000000E+01 0.  1.
        -11    1    1    2    0    0  0.18577167670E+02  0.34191398092E+02 -0.18887567525E+02  0.43253937036E+02  0.00000000000E+00 0. -1.
         11    1    1    2    0    0  0.23472245151E+02 -0.25162905030E+02  0.57306787430E+02  0.66844490929E+02  0.00000000000E+00 0.  1.
<mgrwt>
<rscale>  0 0.12425132E+03</rscale>
<asrwt>0</asrwt>
<pdfrwt beam="2">  1        1 0.10452080E-01 0.13219229E+03</pdfrwt>
<pdfrwt beam="1">  1       -1 0.32363080E-01 0.13219229E+03</pdfrwt>
<totfact> 0.51555320E+03</totfact>
</mgrwt>
</event>
<event>
 7    1  0.8712071E-006  0.1571759E+03  0.7546771E-02  0.1199722E+00
         -2   -1    0    0    0  501 -0.00000000000E+00  0.00000000000E+00  0.14530614640E+03  0.14530614640E+03  0.00000000000E+00 0.  1.
          2   -1    0    0  501    0  0.00000000000E+00 -0.00000000000E+00 -0.14447476865E+03  0.14447476865E+03  0.00000000000E+00 0. -1.
         23    2    1    2    0    0 -0.12241898644E+02 -0.94493430565E+02  0.38817344565E+01  0.15722381535E+03  0.12500155099E+03 0.  0.
          5    1    3    3  502    0 -0.15286326697E+02 -0.35923987301E+02  0.62711966362E+02  0.74020844176E+02  0.47000000000E+01 0. -1.
         -5    1    3    3    0  502  0.30444280537E+01 -0.58569443264E+02 -0.58830231906E+02  0.83202971176E+02  0.47000000000E+01 0. -1.
        -11    1    1    2    0    0  0.33080275855E+02  0.20984112313E+02 -0.32270407884E+02  0.50754476111E+02  0.00000000000E+00 0. -1.
         11    1    1    2    0    0 -0.20838377212E+02  0.73509318251E+02  0.29220051177E+02  0.81802623585E+02  0.00000000000E+00 0.  1.
<mgrwt>
<rscale>  0 0.15061265E+03</rscale>
<asrwt>0</asrwt>
<pdfrwt beam="2">  1        2 0.22226887E-01 0.15717589E+03</pdfrwt>
<pdfrwt beam="1">  1       -2 0.22354792E-01 0.15717589E+03</pdfrwt>
<totfact> 0.41159546E+03</totfact>
</mgrwt>
</event>
<event>
 7    1  0.8712071E-006  0.1503600E+03  0.7546771E-02  0.1209121E+00
          3   -1    0    0  501    0  0.00000000000E+00  0.00000000000E+00  0.20714462276E+03  0.20714462276E+03  0.00000000000E+00 0. -1.
         -3   -1    0    0    0  501 -0.00000000000E+00 -0.00000000000E+00 -0.95379928902E+02  0.95379928902E+02  0.00000000000E+00 0.  1.
         23    2    1    2    0    0 -0.82399588315E+02 -0.13891493236E+02  0.27317489972E+02  0.15282140915E+03  0.12500188838E+03 0.  0.
          5    1    3    3  502    0 -0.77401994871E+02 -0.35516740538E+02  0.66089069656E+02  0.10789978126E+03  0.47000000000E+01 0. -1.
         -5    1    3    3    0  502 -0.49975934443E+01  0.21625247302E+02 -0.38771579684E+02  0.44921627890E+02  0.47000000000E+01 0. -1.
        -11    1    1    2    0    0  0.12112723772E+02 -0.35111784544E+02  0.33497951295E+02  0.50016679538E+02  0.00000000000E+00 0. -1.
         11    1    1    2    0    0  0.70286864543E+02  0.49003277780E+02  0.50949252593E+02  0.99686462974E+02  0.00000000000E+00 0.  1.
<mgrwt>
<rscale>  0 0.14317383E+03</rscale>
<asrwt>0</asrwt>
<pdfrwt beam="1">  1        3 0.31868403E-01 0.15036003E+03</pdfrwt>
<pdfrwt beam="2">  1       -3 0.14673835E-01 0.15036003E+03</pdfrwt>
<totfact> 0.86685757E+02</totfact>
</mgrwt>
</event>
<event>
 6    1  0.8712071E-006  0.1815614E+03  0.7546771E-02  0.1193709E+00
         -2   -1    0    0    0  501 -0.00000000000E+00  0.00000000000E+00  0.36923451629E+02  0.36923451629E+02  0.00000000000E+00 0.  1.
          2   -1    0    0  501    0  0.00000000000E+00 -0.00000000000E+00 -0.62778334598E+03  0.62778334598E+03  0.00000000000E+00 0. -1.
          5    1    1    2  502    0  0.87157030646E+02 -0.39601588484E+02 -0.10111839580E+03  0.13932571109E+03  0.47000000000E+01 0. -1.
         -5    1    1    2    0  502 -0.56379092336E+02  0.59692317692E+02 -0.14214570368E+03  0.16422321979E+03  0.47000000000E+01 0.  1.
        -11    1    1    2    0    0 -0.62572036965E+02 -0.13427000392E+02 -0.25915490639E+03  0.26693971165E+03  0.00000000000E+00 0.  1.
         11    1    1    2    0    0  0.31794098656E+02 -0.66637288152E+01 -0.88440888485E+02  0.94218155082E+02  0.00000000000E+00 0. -1.
<mgrwt>
<rscale>  0 0.15563965E+03</rscale>
<asrwt>0</asrwt>
<pdfrwt beam="2">  1        2 0.96582048E-01 0.18156137E+03</pdfrwt>
<pdfrwt beam="1">  1       -2 0.56805313E-02 0.18156137E+03</pdfrwt>
<totfact> 0.75179990E+03</totfact>
</mgrwt>
</event>
<event>
 6    1  0.8712071E-006  0.2315597E+03  0.7546771E-02  0.1129481E+00
          2   -1    0    0  501    0  0.00000000000E+00  0.00000000000E+00  0.53442674185E+03  0.53442674185E+03  0.00000000000E+00 0. -1.
         -2   -1    0    0    0  501 -0.00000000000E+00 -0.00000000000E+00 -0.91805960007E+02  0.91805960007E+02  0.00000000000E+00 0.  1.
          5    1    1    2  502    0 -0.51081510050E+02 -0.70528928652E+02  0.14838349464E+03  0.17211450237E+03  0.47000000000E+01 0. -1.
         -5    1    1    2    0  502 -0.12563103837E+03  0.99352301714E+00  0.59592435531E+02  0.13913120880E+03  0.47000000000E+01 0.  1.
        -11    1    1    2    0    0  0.40166905868E+01 -0.13244622819E+02  0.25368683050E+01  0.14070875512E+02  0.00000000000E+00 0. -1.
         11    1    1    2    0    0  0.17269585784E+03  0.82780028454E+02  0.23210798337E+03  0.30091611517E+03  0.00000000000E+00 0.  1.
<mgrwt>
<rscale>  0 0.22600819E+03</rscale>
<asrwt>0</asrwt>
<pdfrwt beam="1">  1        2 0.82219497E-01 0.23155972E+03</pdfrwt>
<pdfrwt beam="2">  1       -2 0.14123994E-01 0.23155972E+03</pdfrwt>
<totfact> 0.21716183E+03</totfact>
</mgrwt>
</event>
<event>
 7    1  0.2860675E-005  0.2032580E+03  0.7546771E-02  0.1150155E+00
          1   -1    0    0  501    0  0.00000000000E+00  0.00000000000E+00  0.69970737291E+03  0.69970737291E+03  0.00000000000E+00 0. -1.
         -1   -1    0    0    0  501 -0.00000000000E+00 -0.00000000000E+00 -0.68642223493E+02  0.68642223493E+02  0.00000000000E+00 0.  1.
         23    2    1    2    0    0  0.36320373682E+02  0.15610698803E+03  0.15301142473E+03  0.25441365480E+03  0.12500100157E+03 0.  0.
          5    1    3    3  502    0 -0.75887606944E+01  0.67281273426E+02 -0.47720720670E+01  0.68038384127E+02  0.47000000000E+01 0. -1.
         -5    1    3    3    0  502  0.43909134377E+02  0.88825714600E+02  0.15778349680E+03  0.18637527067E+03  0.47000000000E+01 0. -1.
        -11    1    1    2    0    0 -0.64207204320E+02 -0.10115745819E+03  0.24290322755E+03  0.27084566525E+03  0.00000000000E+00 0.  1.
         11    1    1    2    0    0  0.27886830637E+02 -0.54949529834E+02  0.23515049714E+03  0.24309027636E+03  0.00000000000E+00 0. -1.
<mgrwt>
<rscale>  0 0.19950741E+03</rscale>
<asrwt>0</asrwt>
<pdfrwt beam="1">  1        1 0.10764728E+00 0.20325799E+03</pdfrwt>
<pdfrwt beam="2">  1       -1 0.10560343E-01 0.20325799E+03</pdfrwt>
<totfact> 0.15743850E+03</totfact>
</mgrwt>
</event>
<event>
 7    1  0.8712071E-006  0.1768447E+03  0.7546771E-02  0.1177638E+00
          2   -1    0    0  501    0  0.00000000000E+00  0.00000000000E+00  0.14381804839E+04  0.14381804839E+04  0.00000000000E+00 0. -1.
         -2   -1    0    0    0  501 -0.00000000000E+00 -0.00000000000E+00 -0.18771938349E+02  0.18771938349E+02  0.00000000000E+00 0.  1.
         23    2    1    2    0    0 -0.12457649707E+03 -0.11335816149E+02  0.77535135869E+03  0.79526333244E+03  0.12500493651E+03 0.  0.
          5    1    3    3  502    0 -0.76341106416E+02  0.31625302620E+02  0.20247928322E+03  0.21874202712E+03  0.47000000000E+01 0. -1.
         -5    1    3    3    0  502 -0.48235390653E+02 -0.42961118769E+02  0.57287207547E+03  0.57652130532E+03  0.47000000000E+01 0. -1.
        -11    1    1    2    0    0  0.15394567993E+02  0.16361582759E+01  0.10467795970E+02  0.18688084173E+02  0.00000000000E+00 0.  1.
         11    1    1    2    0    0  0.10918192908E+03  0.96996578732E+01  0.63358939093E+03  0.64300100568E+03  0.00000000000E+00 0. -1.
<mgrwt>
<rscale>  0 0.17020164E+03</rscale>
<asrwt>0</asrwt>
<pdfrwt beam="1">  1        2 0.22125845E+00 0.17684467E+03</pdfrwt>
<pdfrwt beam="2">  1       -2 0.28879916E-02 0.17684467E+03</pdfrwt>
<totfact> 0.65305555E+03</totfact>
</mgrwt>
</event>
<event>
 6    1  0.8712071E-006  0.1829881E+03  0.7546771E-02  0.1173999E+00
         -1   -1    0    0    0  501 -0.00000000000E+00  0.00000000000E+00  0.10937239456E+03  0.10937239456E+03  0.00000000000E+00 0.  1.
          1   -1    0    0  501    0  0.00000000000E+00 -0.00000000000E+00 -0.27187714355E+03  0.27187714355E+03  0.00000000000E+00 0. -1.
          5    1    1    2  502    0  0.91443330762E+02  0.23787734445E+02 -0.39074754269E+02  0.10235558349E+03  0.47000000000E+01 0. -1.
         -5    1    1    2    0  502 -0.11326356011E+02  0.77560531140E+02 -0.10186557637E+03  0.12861807019E+03  0.47000000000E+01 0.  1.
        -11    1    1    2    0    0 -0.30560598195E+02 -0.23100450318E+01 -0.24889352494E+02  0.39481214997E+02  0.00000000000E+00 0. -1.
         11    1    1    2    0    0 -0.49556376556E+02 -0.99038220553E+02  0.33249341383E+01  0.11079466943E+03  0.00000000000E+00 0.  1.
<mgrwt>
<rscale>  0 0.17374406E+03</rscale>
<asrwt>0</asrwt>
<pdfrwt beam="2">  1        1 0.41827253E-01 0.18298812E+03</pdfrwt>
<pdfrwt beam="1">  1       -1 0.16826522E-01 0.18298812E+03</pdfrwt>
<totfact> 0.26081153E+03</totfact>
</mgrwt>
</event>
<event>
 7    1  0.8712071E-006  0.1326011E+03  0.7546771E-02  0.1227358E+00
          1   -1    0    0  501    0  0.00000000000E+00  0.00000000000E+00  0.92847584605E+02  0.92847584605E+02  0.00000000000E+00 0. -1.
         -1   -1    0    0    0  501 -0.00000000000E+00 -0.00000000000E+00 -0.18072068138E+03  0.18072068138E+03  0.00000000000E+00 0.  1.
         23    2    1    2    0    0  0.42951037946E+02 -0.10573870514E+02 -0.68667985808E+02  0.14932626541E+03  0.12500577134E+03 0.  0.
          5    1    3    3  502    0  0.23642924328E+02 -0.23135395938E+02  0.31811334705E+02  0.46133344034E+02  0.47000000000E+01 0.  1.
         -5    1    3    3    0  502  0.19308113618E+02  0.12561525424E+02 -0.10047932051E+03  0.10319292138E+03  0.47000000000E+01 0.  1.
        -11    1    1    2    0    0 -0.24364370255E+02 -0.50272798898E+02  0.51830867179E+01  0.56105625697E+02  0.00000000000E+00 0.  1.
         11    1    1    2    0    0 -0.18586667691E+02  0.60846669412E+02 -0.24388197683E+02  0.68136374871E+02  0.00000000000E+00 0. -1.
<mgrwt>
<rscale>  0 0.13006620E+03</rscale>
<asrwt>0</asrwt>
<pdfrwt beam="1">  1        1 0.14284244E-01 0.13260106E+03</pdfrwt>
<pdfrwt beam="2">  1       -1 0.27803182E-01 0.13260106E+03</pdfrwt>
<totfact> 0.44201263E+03</totfact>
</mgrwt>
</event>
<event>
 7    1  0.8712071E-006  0.1508196E+03  0.7546771E-02  0.1208447E+00
          2   -1    0    0  501    0  0.00000000000E+00  0.00000000000E+00  0.30168046139E+03  0.30168046139E+03  0.00000000000E+00 0. -1.
         -2   -1    0    0    0  501 -0.00000000000E+00 -0.00000000000E+00 -0.62964531221E+02  0.62964531221E+02  0.00000000000E+00 0.  1.
         23    2    1    2    0    0  0.26333569683E+02  0.80165000137E+02  0.11924810038E+03  0.19226718481E+03  0.12500670691E+03 0.  0.
          5    1    3    3  502    0  0.74343975635E+02  0.66196474658E+02  0.89185899161E+02  0.13373561448E+03  0.47000000000E+01 0. -1.
         -5    1    3    3    0  502 -0.48010405952E+02  0.13968525479E+02  0.30062201219E+02  0.58531570335E+02  0.47000000000E+01 0. -1.
        -11    1    1    2    0    0 -0.41168237454E+02 -0.91794710065E+02  0.79626336059E+02  0.12830216664E+03  0.00000000000E+00 0.  1.
         11    1    1    2    0    0  0.14834667771E+02  0.11629709927E+02  0.39841493733E+02  0.44075641161E+02  0.00000000000E+00 0. -1.
<mgrwt>
<rscale>  0 0.14369106E+03</rscale>
<asrwt>0</asrwt>
<pdfrwt beam="1">  1        2 0.46412378E-01 0.15081963E+03</pdfrwt>
<pdfrwt beam="2">  1       -2 0.96868511E-02 0.15081963E+03</pdfrwt>
<totfact> 0.72738047E+03</totfact>
</mgrwt>
</event>
<event>
 7    1  0.8712071E-006  0.1457038E+03  0.7546771E-02  0.1215960E+00
         -1   -1    0    0    0  501 -0.00000000000E+00  0.00000000000E+00  0.42224403225E+03  0.42224403225E+03  0.00000000000E+00 0.  1.
          1   -1    0    0  501    0  0.00000000000E+00 -0.00000000000E+00 -0.41907429780E+02  0.41907429780E+02  0.00000000000E+00 0. -1.
         23    2    1    2    0    0  0.60720198705E+02 -0.43771310694E+02  0.24400607479E+03  0.28419807894E+03  0.12500685330E+03 0.  0.
          5    1    3    3  502    0 -0.27407923529E+02 -0.12254690387E+02  0.14389878487E+03  0.14707250591E+03  0.47000000000E+01 0. -1.
         -5    1    3    3    0  502  0.88128122234E+02 -0.31516620307E+02  0.10010728992E+03  0.13712557303E+03  0.47000000000E+01 0. -1.
        -11    1    1    2    0    0  0.18202132623E+02 -0.21066470359E+01  0.33080108955E+01  0.18619842369E+02  0.00000000000E+00 0. -1.
         11    1    1    2    0    0 -0.78922331328E+02  0.45877957730E+02  0.13302251678E+03  0.16133354071E+03  0.00000000000E+00 0.  1.
<mgrwt>
<rscale>  0 0.13806289E+03</rscale>
<asrwt>0</asrwt>
<pdfrwt beam="2">  1        1 0.64472972E-02 0.14570375E+03</pdfrwt>
<pdfrwt beam="1">  1       -1 0.64960617E-01 0.14570375E+03</pdfrwt>
<totfact> 0.28197811E+03</totfact>
</mgrwt>
</event>
<event>
 7    1  0.8712071E-006  0.2464490E+03  0.7546771E-02  0.1118126E+00
         -4   -1    0    0    0  501 -0.00000000000E+00  0.00000000000E+00  0.10783377196E+04  0.10783377196E+04  0.00000000000E+00 0.  1.
          4   -1    0    0  501    0  0.00000000000E+00 -0.00000000000E+00 -0.57663366938E+02  0.57663366938E+02  0.00000000000E+00 0. -1.
         23    2    1    2    0    0  0.21238124631E+03  0.27462263081E+01  0.68902991567E+03  0.73177820062E+03  0.12499509857E+03 0.  0.
          5    1    3    3  502    0 -0.62237747101E+01  0.16343805772E+02  0.16621925828E+02  0.24581167120E+02  0.47000000000E+01 0. -1.
         -5    1    3    3    0  502  0.21860502102E+03 -0.13597579464E+02  0.67240798984E+03  0.70719703350E+03  0.47000000000E+01 0. -1.
        -11    1    1    2    0    0 -0.47277666442E+02  0.23902598675E+02  0.14097723915E+03  0.15060243666E+03  0.00000000000E+00 0.  1.
         11    1    1    2    0    0 -0.16510357987E+03 -0.26648824983E+02  0.19066719789E+03  0.25362044931E+03  0.00000000000E+00 0. -1.
<mgrwt>
<rscale>  0 0.24251924E+03</rscale>
<asrwt>0</asrwt>
<pdfrwt beam="2">  1        4 0.88712880E-02 0.24644900E+03</pdfrwt>
<pdfrwt beam="1">  1       -4 0.16589810E+00 0.24644900E+03</pdfrwt>
<totfact> 0.41099962E+01</totfact>
</mgrwt>
</event>
<event>
 7    1  0.8712071E-006  0.1460570E+03  0.7546771E-02  0.1216615E+00
          2   -1    0    0  501    0  0.00000000000E+00  0.00000000000E+00  0.47330864994E+03  0.47330864994E+03  0.00000000000E+00 0. -1.
         -2   -1    0    0    0  501 -0.00000000000E+00 -0.00000000000E+00 -0.37634001638E+02  0.37634001638E+02  0.00000000000E+00 0.  1.
         23    2    1    2    0    0  0.69460281013E+02 -0.29712541092E+02  0.18973650865E+03  0.23944222088E+03  0.12500027474E+03 0.  0.
          5    1    3    3  502    0  0.53453743783E+02 -0.64053876992E+02  0.56563331002E+02  0.10090442159E+03  0.47000000000E+01 0. -1.
         -5    1    3    3    0  502  0.16006537230E+02  0.34341335900E+02  0.13317317765E+03  0.13853779929E+03  0.47000000000E+01 0. -1.
        -11    1    1    2    0    0 -0.73965976676E+02 -0.59606571707E+01  0.19891338093E+03  0.21230409382E+03  0.00000000000E+00 0. -1.
         11    1    1    2    0    0  0.45056956635E+01  0.35673198263E+02  0.47024758717E+02  0.59196336881E+02  0.00000000000E+00 0.  1.
<mgrwt>
<rscale>  0 0.13758592E+03</rscale>
<asrwt>0</asrwt>
<pdfrwt beam="1">  1        2 0.72816711E-01 0.14605696E+03</pdfrwt>
<pdfrwt beam="2">  1       -2 0.57898467E-02 0.14605696E+03</pdfrwt>
<totfact> 0.99039826E+03</totfact>
</mgrwt>
</event>
<event>
 7    1  0.8712071E-006  0.1495482E+03  0.7546771E-02  0.1209316E+00
          2   -1    0    0  501    0  0.00000000000E+00  0.00000000000E+00  0.76267920271E+03  0.76267920271E+03  0.00000000000E+00 0. -1.
         -2   -1    0    0    0  501 -0.00000000000E+00 -0.00000000000E+00 -0.26630450767E+02  0.26630450767E+02  0.00000000000E+00 0.  1.
         23    2    1    2    0    0  0.29357094263E+02  0.76666727007E+02  0.29334014746E+03  0.32926144915E+03  0.12500013509E+03 0.  0.
          5    1    3    3  502    0  0.27396726057E+02  0.73467205132E+02  0.30563872795E+03  0.31557112170E+03  0.47000000000E+01 0. -1.
         -5    1    3    3    0  502  0.19603682060E+01  0.31995218749E+01 -0.12298580488E+02  0.13690327453E+02  0.47000000000E+01 0. -1.
        -11    1    1    2    0    0 -0.22436857222E+02  0.11067520478E+02  0.35448981447E+02  0.43388164943E+02  0.00000000000E+00 0.  1.
         11    1    1    2    0    0 -0.69202370413E+01 -0.87734247485E+02  0.40725962304E+03  0.41666003938E+03  0.00000000000E+00 0. -1.
<mgrwt>
<rscale>  0 0.14302504E+03</rscale>
<asrwt>0</asrwt>
<pdfrwt beam="1">  1        2 0.11733525E+00 0.14954819E+03</pdfrwt>
<pdfrwt beam="2">  1       -2 0.40969930E-02 0.14954819E+03</pdfrwt>
<totfact> 0.96466052E+03</totfact>
</mgrwt>
</event>
<event>
 7    1  0.8712071E-006  0.1652443E+03  0.7546771E-02  0.1189874E+00
          2   -1    0    0  501    0  0.00000000000E+00  0.00000000000E+00  0.38511134584E+03  0.38511134584E+03  0.00000000000E+00 0.  1.
         -2   -1    0    0    0  501 -0.00000000000E+00 -0.00000000000E+00 -0.66104196617E+02  0.66104196617E+02  0.00000000000E+00 0. -1.
         23    2    1    2    0    0 -0.53298434079E+02 -0.94013362650E+02  0.10891688115E+03  0.19791050686E+03  0.12500578505E+03 0.  0.
          5    1    3    3  502    0 -0.84449428454E+02 -0.24968432800E+02  0.70170567563E+02  0.11269927753E+03  0.47000000000E+01 0. -1.
         -5    1    3    3    0  502  0.31150994375E+02 -0.69044929850E+02  0.38746313591E+02  0.85211229339E+02  0.47000000000E+01 0. -1.
        -11    1    1    2    0    0  0.39155932939E+02  0.42889497070E+02  0.18635208019E+03  0.19519168485E+03  0.00000000000E+00 0.  1.
         11    1    1    2    0    0  0.14142501141E+02  0.51123865580E+02  0.23738187873E+02  0.58113350737E+02  0.00000000000E+00 0. -1.
<mgrwt>
<rscale>  0 0.15896183E+03</rscale>
<asrwt>0</asrwt>
<pdfrwt beam="1">  1        2 0.59247898E-01 0.16524431E+03</pdfrwt>
<pdfrwt beam="2">  1       -2 0.10169877E-01 0.16524431E+03</pdfrwt>
<totfact> 0.52189855E+03</totfact>
</mgrwt>
</event>
<event>
 7    1  0.8712071E-006  0.1297891E+03  0.7546771E-02  0.1232084E+00
         -1   -1    0    0    0  501 -0.00000000000E+00  0.00000000000E+00  0.13054177563E+03  0.13054177563E+03  0.00000000000E+00 0.  1.
          1   -1    0    0  501    0  0.00000000000E+00 -0.00000000000E+00 -0.16122395406E+03  0.16122395406E+03  0.00000000000E+00 0. -1.
         23    2    1    2    0    0  0.30760611210E+02  0.16421523507E+02  0.59398995752E+02  0.14273556582E+03  0.12501727648E+03 0.  0.
          5    1    3    3  502    0  0.46750864678E+02 -0.30788654220E+02  0.71792831972E+02  0.91158572276E+02  0.47000000000E+01 0.  1.
         -5    1    3    3    0  502 -0.15990253468E+02  0.47210177727E+02 -0.12393836220E+02  0.51576993546E+02  0.47000000000E+01 0.  1.
        -11    1    1    2    0    0  0.12979342223E+02 -0.36934925821E+01  0.23252090240E+02  0.26884287465E+02  0.00000000000E+00 0.  1.
         11    1    1    2    0    0 -0.43739953433E+02 -0.12728030925E+02 -0.11333326443E+03  0.12214587641E+03  0.00000000000E+00 0. -1.
<mgrwt>
<rscale>  0 0.12692967E+03</rscale>
<asrwt>0</asrwt>
<pdfrwt beam="2">  1        1 0.24803685E-01 0.12978906E+03</pdfrwt>
<pdfrwt beam="1">  1       -1 0.20083350E-01 0.12978906E+03</pdfrwt>
<totfact> 0.37139028E+03</totfact>
</mgrwt>
</event>
<event>
 7    1  0.8712071E-006  0.1332107E+03  0.7546771E-02  0.1235975E+00
          2   -1    0    0  501    0  0.00000000000E+00  0.00000000000E+00  0.49513958286E+03  0.49513958286E+03  0.00000000000E+00 0. -1.
         -2   -1    0    0    0  501 -0.00000000000E+00 -0.00000000000E+00 -0.29019615204E+02  0.29019615204E+02  0.00000000000E+00 0.  1.
         23    2    1    2    0    0  0.44515054129E+02  0.11855443560E+02  0.20981994202E+03  0.24853470504E+03  0.12499179955E+03 0.  0.
          5    1    3    3  502    0  0.40985082837E+02  0.66338045625E+02  0.11512831094E+03  0.13912990797E+03  0.47000000000E+01 0.  1.
         -5    1    3    3    0  502  0.35299712921E+01 -0.54482602064E+02  0.94691631080E+02  0.10940479707E+03  0.47000000000E+01 0.  1.
        -11    1    1    2    0    0 -0.14886141728E+02 -0.50276950209E+02  0.12036663200E+03  0.13129164115E+03  0.00000000000E+00 0.  1.
         11    1    1    2    0    0 -0.29628912401E+02  0.38421506649E+02  0.13593339364E+03  0.14433285187E+03  0.00000000000E+00 0. -1.
<mgrwt>
<rscale>  0 0.12442253E+03</rscale>
<asrwt>0</asrwt>
<pdfrwt beam="1">  1        2 0.76175314E-01 0.13321070E+03</pdfrwt>
<pdfrwt beam="2">  1       -2 0.44645565E-02 0.13321070E+03</pdfrwt>
<totfact> 0.13845048E+04</totfact>
</mgrwt>
</event>
<event>
 7    1  0.8712071E-006  0.2739411E+03  0.7546771E-02  0.1100916E+00
          2   -1    0    0  501    0  0.00000000000E+00  0.00000000000E+00  0.35559103806E+03  0.35559103806E+03  0.00000000000E+00 0. -1.
         -2   -1    0    0    0  501 -0.00000000000E+00 -0.00000000000E+00 -0.24780289501E+03  0.24780289501E+03  0.00000000000E+00 0.  1.
         23    2    1    2    0    0  0.12678563695E+03 -0.20818727181E+03 -0.75911528328E+02  0.28426448108E+03  0.12500878843E+03 0.  0.
          5    1    3    3  502    0  0.41652624695E+02 -0.71648837835E+02 -0.90290883642E+02  0.12265003374E+03  0.47000000000E+01 0.  1.
         -5    1    3    3    0  502  0.85133012255E+02 -0.13653843398E+03  0.14379355314E+02  0.16161444734E+03  0.47000000000E+01 0.  1.
        -11    1    1    2    0    0 -0.58363935765E+02  0.27104399047E+02  0.25838809986E+02  0.69344369254E+02  0.00000000000E+00 0.  1.
         11    1    1    2    0    0 -0.68421701185E+02  0.18108287277E+03  0.15786086139E+03  0.24978508275E+03  0.00000000000E+00 0. -1.
<mgrwt>
<rscale>  0 0.27063549E+03</rscale>
<asrwt>0</asrwt>
<pdfrwt beam="1">  1        2 0.54706314E-01 0.27394112E+03</pdfrwt>
<pdfrwt beam="2">  1       -2 0.38123522E-01 0.27394112E+03</pdfrwt>
<totfact> 0.59572007E+02</totfact>
</mgrwt>
</event>
<event>
 7    1  0.8712071E-006  0.1340284E+03  0.7546771E-02  0.1234588E+00
         -2   -1    0    0    0  501 -0.00000000000E+00  0.00000000000E+00  0.21320476306E+03  0.21320476306E+03  0.00000000000E+00 0.  1.
          2   -1    0    0  501    0  0.00000000000E+00 -0.00000000000E+00 -0.66386999524E+02  0.66386999524E+02  0.00000000000E+00 0. -1.
         23    2    1    2    0    0 -0.48355858829E+02 -0.57802674459E+00  0.98661181478E+02  0.16642604352E+03  0.12499990414E+03 0.  0.
          5    1    3    3  502    0 -0.11714853615E+02 -0.53748200917E+02  0.83216549663E+02  0.99865865213E+02  0.47000000000E+01 0. -1.
         -5    1    3    3    0  502 -0.36641005214E+02  0.53170174173E+02  0.15444631815E+02  0.66560178309E+02  0.47000000000E+01 0. -1.
        -11    1    1    2    0    0  0.68099309447E+02  0.20303636134E+02  0.47067617659E+02  0.85235639374E+02  0.00000000000E+00 0.  1.
         11    1    1    2    0    0 -0.19743450618E+02 -0.19725609389E+02  0.10889644026E+01  0.27930079691E+02  0.00000000000E+00 0. -1.
<mgrwt>
<rscale>  0 0.12530867E+03</rscale>
<asrwt>0</asrwt>
<pdfrwt beam="2">  1        2 0.10213385E-01 0.13402835E+03</pdfrwt>
<pdfrwt beam="1">  1       -2 0.32800733E-01 0.13402835E+03</pdfrwt>
<totfact> 0.51402822E+03</totfact>
</mgrwt>
</event>
<event>
 7    1  0.8712071E-006  0.1346547E+03  0.7546771E-02  0.1233052E+00
         -2   -1    0    0    0  501 -0.00000000000E+00  0.00000000000E+00  0.25321764389E+03  0.25321764389E+03  0.00000000000E+00 0.  1.
          2   -1    0    0  501    0  0.00000000000E+00 -0.00000000000E+00 -0.58738688449E+02  0.58738688449E+02  0.00000000000E+00 0. -1.
         23    2    1    2    0    0 -0.63712515035E+01 -0.49666844647E+02  0.14042734698E+03  0.19455517624E+03  0.12499795406E+03 0.  0.
          5    1    3    3  502    0  0.19485658625E+02 -0.20138758231E+02 -0.16410564930E+02  0.32812453679E+02  0.47000000000E+01 0. -1.
         -5    1    3    3    0  502 -0.25856910128E+02 -0.29528086417E+02  0.15683791191E+03  0.16174272256E+03  0.47000000000E+01 0. -1.
        -11    1    1    2    0    0  0.48719628559E+02  0.32015376708E+02  0.28608557197E+02  0.64938710316E+02  0.00000000000E+00 0.  1.
         11    1    1    2    0    0 -0.42348377055E+02  0.17651467940E+02  0.25443051259E+02  0.52462445778E+02  0.00000000000E+00 0. -1.
<mgrwt>
<rscale>  0 0.12629962E+03</rscale>
<asrwt>0</asrwt>
<pdfrwt beam="2">  1        2 0.90367214E-02 0.13465466E+03</pdfrwt>
<pdfrwt beam="1">  1       -2 0.38956560E-01 0.13465466E+03</pdfrwt>
<totfact> 0.43467706E+03</totfact>
</mgrwt>
</event>
<event>
 7    1  0.8712071E-006  0.1545640E+03  0.7546771E-02  0.1203815E+00
         -2   -1    0    0    0  501 -0.00000000000E+00  0.00000000000E+00  0.16255689144E+04  0.16255689144E+04  0.00000000000E+00 0.  1.
          2   -1    0    0  501    0  0.00000000000E+00 -0.00000000000E+00 -0.17304816710E+02  0.17304816710E+02  0.00000000000E+00 0. -1.
         23    2    1    2    0    0 -0.88936403241E+02 -0.19300022957E+02  0.13016222810E+04  0.13107671716E+04  0.12493134481E+03 0.  0.
          5    1    3    3  502    0 -0.87248278817E+02 -0.32047356606E+01  0.12816762496E+04  0.12846550631E+04  0.47000000000E+01 0. -1.
         -5    1    3    3    0  502 -0.16881244240E+01 -0.16095287297E+02  0.19946031450E+02  0.26112108453E+02  0.47000000000E+01 0. -1.
        -11    1    1    2    0    0  0.28435810109E+02  0.40463661391E+02  0.21275387831E+03  0.21842645427E+03  0.00000000000E+00 0. -1.
         11    1    1    2    0    0  0.60500593132E+02 -0.21163638434E+02  0.93887938295E+02  0.11368010520E+03  0.00000000000E+00 0.  1.
<mgrwt>
<rscale>  0 0.14731257E+03</rscale>
<asrwt>0</asrwt>
<pdfrwt beam="2">  1        2 0.26622808E-02 0.15456395E+03</pdfrwt>
<pdfrwt beam="1">  1       -2 0.25008740E+00 0.15456395E+03</pdfrwt>
<totfact> 0.26266822E+02</totfact>
</mgrwt>
</event>
<event>
 7    1  0.8712071E-006  0.1324628E+03  0.7546771E-02  0.1236942E+00
         -1   -1    0    0    0  501 -0.00000000000E+00  0.00000000000E+00  0.36792206856E+02  0.36792206856E+02  0.00000000000E+00 0.  1.
          1   -1    0    0  501    0  0.00000000000E+00 -0.00000000000E+00 -0.37095116525E+03  0.37095116525E+03  0.00000000000E+00 0. -1.
         23    2    1    2    0    0  0.20785221569E+02 -0.38598642684E+02 -0.18384337091E+03  0.22659385296E+03  0.12499803407E+03 0.  0.
          5    1    3    3  502    0 -0.48162201187E+01  0.68052507998E+01 -0.17285143721E+03  0.17311619439E+03  0.47000000000E+01 0. -1.
         -5    1    3    3    0  502  0.25601441687E+02 -0.45403893484E+02 -0.10991933696E+02  0.53477658572E+02  0.47000000000E+01 0. -1.
        -11    1    1    2    0    0 -0.44914429377E+02  0.50546902060E+02 -0.13281247664E+03  0.14903506039E+03  0.00000000000E+00 0. -1.
         11    1    1    2    0    0  0.24129207808E+02 -0.11948259376E+02 -0.17503110843E+02  0.32114458749E+02  0.00000000000E+00 0.  1.
<mgrwt>
<rscale>  0 0.12380944E+03</rscale>
<asrwt>0</asrwt>
<pdfrwt beam="2">  1        1 0.57069411E-01 0.13246278E+03</pdfrwt>
<pdfrwt beam="1">  1       -1 0.56603394E-02 0.13246278E+03</pdfrwt>
<totfact> 0.92396876E+03</totfact>
</mgrwt>
</event>
<event>
 7    1  0.8712071E-006  0.1517104E+03  0.7546771E-02  0.1207233E+00
          1   -1    0    0  501    0  0.00000000000E+00  0.00000000000E+00  0.18899304877E+03  0.18899304877E+03  0.00000000000E+00 0. -1.
         -1   -1    0    0    0  501 -0.00000000000E+00 -0.00000000000E+00 -0.10184753258E+03  0.10184753258E+03  0.00000000000E+00 0.  1.
         23    2    1    2    0    0 -0.81665677567E+02  0.26869648561E+02  0.56053180781E+02  0.16173433465E+03  0.12499910008E+03 0.  0.
          5    1    3    3  502    0 -0.40178287208E+01 -0.17383478498E+02  0.68893596286E+02  0.71321426525E+02  0.47000000000E+01 0.  1.
         -5    1    3    3    0  502 -0.77647848846E+02  0.44253127058E+02 -0.12840415505E+02  0.90412908123E+02  0.47000000000E+01 0.  1.
        -11    1    1    2    0    0  0.38923610187E+02 -0.39939320218E+02 -0.21781934071E+02  0.59871941520E+02  0.00000000000E+00 0.  1.
         11    1    1    2    0    0  0.42742067380E+02  0.13069671657E+02  0.52874269479E+02  0.69234305183E+02  0.00000000000E+00 0. -1.
<mgrwt>
<rscale>  0 0.14462879E+03</rscale>
<asrwt>0</asrwt>
<pdfrwt beam="1">  1        1 0.29075854E-01 0.15171037E+03</pdfrwt>
<pdfrwt beam="2">  1       -1 0.15668851E-01 0.15171037E+03</pdfrwt>
<totfact> 0.45558023E+03</totfact>
</mgrwt>
</event>
<event>
 7    1  0.8712071E-006  0.1713430E+03  0.7546771E-02  0.1183129E+00
          2   -1    0    0  501    0  0.00000000000E+00  0.00000000000E+00  0.71801617350E+03  0.71801617350E+03  0.00000000000E+00 0. -1.
         -2   -1    0    0    0  501 -0.00000000000E+00 -0.00000000000E+00 -0.40587308232E+02  0.40587308232E+02  0.00000000000E+00 0.  1.
         23    2    1    2    0    0  0.58565233495E+02  0.10150590572E+03  0.22541193058E+03  0.28314122502E+03  0.12500031755E+03 0.  0.
          5    1    3    3  502    0  0.82826743980E+02  0.79131462958E+02  0.22171144397E+03  0.24959990452E+03  0.47000000000E+01 0.  1.
         -5    1    3    3    0  502 -0.24261510485E+02  0.22374442759E+02  0.37004866117E+01  0.33541320501E+02  0.47000000000E+01 0.  1.
        -11    1    1    2    0    0 -0.35585099134E+02 -0.53464106531E+02  0.38269095243E+03  0.38804262013E+03  0.00000000000E+00 0. -1.
         11    1    1    2    0    0 -0.22980134361E+02 -0.48041799186E+02  0.69325982260E+02  0.87419636585E+02  0.00000000000E+00 0.  1.
<mgrwt>
<rscale>  0 0.16503261E+03</rscale>
<asrwt>0</asrwt>
<pdfrwt beam="1">  1        2 0.11046402E+00 0.17134297E+03</pdfrwt>
<pdfrwt beam="2">  1       -2 0.62442018E-02 0.17134297E+03</pdfrwt>
<totfact> 0.55349083E+03</totfact>
</mgrwt>
</event>
<event>
 7    1  0.8712071E-006  0.1354208E+03  0.7546771E-02  0.1231488E+00
         -2   -1    0    0    0  501 -0.00000000000E+00  0.00000000000E+00  0.68407670890E+03  0.68407670890E+03  0.00000000000E+00 0.  1.
          2   -1    0    0  501    0  0.00000000000E+00 -0.00000000000E+00 -0.21695054458E+02  0.21695054458E+02  0.00000000000E+00 0. -1.
         23    2    1    2    0    0 -0.22052952955E+02  0.47190538372E+02  0.42025275403E+03  0.44153274491E+03  0.12500203166E+03 0.  0.
          5    1    3    3  502    0  0.29523048311E+02  0.70505863870E+02  0.20257116442E+03  0.21656374091E+03  0.47000000000E+01 0.  1.
         -5    1    3    3    0  502 -0.51576001266E+02 -0.23315325498E+02  0.21768158960E+03  0.22496900400E+03  0.47000000000E+01 0.  1.
        -11    1    1    2    0    0  0.10209712594E+02  0.24082520020E+02  0.11571700533E+03  0.11863655139E+03  0.00000000000E+00 0.  1.
         11    1    1    2    0    0  0.11843240361E+02 -0.71273058392E+02  0.12641189509E+03  0.14560246706E+03  0.00000000000E+00 0. -1.
<mgrwt>
<rscale>  0 0.12731986E+03</rscale>
<asrwt>0</asrwt>
<pdfrwt beam="2">  1        2 0.33377012E-02 0.13542078E+03</pdfrwt>
<pdfrwt beam="1">  1       -2 0.10524255E+00 0.13542078E+03</pdfrwt>
<totfact> 0.19756254E+03</totfact>
</mgrwt>
</event>
<event>
 7    1  0.8712071E-006  0.1452880E+03  0.7546771E-02  0.1216274E+00
          1   -1    0    0  501    0  0.00000000000E+00  0.00000000000E+00  0.22056234384E+03  0.22056234384E+03  0.00000000000E+00 0. -1.
         -1   -1    0    0    0  501 -0.00000000000E+00 -0.00000000000E+00 -0.84706416315E+02  0.84706416315E+02  0.00000000000E+00 0.  1.
         23    2    1    2    0    0 -0.65929837558E+02 -0.33712670001E+02  0.33046470813E+02  0.14899888201E+03  0.12500124003E+03 0.  0.
          5    1    3    3  502    0 -0.19503515539E+02 -0.60295491418E+02 -0.26466682235E+02  0.68836826425E+02  0.47000000000E+01 0. -1.
         -5    1    3    3    0  502 -0.46426322018E+02  0.26582821417E+02  0.59513153048E+02  0.80162055589E+02  0.47000000000E+01 0. -1.
        -11    1    1    2    0    0  0.20589737877E+02  0.60186942517E+02  0.43515143242E+02  0.77071220613E+02  0.00000000000E+00 0.  1.
         11    1    1    2    0    0  0.45340099681E+02 -0.26474272517E+02  0.59294313468E+02  0.79198657527E+02  0.00000000000E+00 0. -1.
<mgrwt>
<rscale>  0 0.13783370E+03</rscale>
<asrwt>0</asrwt>
<pdfrwt beam="1">  1        1 0.33932668E-01 0.14528798E+03</pdfrwt>
<pdfrwt beam="2">  1       -1 0.13031756E-01 0.14528798E+03</pdfrwt>
<totfact> 0.50028180E+03</totfact>
</mgrwt>
</event>
<event>
 7    1  0.8712071E-006  0.1683717E+03  0.7546771E-02  0.1186064E+00
         -1   -1    0    0    0  501 -0.00000000000E+00  0.00000000000E+00  0.77512240159E+02  0.77512240159E+02  0.00000000000E+00 0.  1.
          1   -1    0    0  501    0  0.00000000000E+00 -0.00000000000E+00 -0.38883537045E+03  0.38883537045E+03  0.00000000000E+00 0. -1.
         23    2    1    2    0    0  0.92335951660E+01 -0.11241987041E+03 -0.65507885462E+02  0.18066630384E+03  0.12500217495E+03 0.  0.
          5    1    3    3  502    0 -0.56138501639E+02 -0.36825723986E+02 -0.36150557137E+02  0.76397762367E+02  0.47000000000E+01 0.  1.
         -5    1    3    3    0  502  0.65372096805E+02 -0.75594146423E+02 -0.29357328326E+02  0.10426854147E+03  0.47000000000E+01 0.  1.
        -11    1    1    2    0    0 -0.44087380248E+02  0.77583599935E+02 -0.11278396368E+03  0.14381632223E+03  0.00000000000E+00 0.  1.
         11    1    1    2    0    0  0.34853785082E+02  0.34836270473E+02 -0.13303128115E+03  0.14186498454E+03  0.00000000000E+00 0. -1.
<mgrwt>
<rscale>  0 0.16235468E+03</rscale>
<asrwt>0</asrwt>
<pdfrwt beam="2">  1        1 0.59820828E-01 0.16837170E+03</pdfrwt>
<pdfrwt beam="1">  1       -1 0.11924960E-01 0.16837170E+03</pdfrwt>
<totfact> 0.28517944E+03</totfact>
</mgrwt>
</event>
<event>
 7    1  0.8712071E-006  0.1624369E+03  0.7546771E-02  0.1193380E+00
          1   -1    0    0  501    0  0.00000000000E+00  0.00000000000E+00  0.40751959969E+02  0.40751959969E+02  0.00000000000E+00 0. -1.
         -1   -1    0    0    0  501 -0.00000000000E+00 -0.00000000000E+00 -0.55374972721E+03  0.55374972721E+03  0.00000000000E+00 0.  1.
         23    2    1    2    0    0  0.35935915988E+02 -0.97310515784E+02 -0.28527524799E+03  0.32827995132E+03  0.12500013113E+03 0.  0.
          5    1    3    3  502    0  0.50760955671E+02  0.10836443191E+02 -0.75260601886E+02  0.91544258793E+02  0.47000000000E+01 0. -1.
         -5    1    3    3    0  502 -0.14825039683E+02 -0.10814695898E+03 -0.21001464611E+03  0.23673569253E+03  0.47000000000E+01 0. -1.
        -11    1    1    2    0    0 -0.42602251705E+02  0.86715635952E+02 -0.23330261850E+03  0.25251666315E+03  0.00000000000E+00 0.  1.
         11    1    1    2    0    0  0.66663357166E+01  0.10594879833E+02  0.55800992461E+01  0.13705072716E+02  0.00000000000E+00 0. -1.
<mgrwt>
<rscale>  0 0.15592108E+03</rscale>
<asrwt>0</asrwt>
<pdfrwt beam="1">  1        1 0.62695326E-02 0.16243694E+03</pdfrwt>
<pdfrwt beam="2">  1       -1 0.85192261E-01 0.16243694E+03</pdfrwt>
<totfact> 0.17053532E+03</totfact>
</mgrwt>
</event>
<event>
 7    1  0.8712071E-006  0.1564438E+03  0.7546771E-02  0.1201551E+00
          1   -1    0    0  501    0  0.00000000000E+00  0.00000000000E+00  0.77488604389E+02  0.77488604389E+02  0.00000000000E+00 0. -1.
         -1   -1    0    0    0  501 -0.00000000000E+00 -0.00000000000E+00 -0.27281148077E+03  0.27281148077E+03  0.00000000000E+00 0.  1.
         23    2    1    2    0    0 -0.27778363451E+02  0.89873335322E+02 -0.13943652862E+03  0.20956436593E+03  0.12500329626E+03 0.  0.
          5    1    3    3  502    0 -0.10024744848E+02 -0.20712808528E+02 -0.78570272225E+02  0.82005448745E+02  0.47000000000E+01 0. -1.
         -5    1    3    3    0  502 -0.17753618603E+02  0.11058614385E+03 -0.60866256396E+02  0.12755891718E+03  0.47000000000E+01 0. -1.
        -11    1    1    2    0    0  0.27498044600E+02  0.90577944542E+01 -0.21262118728E+02  0.35920242065E+02  0.00000000000E+00 0.  1.
         11    1    1    2    0    0  0.28031885084E+00 -0.98931129776E+02 -0.34624229030E+02  0.10481547716E+03  0.00000000000E+00 0. -1.
<mgrwt>
<rscale>  0 0.14912621E+03</rscale>
<asrwt>0</asrwt>
<pdfrwt beam="1">  1        1 0.11921324E-01 0.15644385E+03</pdfrwt>
<pdfrwt beam="2">  1       -1 0.41970997E-01 0.15644385E+03</pdfrwt>
<totfact> 0.27886403E+03</totfact>
</mgrwt>
</event>
<event>
 6    1  0.8712071E-006  0.1378953E+03  0.7546771E-02  0.1231986E+00
          2   -1    0    0  501    0  0.00000000000E+00  0.00000000000E+00  0.21253122135E+03  0.21253122135E+03  0.00000000000E+00 0. -1.
         -2   -1    0    0    0  501 -0.00000000000E+00 -0.00000000000E+00 -0.83673389076E+02  0.83673389076E+02  0.00000000000E+00 0.  1.
          5    1    1    2  502    0 -0.53725086983E+02 -0.11830900575E+02  0.34078556718E+02  0.64882919229E+02  0.47000000000E+01 0. -1.
         -5    1    1    2    0  502  0.42243061189E+02  0.52262424083E+02 -0.28454000006E+02  0.73126994373E+02  0.47000000000E+01 0.  1.
        -11    1    1    2    0    0 -0.22199920952E+01  0.22229296055E+02  0.38465180762E+01  0.22668605367E+02  0.00000000000E+00 0.  1.
         11    1    1    2    0    0  0.13702017890E+02 -0.62660819563E+02  0.11938675748E+03  0.13552609145E+03  0.00000000000E+00 0. -1.
<mgrwt>
<rscale>  0 0.12699351E+03</rscale>
<asrwt>0</asrwt>
<pdfrwt beam="1">  1        2 0.32697111E-01 0.13789525E+03</pdfrwt>
<pdfrwt beam="2">  1       -2 0.12872829E-01 0.13789525E+03</pdfrwt>
<totfact> 0.66896309E+03</totfact>
</mgrwt>
</event>
<event>
 6    1  0.8712071E-006  0.1517539E+03  0.7546771E-02  0.1209437E+00
         -2   -1    0    0    0  501 -0.00000000000E+00  0.00000000000E+00  0.15375154866E+03  0.15375154866E+03  0.00000000000E+00 0.  1.
          2   -1    0    0  501    0  0.00000000000E+00 -0.00000000000E+00 -0.16045028844E+03  0.16045028844E+03  0.00000000000E+00 0. -1.
          5    1    1    2  502    0 -0.53707124508E+02 -0.66569048740E+01 -0.19925332162E+02  0.57860854360E+02  0.47000000000E+01 0. -1.
         -5    1    1    2    0  502  0.45137006916E+02 -0.36365304513E+02  0.95150869655E+02  0.11151485444E+03  0.47000000000E+01 0.  1.
        -11    1    1    2    0    0 -0.14743465258E+02  0.51281098993E+02 -0.10057247382E+03  0.11385053084E+03  0.00000000000E+00 0. -1.
         11    1    1    2    0    0  0.23313582850E+02 -0.82588896059E+01  0.18648196560E+02  0.30975597456E+02  0.00000000000E+00 0.  1.
<mgrwt>
<rscale>  0 0.14293262E+03</rscale>
<asrwt>0</asrwt>
<pdfrwt beam="2">  1        2 0.24684660E-01 0.15175391E+03</pdfrwt>
<pdfrwt beam="1">  1       -2 0.23654084E-01 0.15175391E+03</pdfrwt>
<totfact> 0.33144368E+03</totfact>
</mgrwt>
</event>
<event>
 7    1  0.8712071E-006  0.1665575E+03  0.7546771E-02  0.1188891E+00
         -1   -1    0    0    0  501 -0.00000000000E+00  0.00000000000E+00  0.22981362987E+03  0.22981362987E+03  0.00000000000E+00 0.  1.
          1   -1    0    0  501    0  0.00000000000E+00 -0.00000000000E+00 -0.12296564236E+03  0.12296564236E+03  0.00000000000E+00 0. -1.
         23    2    1    2    0    0  0.86990467910E+02  0.67447111887E+02  0.12789046078E+03  0.20999374513E+03  0.12499979450E+03 0.  0.
          5    1    3    3  502    0  0.35484243835E+02  0.51498659133E+02 -0.84692104206E+01  0.63285551101E+02  0.47000000000E+01 0. -1.
         -5    1    3    3    0  502  0.51506224075E+02  0.15948452754E+02  0.13635967121E+03  0.14670819403E+03  0.47000000000E+01 0. -1.
        -11    1    1    2    0    0 -0.38759651591E+02 -0.75593175961E+02 -0.35062200151E+02  0.91902104017E+02  0.00000000000E+00 0. -1.
         11    1    1    2    0    0 -0.48230816319E+02  0.81460640742E+01  0.14019726880E+02  0.50883423082E+02  0.00000000000E+00 0.  1.
<mgrwt>
<rscale>  0 0.15982775E+03</rscale>
<asrwt>0</asrwt>
<pdfrwt beam="2">  1        1 0.18917791E-01 0.16655751E+03</pdfrwt>
<pdfrwt beam="1">  1       -1 0.35355943E-01 0.16655751E+03</pdfrwt>
<totfact> 0.20701490E+03</totfact>
</mgrwt>
</event>
<event>
 6    1  0.8712071E-006  0.1359814E+03  0.7546771E-02  0.1239942E+00
          1   -1    0    0  501    0  0.00000000000E+00  0.00000000000E+00  0.67756770301E+02  0.67756770301E+02  0.00000000000E+00 0. -1.
         -1   -1    0    0    0  501 -0.00000000000E+00 -0.00000000000E+00 -0.20595292906E+03  0.20595292906E+03  0.00000000000E+00 0.  1.
          5    1    1    2  502    0  0.46706416522E+02 -0.41562730547E+02 -0.13468094540E+03  0.14855974209E+03  0.47000000000E+01 0. -1.
         -5    1    1    2    0  502 -0.20820656796E+02  0.27769256944E+02  0.94762056611E+01  0.36283878712E+02  0.47000000000E+01 0.  1.
        -11    1    1    2    0    0  0.25934324746E+01  0.20179192878E+02  0.30395349272E+02  0.36575989044E+02  0.00000000000E+00 0. -1.
         11    1    1    2    0    0 -0.28479192201E+02 -0.63857192753E+01 -0.43386768290E+02  0.52290089517E+02  0.00000000000E+00 0.  1.
<mgrwt>
<rscale>  0 0.12193288E+03</rscale>
<asrwt>0</asrwt>
<pdfrwt beam="1">  1        1 0.10424119E-01 0.13598139E+03</pdfrwt>
<pdfrwt beam="2">  1       -1 0.31685065E-01 0.13598139E+03</pdfrwt>
<totfact> 0.53727464E+03</totfact>
</mgrwt>
</event>
<event>
 7    1  0.1261989E-005  0.3776530E+03  0.7546771E-02  0.1052792E+00
          1   -1    0    0  501    0  0.00000000000E+00  0.00000000000E+00  0.33901503650E+03  0.33901503650E+03  0.00000000000E+00 0. -1.
         -1   -1    0    0    0  501 -0.00000000000E+00 -0.00000000000E+00 -0.41376546859E+03  0.41376546859E+03  0.00000000000E+00 0.  1.
         23    2    1    2    0    0 -0.35594899010E+03 -0.17256061394E+02 -0.77675679370E+02  0.38555843563E+03  0.12499736363E+03 0.  0.
          5    1    3    3  502    0 -0.68291466665E+02  0.46762081138E+02 -0.15415865739E+02  0.84321738408E+02  0.47000000000E+01 0.  1.
         -5    1    3    3    0  502 -0.28765752344E+03 -0.64018142531E+02 -0.62259813631E+02  0.30123669723E+03  0.47000000000E+01 0.  1.
        -11    1    1    2    0    0  0.24054966053E+03  0.46367706522E+02 -0.20823037157E+02  0.24586114428E+03  0.00000000000E+00 0.  1.
         11    1    1    2    0    0  0.11539932957E+03 -0.29111645129E+02  0.23748284440E+02  0.12136092518E+03  0.00000000000E+00 0. -1.
<mgrwt>
<rscale>  0 0.37501485E+03</rscale>
<asrwt>0</asrwt>
<pdfrwt beam="1">  1        1 0.52156159E-01 0.37765301E+03</pdfrwt>
<pdfrwt beam="2">  1       -1 0.63656226E-01 0.37765301E+03</pdfrwt>
<totfact> 0.19384517E+02</totfact>
</mgrwt>
</event>
<event>
 7    1  0.8712071E-006  0.1315978E+03  0.7546771E-02  0.1238685E+00
         -1   -1    0    0    0  501 -0.00000000000E+00  0.00000000000E+00  0.46567205142E+02  0.46567205142E+02  0.00000000000E+00 0.  1.
          1   -1    0    0  501    0  0.00000000000E+00 -0.00000000000E+00 -0.44001044527E+03  0.44001044527E+03  0.00000000000E+00 0. -1.
         23    2    1    2    0    0 -0.40795073794E+02 -0.58237523632E+01 -0.71833842286E+02  0.14992693233E+03  0.12497931830E+03 0.  0.
          5    1    3    3  502    0 -0.67448454618E+01 -0.63684117621E+02 -0.32381901803E+02  0.71915487496E+02  0.47000000000E+01 0.  1.
         -5    1    3    3    0  502 -0.34050228333E+02  0.57860365257E+02 -0.39451940483E+02  0.78011444834E+02  0.47000000000E+01 0.  1.
        -11    1    1    2    0    0 -0.15722836606E+02  0.33001460035E+02 -0.10745597768E+03  0.11350370520E+03  0.00000000000E+00 0.  1.
         11    1    1    2    0    0  0.56517910400E+02 -0.27177707672E+02 -0.21415342016E+03  0.22314701288E+03  0.00000000000E+00 0. -1.
<mgrwt>
<rscale>  0 0.12271480E+03</rscale>
<asrwt>0</asrwt>
<pdfrwt beam="2">  1        1 0.67693917E-01 0.13159781E+03</pdfrwt>
<pdfrwt beam="1">  1       -1 0.71641852E-02 0.13159781E+03</pdfrwt>
<totfact> 0.52389461E+03</totfact>
</mgrwt>
</event>
<event>
 7    1  0.8712071E-006  0.1389995E+03  0.7546771E-02  0.1226101E+00
         -3   -1    0    0    0  501 -0.00000000000E+00  0.00000000000E+00  0.14866261178E+03  0.14866261178E+03  0.00000000000E+00 0.  1.
          3   -1    0    0  501    0  0.00000000000E+00 -0.00000000000E+00 -0.10475058446E+03  0.10475058446E+03  0.00000000000E+00 0. -1.
         23    2    1    2    0    0  0.16314933241E+02  0.58566118213E+02  0.12237915194E+02  0.13953717145E+03  0.12499875359E+03 0.  0.
          5    1    3    3  502    0  0.14532656538E+02  0.95615306721E+02  0.25048086913E+02  0.10001490711E+03  0.47000000000E+01 0. -1.
         -5    1    3    3    0  502  0.17822767029E+01 -0.37049188508E+02 -0.12810171720E+02  0.39522264343E+02  0.47000000000E+01 0. -1.
        -11    1    1    2    0    0 -0.27453701981E+02  0.13161258109E+02  0.27731303392E+02  0.41181909321E+02  0.00000000000E+00 0.  1.
         11    1    1    2    0    0  0.11138768741E+02 -0.71727376322E+02  0.39428087336E+01  0.72694115469E+02  0.00000000000E+00 0. -1.
<mgrwt>
<rscale>  0 0.13091720E+03</rscale>
<asrwt>0</asrwt>
<pdfrwt beam="2">  1        3 0.16115474E-01 0.13899948E+03</pdfrwt>
<pdfrwt beam="1">  1       -3 0.22871171E-01 0.13899948E+03</pdfrwt>
<totfact> 0.13364791E+03</totfact>
</mgrwt>
</event>
<event>
 7    1  0.8712071E-006  0.2043715E+03  0.7546771E-02  0.1150350E+00
          1   -1    0    0  501    0  0.00000000000E+00  0.00000000000E+00  0.63009507386E+02  0.63009507386E+02  0.00000000000E+00 0. -1.
         -1   -1    0    0    0  501 -0.00000000000E+00 -0.00000000000E+00 -0.60078622285E+03  0.60078622285E+03  0.00000000000E+00 0.  1.
         23    2    1    2    0    0 -0.14091272134E+03  0.79283577756E+02 -0.28498067825E+03  0.35068746712E+03  0.12500172752E+03 0.  0.
          5    1    3    3  502    0 -0.20547081378E+02  0.50508802633E+02 -0.20136509501E+02  0.58317156236E+02  0.47000000000E+01 0. -1.
         -5    1    3    3    0  502 -0.12036563996E+03  0.28774775124E+02 -0.26484416875E+03  0.29237031088E+03  0.47000000000E+01 0. -1.
        -11    1    1    2    0    0  0.95106247734E+01 -0.26612238791E+02 -0.10381968499E+03  0.10759735233E+03  0.00000000000E+00 0.  1.
         11    1    1    2    0    0  0.13140209656E+03 -0.52671338965E+02 -0.14897635223E+03  0.20551091079E+03  0.00000000000E+00 0. -1.
<mgrwt>
<rscale>  0 0.19927775E+03</rscale>
<asrwt>0</asrwt>
<pdfrwt beam="1">  1        1 0.96937702E-02 0.20437151E+03</pdfrwt>
<pdfrwt beam="2">  1       -1 0.92428652E-01 0.20437151E+03</pdfrwt>
<totfact> 0.79967382E+02</totfact>
</mgrwt>
</event>
<event>
 7    1  0.8712071E-006  0.1161553E+03  0.7546771E-02  0.1260649E+00
          2   -1    0    0  501    0  0.00000000000E+00  0.00000000000E+00  0.63588389195E+03  0.63588389195E+03  0.00000000000E+00 0. -1.
         -2   -1    0    0    0  501 -0.00000000000E+00 -0.00000000000E+00 -0.20674961370E+02  0.20674961370E+02  0.00000000000E+00 0.  1.
         23    2    1    2    0    0  0.15430214506E+02 -0.62918768682E+01  0.20257831097E+03  0.23351666245E+03  0.11495381825E+03 0.  0.
          5    1    3    3  502    0 -0.26642509076E+02  0.39746791579E+02  0.12459989524E+03  0.13355468777E+03  0.47000000000E+01 0. -1.
         -5    1    3    3    0  502  0.42072723582E+02 -0.46038668448E+02  0.77978415727E+02  0.99961974677E+02  0.47000000000E+01 0.  1.
        -11    1    1    2    0    0 -0.50893621774E+02 -0.10958884193E+02  0.19294918960E+03  0.19984906216E+03  0.00000000000E+00 0. -1.
         11    1    1    2    0    0  0.35463407268E+02  0.17250761061E+02  0.21968143001E+03  0.22319312871E+03  0.00000000000E+00 0.  1.
<mgrwt>
<rscale>  0 0.10995713E+03</rscale>
<asrwt>0</asrwt>
<pdfrwt beam="1">  1        2 0.97828276E-01 0.11615533E+03</pdfrwt>
<pdfrwt beam="2">  1       -2 0.31807638E-02 0.11615533E+03</pdfrwt>
<totfact> 0.17090576E+04</totfact>
</mgrwt>
</event>
<event>
 7    1  0.8712071E-006  0.1580924E+03  0.7546771E-02  0.1200043E+00
         -1   -1    0    0    0  501 -0.00000000000E+00  0.00000000000E+00  0.86274223018E+03  0.86274223018E+03  0.00000000000E+00 0.  1.
          1   -1    0    0  501    0  0.00000000000E+00 -0.00000000000E+00 -0.23987098247E+02  0.23987098247E+02  0.00000000000E+00 0. -1.
         23    2    1    2    0    0  0.88640256714E+02 -0.38864370763E+02  0.44130334245E+03  0.46876630493E+03  0.12500269658E+03 0.  0.
          5    1    3    3  502    0  0.73256513967E+02 -0.61926335077E+02  0.42612496484E+03  0.43681341952E+03  0.47000000000E+01 0. -1.
         -5    1    3    3    0  502  0.15383742747E+02  0.23061964314E+02  0.15178377612E+02  0.31952885407E+02  0.47000000000E+01 0. -1.
        -11    1    1    2    0    0 -0.76630514512E+02  0.21640782158E+01  0.34137381359E+03  0.34987569163E+03  0.00000000000E+00 0. -1.
         11    1    1    2    0    0 -0.12009742202E+02  0.36700292548E+02  0.56077975889E+02  0.68087331866E+02  0.00000000000E+00 0.  1.
<mgrwt>
<rscale>  0 0.15035039E+03</rscale>
<asrwt>0</asrwt>
<pdfrwt beam="2">  1        1 0.36903235E-02 0.15809241E+03</pdfrwt>
<pdfrwt beam="1">  1       -1 0.13272955E+00 0.15809241E+03</pdfrwt>
<totfact> 0.12946236E+03</totfact>
</mgrwt>
</event>
<event>
 6    1  0.8712071E-006  0.1456944E+03  0.7546771E-02  0.1219202E+00
         -1   -1    0    0    0  501 -0.00000000000E+00  0.00000000000E+00  0.69287566060E+02  0.69287566060E+02  0.00000000000E+00 0.  1.
          1   -1    0    0  501    0  0.00000000000E+00 -0.00000000000E+00 -0.27622050808E+03  0.27622050808E+03  0.00000000000E+00 0. -1.
          5    1    1    2  502    0  0.17070274921E+02 -0.90350738334E-01 -0.87648780040E+02  0.89419243408E+02  0.47000000000E+01 0. -1.
         -5    1    1    2    0  502  0.23866216071E+02 -0.46573380836E+02  0.37623492221E+02  0.64624246525E+02  0.47000000000E+01 0.  1.
        -11    1    1    2    0    0 -0.35131196652E+02  0.73799670460E+02 -0.12243551204E+03  0.14721089276E+03  0.00000000000E+00 0. -1.
         11    1    1    2    0    0 -0.58052943405E+01 -0.27135938886E+02 -0.34472142157E+02  0.44253691445E+02  0.00000000000E+00 0.  1.
<mgrwt>
<rscale>  0 0.13572334E+03</rscale>
<asrwt>0</asrwt>
<pdfrwt beam="2">  1        1 0.42495464E-01 0.14569443E+03</pdfrwt>
<pdfrwt beam="1">  1       -1 0.10659625E-01 0.14569443E+03</pdfrwt>
<totfact> 0.51627497E+03</totfact>
</mgrwt>
</event>
<event>
 7    1  0.8712071E-006  0.2211475E+03  0.7546771E-02  0.1136512E+00
          2   -1    0    0  501    0  0.00000000000E+00  0.00000000000E+00  0.56077850692E+03  0.56077850692E+03  0.00000000000E+00 0.  1.
         -2   -1    0    0    0  501 -0.00000000000E+00 -0.00000000000E+00 -0.82999611366E+02  0.82999611366E+02  0.00000000000E+00 0. -1.
         23    2    1    2    0    0 -0.33302172406E+02 -0.17936547602E+03  0.19031860704E+03  0.29176595076E+03  0.12500075665E+03 0.  0.
          5    1    3    3  502    0 -0.39031062952E+02 -0.16508339681E+03  0.93765621828E+02  0.19388149373E+03  0.47000000000E+01 0. -1.
         -5    1    3    3    0  502  0.57288905459E+01 -0.14282079210E+02  0.96552985211E+02  0.97884457023E+02  0.47000000000E+01 0. -1.
        -11    1    1    2    0    0 -0.10933033637E+02  0.80917998641E+02  0.63626035919E+02  0.10351582572E+03  0.00000000000E+00 0. -1.
         11    1    1    2    0    0  0.44235206042E+02  0.98447477375E+02  0.22383425260E+03  0.24849634181E+03  0.00000000000E+00 0.  1.
<mgrwt>
<rscale>  0 0.21650992E+03</rscale>
<asrwt>0</asrwt>
<pdfrwt beam="1">  1        2 0.86273614E-01 0.22114746E+03</pdfrwt>
<pdfrwt beam="2">  1       -2 0.12769171E-01 0.22114746E+03</pdfrwt>
<totfact> 0.24215989E+03</totfact>
</mgrwt>
</event>
<event>
 7    1  0.8712071E-006  0.2573208E+03  0.7546771E-02  0.1111010E+00
         -1   -1    0    0    0  501 -0.00000000000E+00  0.00000000000E+00  0.65839826657E+02  0.65839826657E+02  0.00000000000E+00 0.  1.
          1   -1    0    0  501    0  0.00000000000E+00 -0.00000000000E+00 -0.98322469449E+03  0.98322469449E+03  0.00000000000E+00 0. -1.
         23    2    1    2    0    0  0.21601244634E+03  0.62656965604E+02 -0.37575697745E+03  0.45541991365E+03  0.12500687712E+03 0.  0.
          5    1    3    3  502    0 -0.80430646762E+01  0.83609675919E+01 -0.77073756067E+02  0.78083612511E+02  0.47000000000E+01 0.  1.
         -5    1    3    3    0  502  0.22405551102E+03  0.54295998012E+02 -0.29868322139E+03  0.37733630114E+03  0.47000000000E+01 0.  1.
        -11    1    1    2    0    0 -0.14432984908E+03 -0.85353025379E+02 -0.36451928043E+03  0.40123627713E+03  0.00000000000E+00 0.  1.
         11    1    1    2    0    0 -0.71682597259E+02  0.22696059774E+02 -0.17710860995E+03  0.19240833037E+03  0.00000000000E+00 0. -1.
<mgrwt>
<rscale>  0 0.25366558E+03</rscale>
<asrwt>0</asrwt>
<pdfrwt beam="2">  1        1 0.15126534E+00 0.25732080E+03</pdfrwt>
<pdfrwt beam="1">  1       -1 0.10129204E-01 0.25732080E+03</pdfrwt>
<totfact> 0.98573716E+02</totfact>
</mgrwt>
</event>
<event>
 7    1  0.8712071E-006  0.1409025E+03  0.7546771E-02  0.1220477E+00
         -2   -1    0    0    0  501 -0.00000000000E+00  0.00000000000E+00  0.23153674565E+03  0.23153674565E+03  0.00000000000E+00 0.  1.
          2   -1    0    0  501    0  0.00000000000E+00 -0.00000000000E+00 -0.73706468323E+02  0.73706468323E+02  0.00000000000E+00 0. -1.
         23    2    1    2    0    0 -0.29207073506E+02  0.58108719990E+02  0.10575669894E+03  0.17617600157E+03  0.12499531063E+03 0.  0.
          5    1    3    3  502    0 -0.42534417502E+02 -0.91394316420E+01  0.97620245583E+02  0.10697900836E+03  0.47000000000E+01 0.  1.
         -5    1    3    3    0  502  0.13327343996E+02  0.67248151632E+02  0.81364533540E+01  0.69196993209E+02  0.47000000000E+01 0.  1.
        -11    1    1    2    0    0  0.38027533667E+02  0.16187564455E+02  0.29970611042E+02  0.51052601168E+02  0.00000000000E+00 0.  1.
         11    1    1    2    0    0 -0.88204601611E+01 -0.74296284445E+02  0.22102967346E+02  0.78014611229E+02  0.00000000000E+00 0. -1.
<mgrwt>
<rscale>  0 0.13481798E+03</rscale>
<asrwt>0</asrwt>
<pdfrwt beam="2">  1        2 0.11339457E-01 0.14090246E+03</pdfrwt>
<pdfrwt beam="1">  1       -2 0.35621037E-01 0.14090246E+03</pdfrwt>
<totfact> 0.39014937E+03</totfact>
</mgrwt>
</event>
<event>
 7    1  0.8712071E-006  0.1258660E+03  0.7546771E-02  0.1247950E+00
          2   -1    0    0  501    0  0.00000000000E+00  0.00000000000E+00  0.29852636478E+02  0.29852636478E+02  0.00000000000E+00 0.  1.
         -2   -1    0    0    0  501 -0.00000000000E+00 -0.00000000000E+00 -0.40830644108E+03  0.40830644108E+03  0.00000000000E+00 0. -1.
         23    2    1    2    0    0 -0.25749857224E+01 -0.14439599398E+02 -0.23249860428E+03  0.26438200007E+03  0.12500843326E+03 0.  0.
          5    1    3    3  502    0 -0.17664889730E+02 -0.50263284978E+02 -0.37082731817E+02  0.65081987869E+02  0.47000000000E+01 0.  1.
         -5    1    3    3    0  502  0.15089904007E+02  0.35823685581E+02 -0.19541587247E+03  0.19930001220E+03  0.47000000000E+01 0.  1.
        -11    1    1    2    0    0  0.36717330954E+00 -0.36919716267E+02 -0.32376433149E+02  0.49106350800E+02  0.00000000000E+00 0.  1.
         11    1    1    2    0    0  0.22078124128E+01  0.51359315664E+02 -0.11357876717E+03  0.12467072668E+03  0.00000000000E+00 0. -1.
<mgrwt>
<rscale>  0 0.11710565E+03</rscale>
<asrwt>0</asrwt>
<pdfrwt beam="1">  1        2 0.45927136E-02 0.12586596E+03</pdfrwt>
<pdfrwt beam="2">  1       -2 0.62816372E-01 0.12586596E+03</pdfrwt>
<totfact> 0.39994961E+03</totfact>
</mgrwt>
</event>
<event>
 7    1  0.8712071E-006  0.1391433E+03  0.7546771E-02  0.1225558E+00
         -2   -1    0    0    0  501 -0.00000000000E+00  0.00000000000E+00  0.26711452566E+02  0.26711452566E+02  0.00000000000E+00 0.  1.
          2   -1    0    0  501    0  0.00000000000E+00 -0.00000000000E+00 -0.59265612822E+03  0.59265612822E+03  0.00000000000E+00 0. -1.
         23    2    1    2    0    0 -0.47532202042E+02  0.38471081601E+02 -0.27441830071E+03  0.30767884965E+03  0.12498614486E+03 0.  0.
          5    1    3    3  502    0 -0.41829130197E+02  0.11543970426E+02 -0.14100519225E+02  0.45867788574E+02  0.47000000000E+01 0. -1.
         -5    1    3    3    0  502 -0.57030718449E+01  0.26927111175E+02 -0.26031778149E+03  0.26181106108E+03  0.47000000000E+01 0. -1.
        -11    1    1    2    0    0 -0.42935607747E+01 -0.54724338326E+02 -0.12480898557E+03  0.13634687656E+03  0.00000000000E+00 0. -1.
         11    1    1    2    0    0  0.51825762816E+02  0.16253256725E+02 -0.16671738937E+03  0.17534185457E+03  0.00000000000E+00 0.  1.
<mgrwt>
<rscale>  0 0.13128754E+03</rscale>
<asrwt>0</asrwt>
<pdfrwt beam="2">  1        2 0.91177865E-01 0.13914335E+03</pdfrwt>
<pdfrwt beam="1">  1       -2 0.41094543E-02 0.13914335E+03</pdfrwt>
<totfact> 0.12863454E+04</totfact>
</mgrwt>
</event>
<event>
 6    1  0.8712071E-006  0.1529174E+03  0.7546771E-02  0.1212924E+00
          1   -1    0    0  501    0  0.00000000000E+00  0.00000000000E+00  0.20991751463E+03  0.20991751463E+03  0.00000000000E+00 0. -1.
         -1   -1    0    0    0  501 -0.00000000000E+00 -0.00000000000E+00 -0.34175838960E+03  0.34175838960E+03  0.00000000000E+00 0.  1.
          5    1    1    2  502    0  0.50866604566E+02 -0.69103461616E+01 -0.84000381338E+02  0.98556168802E+02  0.47000000000E+01 0. -1.
         -5    1    1    2    0  502 -0.85365376911E+02  0.51862422728E+02 -0.22456263111E+03  0.24581990106E+03  0.47000000000E+01 0.  1.
        -11    1    1    2    0    0 -0.12977014853E+02 -0.20007971932E+02  0.13225555284E+01  0.23884534922E+02  0.00000000000E+00 0.  1.
         11    1    1    2    0    0  0.47475787199E+02 -0.24944104634E+02  0.17539958195E+03  0.18341529945E+03  0.00000000000E+00 0. -1.
<mgrwt>
<rscale>  0 0.14030168E+03</rscale>
<asrwt>0</asrwt>
<pdfrwt beam="1">  1        1 0.32295003E-01 0.15291744E+03</pdfrwt>
<pdfrwt beam="2">  1       -1 0.52578213E-01 0.15291744E+03</pdfrwt>
<totfact> 0.51825137E+02</totfact>
</mgrwt>
</event>
<event>
 7    1  0.8712071E-006  0.1341034E+03  0.7546771E-02  0.1231844E+00
          2   -1    0    0  501    0  0.00000000000E+00  0.00000000000E+00  0.82883724780E+03  0.82883724780E+03  0.00000000000E+00 0. -1.
         -2   -1    0    0    0  501 -0.00000000000E+00 -0.00000000000E+00 -0.19498803166E+02  0.19498803166E+02  0.00000000000E+00 0.  1.
         23    2    1    2    0    0 -0.54621077960E+02  0.20598198231E+02  0.31596909194E+03  0.34324945195E+03  0.12073098720E+03 0.  0.
          5    1    3    3  502    0 -0.90310140741E+02 -0.24257982813E+01  0.23246985863E+03  0.24945166103E+03  0.47000000000E+01 0. -1.
         -5    1    3    3    0  502  0.35689062781E+02  0.23023996512E+02  0.83499233311E+02  0.93797790918E+02  0.47000000000E+01 0.  1.
        -11    1    1    2    0    0  0.55871169591E+02  0.25888078520E+02  0.27129567564E+03  0.27819619663E+03  0.00000000000E+00 0.  1.
         11    1    1    2    0    0 -0.12500916315E+01 -0.46486276750E+02  0.22207367706E+03  0.22689040239E+03  0.00000000000E+00 0. -1.
<mgrwt>
<rscale>  0 0.12708641E+03</rscale>
<asrwt>0</asrwt>
<pdfrwt beam="1">  1        2 0.12751340E+00 0.13410339E+03</pdfrwt>
<pdfrwt beam="2">  1       -2 0.29998165E-02 0.13410339E+03</pdfrwt>
<totfact> 0.13703051E+04</totfact>
</mgrwt>
</event>
<event>
 7    1  0.8712071E-006  0.1426211E+03  0.7546771E-02  0.1222683E+00
         -4   -1    0    0    0  501 -0.00000000000E+00  0.00000000000E+00  0.30089606607E+03  0.30089606607E+03  0.00000000000E+00 0.  1.
          4   -1    0    0  501    0  0.00000000000E+00 -0.00000000000E+00 -0.56220861818E+02  0.56220861818E+02  0.00000000000E+00 0. -1.
         23    2    1    2    0    0  0.55725343935E+02  0.39034455027E+02  0.18331903337E+03  0.23226419023E+03  0.12534665305E+03 0.  0.
          5    1    3    3  502    0  0.80120932018E+02  0.51755735363E+02  0.18050483070E+03  0.20421092967E+03  0.47000000000E+01 0. -1.
         -5    1    3    3    0  502 -0.24395588083E+02 -0.12721280336E+02  0.28142026699E+01  0.28053260559E+02  0.47000000000E+01 0. -1.
        -11    1    1    2    0    0 -0.58949641766E+02  0.88057116935E+01  0.43065255703E+02  0.73533781839E+02  0.00000000000E+00 0.  1.
         11    1    1    2    0    0  0.32242978308E+01 -0.47840166721E+02  0.18290915177E+02  0.51318955819E+02  0.00000000000E+00 0. -1.
<mgrwt>
<rscale>  0 0.13326980E+03</rscale>
<asrwt>0</asrwt>
<pdfrwt beam="2">  1        4 0.86493636E-02 0.14262113E+03</pdfrwt>
<pdfrwt beam="1">  1       -4 0.46291701E-01 0.14262113E+03</pdfrwt>
<totfact> 0.73531516E+02</totfact>
</mgrwt>
</event>
<event>
 7    1  0.8712071E-006  0.1282052E+03  0.7546771E-02  0.1245251E+00
          2   -1    0    0  501    0  0.00000000000E+00  0.00000000000E+00  0.46038850260E+02  0.46038850260E+02  0.00000000000E+00 0. -1.
         -2   -1    0    0    0  501 -0.00000000000E+00 -0.00000000000E+00 -0.26865806066E+03  0.26865806066E+03  0.00000000000E+00 0.  1.
         23    2    1    2    0    0  0.10450810108E+02 -0.26508761378E+02 -0.12929293320E+03  0.18208028678E+03  0.12499853757E+03 0.  0.
          5    1    3    3  502    0  0.50362911139E+02 -0.20967728738E+02 -0.94599729953E+01  0.55566622678E+02  0.47000000000E+01 0. -1.
         -5    1    3    3    0  502 -0.39912101031E+02 -0.55410326401E+01 -0.11983296021E+03  0.12651366410E+03  0.47000000000E+01 0. -1.
        -11    1    1    2    0    0  0.29988045299E+02  0.49592812115E+01 -0.78939156655E+02  0.84588815953E+02  0.00000000000E+00 0.  1.
         11    1    1    2    0    0 -0.40438855407E+02  0.21549480167E+02 -0.14387120543E+02  0.48027808190E+02  0.00000000000E+00 0. -1.
<mgrwt>
<rscale>  0 0.11870384E+03</rscale>
<asrwt>0</asrwt>
<pdfrwt beam="1">  1        2 0.70829001E-02 0.12820518E+03</pdfrwt>
<pdfrwt beam="2">  1       -2 0.41332009E-01 0.12820518E+03</pdfrwt>
<totfact> 0.52556435E+03</totfact>
</mgrwt>
</event>
<event>
 7    1  0.8712071E-006  0.1265467E+03  0.7546771E-02  0.1247505E+00
          2   -1    0    0  501    0  0.00000000000E+00  0.00000000000E+00  0.93235313121E+02  0.93235313121E+02  0.00000000000E+00 0. -1.
         -2   -1    0    0    0  501 -0.00000000000E+00 -0.00000000000E+00 -0.14090124736E+03  0.14090124736E+03  0.00000000000E+00 0.  1.
         23    2    1    2    0    0 -0.17405804383E+02 -0.10250183433E+02 -0.59358044433E+02  0.13977637793E+03  0.12492409736E+03 0.  0.
          5    1    3    3  502    0 -0.69820908603E+02 -0.20488462427E+02 -0.35371120857E+02  0.81042843987E+02  0.47000000000E+01 0.  1.
         -5    1    3    3    0  502  0.52415104220E+02  0.10238278994E+02 -0.23986923576E+02  0.58733533946E+02  0.47000000000E+01 0.  1.
        -11    1    1    2    0    0  0.44220107561E+02  0.30433478828E+02  0.23747951911E+02  0.58699061034E+02  0.00000000000E+00 0. -1.
         11    1    1    2    0    0 -0.26814303178E+02 -0.20183295395E+02 -0.12055841714E+02  0.35661121510E+02  0.00000000000E+00 0.  1.
<mgrwt>
<rscale>  0 0.11736680E+03</rscale>
<asrwt>0</asrwt>
<pdfrwt beam="1">  1        2 0.14343894E-01 0.12654666E+03</pdfrwt>
<pdfrwt beam="2">  1       -2 0.21677115E-01 0.12654666E+03</pdfrwt>
<totfact> 0.70712563E+03</totfact>
</mgrwt>
</event>
<event>
 7    1  0.8712071E-006  0.2340313E+03  0.7546771E-02  0.1128101E+00
         -2   -1    0    0    0  501 -0.00000000000E+00  0.00000000000E+00  0.29026143003E+03  0.29026143003E+03  0.00000000000E+00 0. -1.
          2   -1    0    0  501    0  0.00000000000E+00 -0.00000000000E+00 -0.18427224064E+03  0.18427224064E+03  0.00000000000E+00 0.  1.
         23    2    1    2    0    0  0.24625850434E+02 -0.19631552989E+03  0.12090986069E+03  0.26341953185E+03  0.12499774222E+03 0.  0.
          5    1    3    3  502    0 -0.13117159095E+01 -0.14117032899E+02  0.71173396741E+02  0.72723817420E+02  0.47000000000E+01 0.  1.
         -5    1    3    3    0  502  0.25937566344E+02 -0.18219849700E+03  0.49736463948E+02  0.19069571443E+03  0.47000000000E+01 0.  1.
        -11    1    1    2    0    0 -0.41577385522E+02  0.64996811354E+02 -0.15528160262E+02  0.78704435924E+02  0.00000000000E+00 0. -1.
         11    1    1    2    0    0  0.16951535087E+02  0.13131871854E+03  0.60748896399E+00  0.13240970291E+03  0.00000000000E+00 0.  1.
<mgrwt>
<rscale>  0 0.22793602E+03</rscale>
<asrwt>0</asrwt>
<pdfrwt beam="2">  1        2 0.28349576E-01 0.23403131E+03</pdfrwt>
<pdfrwt beam="1">  1       -2 0.44655605E-01 0.23403131E+03</pdfrwt>
<totfact> 0.89714758E+02</totfact>
</mgrwt>
</event>
<event>
 7    1  0.8712071E-006  0.2890536E+03  0.7546771E-02  0.1092549E+00
          2   -1    0    0  501    0  0.00000000000E+00  0.00000000000E+00  0.13901093070E+03  0.13901093070E+03  0.00000000000E+00 0. -1.
         -2   -1    0    0    0  501 -0.00000000000E+00 -0.00000000000E+00 -0.60305264232E+03  0.60305264232E+03  0.00000000000E+00 0.  1.
         23    2    1    2    0    0 -0.25206049724E+03 -0.66270957817E+02 -0.31708440726E+03  0.42906232482E+03  0.12500249254E+03 0.  0.
          5    1    3    3  502    0 -0.10194596684E+03  0.12926303585E+02 -0.54632619799E+02  0.11647696178E+03  0.47000000000E+01 0. -1.
         -5    1    3    3    0  502 -0.15011453040E+03 -0.79197261401E+02 -0.26245178746E+03  0.31258536304E+03  0.47000000000E+01 0. -1.
        -11    1    1    2    0    0  0.23466854268E+03  0.36079191777E+02 -0.10830231207E+03  0.26096057902E+03  0.00000000000E+00 0. -1.
         11    1    1    2    0    0  0.17391954554E+02  0.30191766040E+02 -0.38654992297E+02  0.52040669186E+02  0.00000000000E+00 0.  1.
<mgrwt>
<rscale>  0 0.28582582E+03</rscale>
<asrwt>0</asrwt>
<pdfrwt beam="1">  1        2 0.21386297E-01 0.28905355E+03</pdfrwt>
<pdfrwt beam="2">  1       -2 0.92777329E-01 0.28905355E+03</pdfrwt>
<totfact> 0.26308101E+02</totfact>
</mgrwt>
</event>
<event>
 7    1  0.8712071E-006  0.1373255E+03  0.7546771E-02  0.1228705E+00
         -2   -1    0    0    0  501 -0.00000000000E+00  0.00000000000E+00  0.65770900094E+02  0.65770900094E+02  0.00000000000E+00 0. -1.
          2   -1    0    0  501    0  0.00000000000E+00 -0.00000000000E+00 -0.25707941097E+03  0.25707941097E+03  0.00000000000E+00 0.  1.
         23    2    1    2    0    0  0.17369296057E+02 -0.54149572635E+02 -0.51850531219E+02  0.14678814921E+03  0.12499765797E+03 0.  0.
          5    1    3    3  502    0  0.10046160627E+02  0.40552177792E+02 -0.12426237556E+02  0.43839546609E+02  0.47000000000E+01 0.  1.
         -5    1    3    3    0  502  0.73231354295E+01 -0.94701750427E+02 -0.39424293664E+02  0.10294860260E+03  0.47000000000E+01 0.  1.
        -11    1    1    2    0    0 -0.26165163526E+02  0.39449639056E+02 -0.14907932646E+03  0.15641462649E+03  0.00000000000E+00 0.  1.
         11    1    1    2    0    0  0.87958674692E+01  0.14699933578E+02  0.96213467968E+01  0.19647535365E+02  0.00000000000E+00 0. -1.
<mgrwt>
<rscale>  0 0.12916149E+03</rscale>
<asrwt>0</asrwt>
<pdfrwt beam="2">  1        2 0.39550679E-01 0.13732546E+03</pdfrwt>
<pdfrwt beam="1">  1       -2 0.10118600E-01 0.13732546E+03</pdfrwt>
<totfact> 0.79999601E+03</totfact>
</mgrwt>
</event>
<event>
 7    1  0.8712071E-006  0.1663958E+03  0.7546771E-02  0.1188465E+00
         -1   -1    0    0    0  501 -0.00000000000E+00  0.00000000000E+00  0.51765850538E+02  0.51765850538E+02  0.00000000000E+00 0.  1.
          1   -1    0    0  501    0  0.00000000000E+00 -0.00000000000E+00 -0.46333517393E+03  0.46333517393E+03  0.00000000000E+00 0. -1.
         23    2    1    2    0    0 -0.14287270922E+02  0.10889849983E+03 -0.20887133514E+03  0.26704832261E+03  0.12499825034E+03 0.  0.
          5    1    3    3  502    0  0.34277697910E+02  0.75659402384E+02 -0.18595788383E+03  0.20371973469E+03  0.47000000000E+01 0. -1.
         -5    1    3    3    0  502 -0.48564968832E+02  0.33239097445E+02 -0.22913451308E+02  0.63328587916E+02  0.47000000000E+01 0. -1.
        -11    1    1    2    0    0 -0.22037102669E+02 -0.47471777182E+02 -0.28034233784E+02  0.59372736056E+02  0.00000000000E+00 0.  1.
         11    1    1    2    0    0  0.36324373591E+02 -0.61426722648E+02 -0.17466375446E+03  0.18867996580E+03  0.00000000000E+00 0. -1.
<mgrwt>
<rscale>  0 0.16020523E+03</rscale>
<asrwt>0</asrwt>
<pdfrwt beam="2">  1        1 0.71282336E-01 0.16639583E+03</pdfrwt>
<pdfrwt beam="1">  1       -1 0.79639768E-02 0.16639583E+03</pdfrwt>
<totfact> 0.42285230E+03</totfact>
</mgrwt>
</event>
<event>
 7    1  0.8712071E-006  0.1258851E+03  0.7546771E-02  0.1249396E+00
          1   -1    0    0  501    0  0.00000000000E+00  0.00000000000E+00  0.86400075050E+03  0.86400075050E+03  0.00000000000E+00 0. -1.
         -1   -1    0    0    0  501 -0.00000000000E+00 -0.00000000000E+00 -0.14262500483E+02  0.14262500483E+02  0.00000000000E+00 0.  1.
         23    2    1    2    0    0 -0.46062969075E+01  0.14171256703E+02  0.40179647290E+03  0.42105516599E+03  0.12500001873E+03 0.  0.
          5    1    3    3  502    0 -0.62173191739E+02  0.29668460305E-01  0.25844139332E+03  0.26585625897E+03  0.47000000000E+01 0.  1.
         -5    1    3    3    0  502  0.57566894831E+02  0.14141588242E+02  0.14335507958E+03  0.15519890702E+03  0.47000000000E+01 0.  1.
        -11    1    1    2    0    0 -0.34840384792E+02 -0.32882725709E+02  0.23858186534E+03  0.24334426751E+03  0.00000000000E+00 0. -1.
         11    1    1    2    0    0  0.39446681699E+02  0.18711469006E+02  0.20935991177E+03  0.21386381748E+03  0.00000000000E+00 0.  1.
<mgrwt>
<rscale>  0 0.11626099E+03</rscale>
<asrwt>0</asrwt>
<pdfrwt beam="1">  1        1 0.13292315E+00 0.12588506E+03</pdfrwt>
<pdfrwt beam="2">  1       -1 0.21942315E-02 0.12588506E+03</pdfrwt>
<totfact> 0.11654677E+04</totfact>
</mgrwt>
</event>
<event>
 7    1  0.8712071E-006  0.1701648E+03  0.7546771E-02  0.1183844E+00
         -3   -1    0    0    0  501 -0.00000000000E+00  0.00000000000E+00  0.79223298814E+02  0.79223298814E+02  0.00000000000E+00 0.  1.
          3   -1    0    0  501    0  0.00000000000E+00 -0.00000000000E+00 -0.36280056709E+03  0.36280056709E+03  0.00000000000E+00 0. -1.
         23    2    1    2    0    0 -0.76717861766E+02 -0.86678062859E+02 -0.74466001960E+02  0.18574514370E+03  0.12472913078E+03 0.  0.
          5    1    3    3  502    0 -0.20987437424E+02  0.22713635294E+02 -0.52242995424E+02  0.60891726275E+02  0.47000000000E+01 0.  1.
         -5    1    3    3    0  502 -0.55730424342E+02 -0.10939169815E+03 -0.22223006536E+02  0.12485341742E+03  0.47000000000E+01 0.  1.
        -11    1    1    2    0    0  0.22868778226E+02  0.27682551671E+02 -0.39583317073E+01  0.36124411060E+02  0.00000000000E+00 0.  1.
         11    1    1    2    0    0  0.53849083540E+02  0.58995511188E+02 -0.20515293461E+03  0.22015431115E+03  0.00000000000E+00 0. -1.
<mgrwt>
<rscale>  0 0.16437464E+03</rscale>
<asrwt>0</asrwt>
<pdfrwt beam="2">  1        3 0.55815472E-01 0.17016484E+03</pdfrwt>
<pdfrwt beam="1">  1       -3 0.12188200E-01 0.17016484E+03</pdfrwt>
<totfact> 0.40509821E+02</totfact>
</mgrwt>
</event>
<event>
 6    1  0.8712071E-006  0.1365772E+03  0.7546771E-02  0.1234732E+00
         -2   -1    0    0    0  501 -0.00000000000E+00  0.00000000000E+00  0.23878666216E+03  0.23878666216E+03  0.00000000000E+00 0.  1.
          2   -1    0    0  501    0  0.00000000000E+00 -0.00000000000E+00 -0.30590113818E+03  0.30590113818E+03  0.00000000000E+00 0. -1.
          5    1    1    2  502    0  0.22288977473E+02 -0.36097414210E+02  0.17001793275E+03  0.17529406518E+03  0.47000000000E+01 0. -1.
         -5    1    1    2    0  502 -0.52028029697E+02  0.36723108215E+02  0.40401246935E+02  0.75563571283E+02  0.47000000000E+01 0.  1.
        -11    1    1    2    0    0  0.35711289606E+02  0.39370849193E+02 -0.12106172863E+03  0.13221687529E+03  0.00000000000E+00 0. -1.
         11    1    1    2    0    0 -0.59722373825E+01 -0.39996543197E+02 -0.15647192707E+03  0.16161328859E+03  0.00000000000E+00 0.  1.
<mgrwt>
<rscale>  0 0.12521590E+03</rscale>
<asrwt>0</asrwt>
<pdfrwt beam="2">  1        2 0.47061713E-01 0.13657717E+03</pdfrwt>
<pdfrwt beam="1">  1       -2 0.36736410E-01 0.13657717E+03</pdfrwt>
<totfact> 0.74723471E+02</totfact>
</mgrwt>
</event>
<event>
 7    1  0.8712071E-006  0.1278066E+03  0.7546771E-02  0.1245702E+00
          1   -1    0    0  501    0  0.00000000000E+00  0.00000000000E+00  0.26272037366E+03  0.26272037366E+03  0.00000000000E+00 0. -1.
         -1   -1    0    0    0  501 -0.00000000000E+00 -0.00000000000E+00 -0.52994212987E+02  0.52994212987E+02  0.00000000000E+00 0.  1.
         23    2    1    2    0    0  0.74033318234E+00  0.26614741918E+02  0.65993153803E+02  0.14383887837E+03  0.12500253598E+03 0.  0.
          5    1    3    3  502    0  0.58385408844E+02  0.11396518549E+01  0.53665337435E+02  0.79449438099E+02  0.47000000000E+01 0.  1.
         -5    1    3    3    0  502 -0.57645075662E+02  0.25475090063E+02  0.12327816368E+02  0.64389440270E+02  0.47000000000E+01 0.  1.
        -11    1    1    2    0    0 -0.22261882333E+02  0.14068051573E+02  0.11418512858E+03  0.11718252885E+03  0.00000000000E+00 0. -1.
         11    1    1    2    0    0  0.21521549151E+02 -0.40682793492E+02  0.29547878292E+02  0.54693179426E+02  0.00000000000E+00 0.  1.
<mgrwt>
<rscale>  0 0.11843479E+03</rscale>
<asrwt>0</asrwt>
<pdfrwt beam="1">  1        1 0.40418518E-01 0.12780660E+03</pdfrwt>
<pdfrwt beam="2">  1       -1 0.81529560E-02 0.12780660E+03</pdfrwt>
<totfact> 0.81872406E+03</totfact>
</mgrwt>
</event>
<event>
 7    1  0.8712071E-006  0.1253475E+03  0.7546771E-02  0.1250589E+00
          1   -1    0    0  501    0  0.00000000000E+00  0.00000000000E+00  0.45182930243E+03  0.45182930243E+03  0.00000000000E+00 0. -1.
         -1   -1    0    0    0  501 -0.00000000000E+00 -0.00000000000E+00 -0.28899672552E+02  0.28899672552E+02  0.00000000000E+00 0.  1.
         23    2    1    2    0    0 -0.22603192065E+01  0.92106027998E+01  0.16403145261E+03  0.20644202585E+03  0.12498819282E+03 0.  0.
          5    1    3    3  502    0 -0.61306423249E+01 -0.27931862730E+02 -0.82222399039E+01  0.30124225466E+02  0.47000000000E+01 0. -1.
         -5    1    3    3    0  502  0.38703231184E+01  0.37142465530E+02  0.17225369252E+03  0.17631780038E+03  0.47000000000E+01 0. -1.
        -11    1    1    2    0    0 -0.15139951189E+02 -0.44610633688E+02  0.99624363682E+02  0.11020136387E+03  0.00000000000E+00 0. -1.
         11    1    1    2    0    0  0.17400270396E+02  0.35400030888E+02  0.15927381358E+03  0.16408558526E+03  0.00000000000E+00 0.  1.
<mgrwt>
<rscale>  0 0.11557049E+03</rscale>
<asrwt>0</asrwt>
<pdfrwt beam="1">  1        1 0.69512195E-01 0.12534749E+03</pdfrwt>
<pdfrwt beam="2">  1       -1 0.44461038E-02 0.12534749E+03</pdfrwt>
<totfact> 0.10248841E+04</totfact>
</mgrwt>
</event>
<event>
 7    1  0.8712071E-006  0.1376153E+03  0.7546771E-02  0.1227519E+00
          2   -1    0    0  501    0  0.00000000000E+00  0.00000000000E+00  0.97007513781E+03  0.97007513781E+03  0.00000000000E+00 0. -1.
         -2   -1    0    0    0  501 -0.00000000000E+00 -0.00000000000E+00 -0.16817935690E+02  0.16817935690E+02  0.00000000000E+00 0.  1.
         23    2    1    2    0    0  0.24571134151E+02 -0.51953702755E+02  0.40275845903E+03  0.42561995623E+03  0.12504016535E+03 0.  0.
          5    1    3    3  502    0  0.41537434484E+02 -0.60337469180E+02  0.11017858540E+03  0.13239100925E+03  0.47000000000E+01 0. -1.
         -5    1    3    3    0  502 -0.16966300334E+02  0.83837664255E+01  0.29257987363E+03  0.29322894697E+03  0.47000000000E+01 0. -1.
        -11    1    1    2    0    0 -0.56766987979E+02  0.12590545846E+02  0.26822153644E+03  0.27445182707E+03  0.00000000000E+00 0.  1.
         11    1    1    2    0    0  0.32195853828E+02  0.39363156909E+02  0.28227720664E+03  0.28682129020E+03  0.00000000000E+00 0. -1.
<mgrwt>
<rscale>  0 0.12995740E+03</rscale>
<asrwt>0</asrwt>
<pdfrwt beam="1">  1        2 0.14924228E+00 0.13761530E+03</pdfrwt>
<pdfrwt beam="2">  1       -2 0.25873755E-02 0.13761530E+03</pdfrwt>
<totfact> 0.13883640E+04</totfact>
</mgrwt>
</event>
<event>
 7    1  0.8712071E-006  0.1272470E+03  0.7546771E-02  0.1247889E+00
          2   -1    0    0  501    0  0.00000000000E+00  0.00000000000E+00  0.25742268952E+03  0.25742268952E+03  0.00000000000E+00 0. -1.
         -2   -1    0    0    0  501 -0.00000000000E+00 -0.00000000000E+00 -0.53153859459E+02  0.53153859459E+02  0.00000000000E+00 0.  1.
         23    2    1    2    0    0  0.21501408845E+01 -0.23707003291E+02  0.62159371692E+02  0.14161778652E+03  0.12500065944E+03 0.  0.
          5    1    3    3  502    0 -0.92191191008E+01 -0.36790598213E+02  0.95988517390E+02  0.10331711254E+03  0.47000000000E+01 0. -1.
         -5    1    3    3    0  502  0.11369259985E+02  0.13083594922E+02 -0.33829145697E+02  0.38300673980E+02  0.47000000000E+01 0. -1.
        -11    1    1    2    0    0 -0.35005513910E+02 -0.46074120832E+01  0.10846443861E+03  0.11406642229E+03  0.00000000000E+00 0. -1.
         11    1    1    2    0    0  0.32855373025E+02  0.28314415374E+02  0.33645019759E+02  0.54892340169E+02  0.00000000000E+00 0.  1.
<mgrwt>
<rscale>  0 0.11714112E+03</rscale>
<asrwt>0</asrwt>
<pdfrwt beam="1">  1        2 0.39603490E-01 0.12724704E+03</pdfrwt>
<pdfrwt beam="2">  1       -2 0.81775170E-02 0.12724704E+03</pdfrwt>
<totfact> 0.11069593E+04</totfact>
</mgrwt>
</event>
<event>
 7    1  0.8712071E-006  0.4240175E+03  0.7546771E-02  0.1035948E+00
         -2   -1    0    0    0  501 -0.00000000000E+00  0.00000000000E+00  0.12556187374E+03  0.12556187374E+03  0.00000000000E+00 0.  1.
          2   -1    0    0  501    0  0.00000000000E+00 -0.00000000000E+00 -0.17837435629E+04  0.17837435629E+04  0.00000000000E+00 0. -1.
         23    2    1    2    0    0 -0.33043348024E+03  0.23448259678E+03 -0.40231774052E+03  0.58450871383E+03  0.12498999621E+03 0.  0.
          5    1    3    3  502    0 -0.14424802151E+02 -0.96735821858E+01 -0.45611467009E+02  0.49032122451E+02  0.47000000000E+01 0.  1.
         -5    1    3    3    0  502 -0.31600867809E+03  0.24415617897E+03 -0.35670627351E+03  0.53547659138E+03  0.47000000000E+01 0.  1.
        -11    1    1    2    0    0  0.76933999546E+02 -0.73670548063E+02 -0.19407886379E+03  0.22138833598E+03  0.00000000000E+00 0.  1.
         11    1    1    2    0    0  0.25349948069E+03 -0.16081204872E+03 -0.10617850848E+04  0.11034083868E+04  0.00000000000E+00 0. -1.
<mgrwt>
<rscale>  0 0.42345518E+03</rscale>
<asrwt>0</asrwt>
<pdfrwt beam="2">  1        2 0.27442209E+00 0.42401754E+03</pdfrwt>
<pdfrwt beam="1">  1       -2 0.19317211E-01 0.42401754E+03</pdfrwt>
<totfact> 0.21098860E+02</totfact>
</mgrwt>
</event>
<event>
 7    1  0.8712071E-006  0.1799723E+03  0.7546771E-02  0.1173242E+00
          1   -1    0    0  501    0  0.00000000000E+00  0.00000000000E+00  0.49743857710E+03  0.49743857710E+03  0.00000000000E+00 0. -1.
         -1   -1    0    0    0  501 -0.00000000000E+00 -0.00000000000E+00 -0.66350085760E+02  0.66350085760E+02  0.00000000000E+00 0.  1.
         23    2    1    2    0    0 -0.28287313905E+02  0.12635855435E+03  0.12586582194E+03  0.21961839435E+03  0.12499351030E+03 0.  0.
          5    1    3    3  502    0 -0.75167692586E+02  0.54345894995E+02  0.77089351562E+02  0.12070010951E+03  0.47000000000E+01 0.  1.
         -5    1    3    3    0  502  0.46880378681E+02  0.72012659358E+02  0.48776470383E+02  0.98918284842E+02  0.47000000000E+01 0.  1.
        -11    1    1    2    0    0 -0.29211668729E+02 -0.65399397624E+02  0.10484415498E+03  0.12697519298E+03  0.00000000000E+00 0.  1.
         11    1    1    2    0    0  0.57498982634E+02 -0.60959156729E+02  0.20037851442E+03  0.21719507553E+03  0.00000000000E+00 0. -1.
<mgrwt>
<rscale>  0 0.17449292E+03</rscale>
<asrwt>0</asrwt>
<pdfrwt beam="1">  1        1 0.76529009E-01 0.17997231E+03</pdfrwt>
<pdfrwt beam="2">  1       -1 0.10207706E-01 0.17997231E+03</pdfrwt>
<totfact> 0.26459663E+03</totfact>
</mgrwt>
</event>
<event>
 7    1  0.8712071E-006  0.1528403E+03  0.7546771E-02  0.1207752E+00
         -4   -1    0    0    0  501 -0.00000000000E+00  0.00000000000E+00  0.61138554436E+02  0.61138554436E+02  0.00000000000E+00 0. -1.
          4   -1    0    0  501    0  0.00000000000E+00 -0.00000000000E+00 -0.37377241008E+03  0.37377241008E+03  0.00000000000E+00 0.  1.
         23    2    1    2    0    0 -0.25371427539E+02 -0.96703800880E+02 -0.79783867552E+02  0.17241121169E+03  0.11560634046E+03 0.  0.
          5    1    3    3  502    0 -0.56116177881E+02 -0.42404582430E+02  0.65840327771E+00  0.70496081635E+02  0.47000000000E+01 0. -1.
         -5    1    3    3    0  502  0.30744750341E+02 -0.54299218450E+02 -0.80442270830E+02  0.10191513005E+03  0.47000000000E+01 0.  1.
        -11    1    1    2    0    0  0.98188511139E+01  0.96970528062E+02 -0.22472422429E+03  0.24495034217E+03  0.00000000000E+00 0.  1.
         11    1    1    2    0    0  0.15552576425E+02 -0.26672718135E+00 -0.81257638051E+01  0.17549410653E+02  0.00000000000E+00 0. -1.
<mgrwt>
<rscale>  0 0.14422651E+03</rscale>
<asrwt>0</asrwt>
<pdfrwt beam="2">  1        4 0.57503447E-01 0.15284031E+03</pdfrwt>
<pdfrwt beam="1">  1       -4 0.94059316E-02 0.15284031E+03</pdfrwt>
<totfact> 0.41496762E+02</totfact>
</mgrwt>
</event>
<event>
 7    1  0.8712071E-006  0.2542196E+03  0.7546771E-02  0.1112856E+00
         -1   -1    0    0    0  501 -0.00000000000E+00  0.00000000000E+00  0.39967212910E+02  0.39967212910E+02  0.00000000000E+00 0.  1.
          1   -1    0    0  501    0  0.00000000000E+00 -0.00000000000E+00 -0.19410197979E+04  0.19410197979E+04  0.00000000000E+00 0. -1.
         23    2    1    2    0    0  0.19536179026E+03  0.10409440365E+03 -0.51612247614E+03  0.57533471872E+03  0.12500301684E+03 0.  0.
          5    1    3    3  502    0  0.14937497995E+03  0.31482597768E+02 -0.22642632863E+03  0.27312087231E+03  0.47000000000E+01 0. -1.
         -5    1    3    3    0  502  0.45986810316E+02  0.72611805886E+02 -0.28969614751E+03  0.30221384641E+03  0.47000000000E+01 0. -1.
        -11    1    1    2    0    0 -0.15169184858E+03 -0.12059507543E+03 -0.11180439888E+04  0.11347140389E+04  0.00000000000E+00 0. -1.
         11    1    1    2    0    0 -0.43669941682E+02  0.16500671780E+02 -0.26688612004E+03  0.27093825320E+03  0.00000000000E+00 0.  1.
<mgrwt>
<rscale>  0 0.25071085E+03</rscale>
<asrwt>0</asrwt>
<pdfrwt beam="2">  1        1 0.29861838E+00 0.25421965E+03</pdfrwt>
<pdfrwt beam="1">  1       -1 0.61488029E-02 0.25421965E+03</pdfrwt>
<totfact> 0.47569153E+02</totfact>
</mgrwt>
</event>
<event>
 7    1  0.8712071E-006  0.1401068E+03  0.7546771E-02  0.1219461E+00
          1   -1    0    0  501    0  0.00000000000E+00  0.00000000000E+00  0.68464978927E+03  0.68464978927E+03  0.00000000000E+00 0. -1.
         -1   -1    0    0    0  501 -0.00000000000E+00 -0.00000000000E+00 -0.84650863118E+02  0.84650863118E+02  0.00000000000E+00 0.  1.
         23    2    1    2    0    0 -0.45257472425E+02 -0.63501981079E+02 -0.16165491617E+02  0.14103628978E+03  0.11640090852E+03 0.  0.
          5    1    3    3  502    0 -0.42006167630E+01  0.62607274049E+01  0.40919812880E+02  0.41873177273E+02  0.47000000000E+01 0. -1.
         -5    1    3    3    0  502 -0.41056855662E+02 -0.69762708484E+02 -0.57085304496E+02  0.99163112503E+02  0.47000000000E+01 0.  1.
        -11    1    1    2    0    0  0.55051748384E+02  0.83508329592E+02  0.52252786135E+03  0.53201475731E+03  0.00000000000E+00 0. -1.
         11    1    1    2    0    0 -0.97942759588E+01 -0.20006348514E+02  0.93636556422E+02  0.96249605303E+02  0.00000000000E+00 0.  1.
<mgrwt>
<rscale>  0 0.13553878E+03</rscale>
<asrwt>0</asrwt>
<pdfrwt beam="1">  1        1 0.10533073E+00 0.14010679E+03</pdfrwt>
<pdfrwt beam="2">  1       -1 0.13023210E-01 0.14010679E+03</pdfrwt>
<totfact> 0.11694362E+03</totfact>
</mgrwt>
</event>
<event>
 7    1  0.8712071E-006  0.1350843E+03  0.7546771E-02  0.1226868E+00
         -1   -1    0    0    0  501 -0.00000000000E+00  0.00000000000E+00  0.33040065493E+03  0.33040065493E+03  0.00000000000E+00 0.  1.
          1   -1    0    0  501    0  0.00000000000E+00 -0.00000000000E+00 -0.50109190432E+02  0.50109190432E+02  0.00000000000E+00 0. -1.
         23    2    1    2    0    0 -0.51225496744E+02  0.73271431964E+01  0.11253263348E+03  0.17581625382E+03  0.12477989808E+03 0.  0.
          5    1    3    3  502    0 -0.26872124650E+02  0.60754550866E+02  0.26777928930E+02  0.71780039091E+02  0.47000000000E+01 0. -1.
         -5    1    3    3    0  502 -0.24353372094E+02 -0.53427407670E+02  0.85754704550E+02  0.10403621473E+03  0.47000000000E+01 0. -1.
        -11    1    1    2    0    0  0.45143947774E+02  0.37258415755E+02  0.14019598925E+03  0.15192458974E+03  0.00000000000E+00 0.  1.
         11    1    1    2    0    0  0.60815489693E+01 -0.44585558952E+02  0.27562841765E+02  0.52769001801E+02  0.00000000000E+00 0. -1.
<mgrwt>
<rscale>  0 0.13039678E+03</rscale>
<asrwt>0</asrwt>
<pdfrwt beam="2">  1        1 0.77091064E-02 0.13508428E+03</pdfrwt>
<pdfrwt beam="1">  1       -1 0.50830869E-01 0.13508428E+03</pdfrwt>
<totfact> 0.35011659E+03</totfact>
</mgrwt>
</event>
<event>
 7    1  0.8712071E-006  0.1341354E+03  0.7546771E-02  0.1227221E+00
         -1   -1    0    0    0  501 -0.00000000000E+00  0.00000000000E+00  0.97417469000E+02  0.97417469000E+02  0.00000000000E+00 0.  1.
          1   -1    0    0  501    0  0.00000000000E+00 -0.00000000000E+00 -0.16617561592E+03  0.16617561592E+03  0.00000000000E+00 0. -1.
         23    2    1    2    0    0 -0.29703118341E+02  0.65476236122E+02 -0.50253421541E+02  0.14324004047E+03  0.11323820063E+03 0.  0.
          5    1    3    3  502    0 -0.63053845256E+02  0.46186033870E+02 -0.64954880711E+02  0.10173575406E+03  0.47000000000E+01 0. -1.
         -5    1    3    3    0  502  0.33350726915E+02  0.19290202252E+02  0.14701459170E+02  0.41504286410E+02  0.47000000000E+01 0.  1.
        -11    1    1    2    0    0  0.56927072584E+02 -0.14106629948E+02 -0.20644094556E+02  0.62176098636E+02  0.00000000000E+00 0. -1.
         11    1    1    2    0    0 -0.27223954244E+02 -0.51369606173E+02  0.21393691817E+01  0.58176945808E+02  0.00000000000E+00 0.  1.
<mgrwt>
<rscale>  0 0.13015865E+03</rscale>
<asrwt>0</asrwt>
<pdfrwt beam="2">  1        1 0.25565479E-01 0.13413539E+03</pdfrwt>
<pdfrwt beam="1">  1       -1 0.14987303E-01 0.13413539E+03</pdfrwt>
<totfact> 0.56968525E+03</totfact>
</mgrwt>
</event>
<event>
 7    1  0.8712071E-006  0.1330372E+03  0.7546771E-02  0.1236221E+00
         -2   -1    0    0    0  501 -0.00000000000E+00  0.00000000000E+00  0.10872601222E+03  0.10872601222E+03  0.00000000000E+00 0.  1.
          2   -1    0    0  501    0  0.00000000000E+00 -0.00000000000E+00 -0.12654840425E+03  0.12654840425E+03  0.00000000000E+00 0. -1.
         23    2    1    2    0    0  0.45472006330E+02  0.20452022021E+01 -0.15899039164E+02  0.13398391007E+03  0.12500808974E+03 0.  0.
          5    1    3    3  502    0 -0.30604539892E+02  0.30983946874E+02  0.15717695295E+02  0.46537928309E+02  0.47000000000E+01 0.  1.
         -5    1    3    3    0  502  0.76076546222E+02 -0.28938744672E+02 -0.31616734459E+02  0.87445981761E+02  0.47000000000E+01 0.  1.
        -11    1    1    2    0    0 -0.43406107742E+02  0.37058973726E+02 -0.16651578905E+02  0.59453618923E+02  0.00000000000E+00 0.  1.
         11    1    1    2    0    0 -0.20658985880E+01 -0.39104175928E+02  0.14728226039E+02  0.41836887483E+02  0.00000000000E+00 0. -1.
<mgrwt>
<rscale>  0 0.12426606E+03</rscale>
<asrwt>0</asrwt>
<pdfrwt beam="2">  1        2 0.19468985E-01 0.13303725E+03</pdfrwt>
<pdfrwt beam="1">  1       -2 0.16727079E-01 0.13303725E+03</pdfrwt>
<totfact> 0.77120886E+03</totfact>
</mgrwt>
</event>
<event>
 7    1  0.8712071E-006  0.1370830E+03  0.7546771E-02  0.1228566E+00
          2   -1    0    0  501    0  0.00000000000E+00  0.00000000000E+00  0.43442201379E+03  0.43442201379E+03  0.00000000000E+00 0. -1.
         -2   -1    0    0    0  501 -0.00000000000E+00 -0.00000000000E+00 -0.39485685388E+02  0.39485685388E+02  0.00000000000E+00 0.  1.
         23    2    1    2    0    0 -0.56243744463E+02  0.54054023779E+00  0.13547303752E+03  0.19272960832E+03  0.12501242759E+03 0.  0.
          5    1    3    3  502    0 -0.55253682262E+01  0.58644040409E+02  0.68600648755E+02  0.90541659910E+02  0.47000000000E+01 0.  1.
         -5    1    3    3    0  502 -0.50718376237E+02 -0.58103500171E+02  0.66872388766E+02  0.10218794841E+03  0.47000000000E+01 0.  1.
        -11    1    1    2    0    0 -0.17816353319E+02  0.23867973591E+02  0.59240413616E+02  0.66306328615E+02  0.00000000000E+00 0.  1.
         11    1    1    2    0    0  0.74060097783E+02 -0.24408513829E+02  0.20022287726E+03  0.21487176224E+03  0.00000000000E+00 0. -1.
<mgrwt>
<rscale>  0 0.12925457E+03</rscale>
<asrwt>0</asrwt>
<pdfrwt beam="1">  1        2 0.66834153E-01 0.13708303E+03</pdfrwt>
<pdfrwt beam="2">  1       -2 0.60747211E-02 0.13708303E+03</pdfrwt>
<totfact> 0.10061591E+04</totfact>
</mgrwt>
</event>
<event>
 7    1  0.8712071E-006  0.2144818E+03  0.7546771E-02  0.1141632E+00
         -2   -1    0    0    0  501 -0.00000000000E+00  0.00000000000E+00  0.12480865444E+03  0.12480865444E+03  0.00000000000E+00 0.  1.
          2   -1    0    0  501    0  0.00000000000E+00 -0.00000000000E+00 -0.34884472266E+03  0.34884472266E+03  0.00000000000E+00 0. -1.
         23    2    1    2    0    0 -0.17227732547E+03 -0.26404771920E+02 -0.76581432181E+02  0.22774358866E+03  0.12500295025E+03 0.  0.
          5    1    3    3  502    0 -0.13472777628E+03 -0.26934733649E+02 -0.11091922779E+03  0.17664149760E+03  0.47000000000E+01 0.  1.
         -5    1    3    3    0  502 -0.37549549187E+02  0.52996172927E+00  0.34337795613E+02  0.51102091064E+02  0.47000000000E+01 0.  1.
        -11    1    1    2    0    0  0.65184611859E+02 -0.13296681802E+02 -0.10451067100E+03  0.12388831956E+03  0.00000000000E+00 0. -1.
         11    1    1    2    0    0  0.10709271361E+03  0.39701453721E+02 -0.42943965045E+02  0.12202146889E+03  0.00000000000E+00 0.  1.
<mgrwt>
<rscale>  0 0.20991669E+03</rscale>
<asrwt>0</asrwt>
<pdfrwt beam="2">  1        2 0.53668418E-01 0.21448176E+03</pdfrwt>
<pdfrwt beam="1">  1       -2 0.19201332E-01 0.21448176E+03</pdfrwt>
<totfact> 0.20736204E+03</totfact>
</mgrwt>
</event>
<event>
 7    1  0.8712071E-006  0.1680334E+03  0.7546771E-02  0.1187336E+00
         -4   -1    0    0    0  501 -0.00000000000E+00  0.00000000000E+00  0.80095406134E+03  0.80095406134E+03  0.00000000000E+00 0.  1.
          4   -1    0    0  501    0  0.00000000000E+00 -0.00000000000E+00 -0.56348728911E+02  0.56348728911E+02  0.00000000000E+00 0. -1.
         23    2    1    2    0    0 -0.98119526221E+02  0.54554026750E+02  0.68091858904E+03  0.70134538125E+03  0.12502653973E+03 0.  0.
          5    1    3    3  502    0  0.25949865712E+02 -0.38970749227E+01  0.18024833989E+03  0.18220904685E+03  0.47000000000E+01 0. -1.
         -5    1    3    3    0  502 -0.12406939193E+03  0.58451101672E+02  0.50067024915E+03  0.51913633439E+03  0.47000000000E+01 0. -1.
        -11    1    1    2    0    0  0.52385261588E+02 -0.84495335076E+01 -0.13828278429E+02  0.54834583362E+02  0.00000000000E+00 0. -1.
         11    1    1    2    0    0  0.45734264633E+02 -0.46104493242E+02  0.77515021823E+02  0.10112282565E+03  0.00000000000E+00 0.  1.
<mgrwt>
<rscale>  0 0.16121097E+03</rscale>
<asrwt>0</asrwt>
<pdfrwt beam="2">  1        4 0.86690357E-02 0.16803339E+03</pdfrwt>
<pdfrwt beam="1">  1       -4 0.12322369E+00 0.16803339E+03</pdfrwt>
<totfact> 0.87143570E+01</totfact>
</mgrwt>
</event>
<event>
 7    1  0.8712071E-006  0.1520864E+03  0.7546771E-02  0.1207032E+00
         -2   -1    0    0    0  501 -0.00000000000E+00  0.00000000000E+00  0.24406877992E+02  0.24406877992E+02  0.00000000000E+00 0.  1.
          2   -1    0    0  501    0  0.00000000000E+00 -0.00000000000E+00 -0.93693847877E+03  0.93693847877E+03  0.00000000000E+00 0. -1.
         23    2    1    2    0    0  0.86336383651E+02  0.71450337908E+01 -0.30162835356E+03  0.33780160394E+03  0.12500094921E+03 0.  0.
          5    1    3    3  502    0 -0.25971405540E+02  0.88400317657E+01 -0.19178821498E+02  0.33802030433E+02  0.47000000000E+01 0. -1.
         -5    1    3    3    0  502  0.11230778919E+03 -0.16949979749E+01 -0.28244953206E+03  0.30399957351E+03  0.47000000000E+01 0. -1.
        -11    1    1    2    0    0  0.16996576718E+02 -0.12701771178E+02 -0.90867263547E+02  0.93311725929E+02  0.00000000000E+00 0.  1.
         11    1    1    2    0    0 -0.10333296037E+03  0.55567373874E+01 -0.52003598367E+03  0.53023202690E+03  0.00000000000E+00 0. -1.
<mgrwt>
<rscale>  0 0.14478458E+03</rscale>
<asrwt>0</asrwt>
<pdfrwt beam="2">  1        2 0.14414438E+00 0.15208636E+03</pdfrwt>
<pdfrwt beam="1">  1       -2 0.37549042E-02 0.15208636E+03</pdfrwt>
<totfact> 0.84497875E+03</totfact>
</mgrwt>
</event>
<event>
 7    1  0.8712071E-006  0.1331935E+03  0.7546771E-02  0.1237205E+00
          1   -1    0    0  501    0  0.00000000000E+00  0.00000000000E+00  0.10858202178E+03  0.10858202178E+03  0.00000000000E+00 0. -1.
         -1   -1    0    0    0  501 -0.00000000000E+00 -0.00000000000E+00 -0.12553472906E+03  0.12553472906E+03  0.00000000000E+00 0.  1.
         23    2    1    2    0    0 -0.43674403592E+02  0.14391862121E+02 -0.22373081785E+02  0.13505952161E+03  0.12500376140E+03 0.  0.
          5    1    3    3  502    0 -0.73385664165E+02  0.28715357598E+00  0.24584537906E+02  0.77537266306E+02  0.47000000000E+01 0.  1.
         -5    1    3    3    0  502  0.29711260573E+02  0.14104708545E+02 -0.46957619691E+02  0.57522255302E+02  0.47000000000E+01 0.  1.
        -11    1    1    2    0    0  0.47351173749E+02 -0.31613960551E+02  0.33391416655E+02  0.66004263979E+02  0.00000000000E+00 0. -1.
         11    1    1    2    0    0 -0.36767701567E+01  0.17222098430E+02 -0.27971042146E+02  0.33052965250E+02  0.00000000000E+00 0.  1.
<mgrwt>
<rscale>  0 0.12364345E+03</rscale>
<asrwt>0</asrwt>
<pdfrwt beam="1">  1        1 0.16704926E-01 0.13319354E+03</pdfrwt>
<pdfrwt beam="2">  1       -1 0.19313035E-01 0.13319354E+03</pdfrwt>
<totfact> 0.65402229E+03</totfact>
</mgrwt>
</event>
<event>
 7    1  0.8712071E-006  0.2353859E+03  0.7546771E-02  0.1125684E+00
         -2   -1    0    0    0  501 -0.00000000000E+00  0.00000000000E+00  0.57973074171E+02  0.57973074171E+02  0.00000000000E+00 0. -1.
          2   -1    0    0  501    0  0.00000000000E+00 -0.00000000000E+00 -0.91492845872E+03  0.91492845872E+03  0.00000000000E+00 0.  1.
         23    2    1    2    0    0  0.10871795328E+03 -0.16722318427E+03 -0.36781873756E+03  0.43668884835E+03  0.12499335925E+03 0.  0.
          5    1    3    3  502    0  0.48925670351E+01 -0.89289917723E+02 -0.76714450644E+02  0.11791447560E+03  0.47000000000E+01 0.  1.
         -5    1    3    3    0  502  0.10382538624E+03 -0.77933266544E+02 -0.29110428691E+03  0.31877437275E+03  0.47000000000E+01 0.  1.
        -11    1    1    2    0    0 -0.66070112653E+02  0.12035940304E+03 -0.21694270161E+03  0.25674068915E+03  0.00000000000E+00 0. -1.
         11    1    1    2    0    0 -0.42647840625E+02  0.46863781228E+02 -0.27219394539E+03  0.27947199539E+03  0.00000000000E+00 0.  1.
<mgrwt>
<rscale>  0 0.23136322E+03</rscale>
<asrwt>0</asrwt>
<pdfrwt beam="2">  1        2 0.14075821E+00 0.23538591E+03</pdfrwt>
<pdfrwt beam="1">  1       -2 0.89189351E-02 0.23538591E+03</pdfrwt>
<totfact> 0.23588084E+03</totfact>
</mgrwt>
</event>
<event>
 7    1  0.8712071E-006  0.1256259E+03  0.7546771E-02  0.1248201E+00
          4   -1    0    0  501    0  0.00000000000E+00  0.00000000000E+00  0.29688026367E+03  0.29688026367E+03  0.00000000000E+00 0. -1.
         -4   -1    0    0    0  501 -0.00000000000E+00 -0.00000000000E+00 -0.45601629990E+02  0.45601629990E+02  0.00000000000E+00 0.  1.
         23    2    1    2    0    0  0.28529543908E+01 -0.12211245238E+02  0.86296042410E+02  0.15241017857E+03  0.12499840694E+03 0.  0.
          5    1    3    3  502    0  0.41649285368E+02  0.39551198126E+02  0.23826143574E+02  0.62359725484E+02  0.47000000000E+01 0. -1.
         -5    1    3    3    0  502 -0.38796330977E+02 -0.51762443364E+02  0.62469898836E+02  0.90050453085E+02  0.47000000000E+01 0. -1.
        -11    1    1    2    0    0  0.30502623196E+02  0.68560473568E+01  0.12136439705E+02  0.33536675087E+02  0.00000000000E+00 0.  1.
         11    1    1    2    0    0 -0.33355577587E+02  0.53551978812E+01  0.15284615156E+03  0.15653504000E+03  0.00000000000E+00 0. -1.
<mgrwt>
<rscale>  0 0.11695851E+03</rscale>
<asrwt>0</asrwt>
<pdfrwt beam="1">  1        4 0.45673886E-01 0.12562586E+03</pdfrwt>
<pdfrwt beam="2">  1       -4 0.70156356E-02 0.12562586E+03</pdfrwt>
<totfact> 0.10400557E+03</totfact>
</mgrwt>
</event>
<event>
 7    1  0.8712071E-006  0.1223514E+03  0.7546771E-02  0.1247523E+00
          3   -1    0    0  501    0  0.00000000000E+00  0.00000000000E+00  0.57123801242E+02  0.57123801242E+02  0.00000000000E+00 0. -1.
         -3   -1    0    0    0  501 -0.00000000000E+00 -0.00000000000E+00 -0.28306642214E+03  0.28306642214E+03  0.00000000000E+00 0.  1.
         23    2    1    2    0    0 -0.37467580478E+02  0.32669050964E+02 -0.19829250161E+03  0.23300168675E+03  0.11179795775E+03 0.  0.
          5    1    3    3  502    0 -0.45960272955E+02 -0.84326447987E+01 -0.22255621776E+02  0.51969788234E+02  0.47000000000E+01 0. -1.
         -5    1    3    3    0  502  0.84926924769E+01  0.41101695763E+02 -0.17603687983E+03  0.18103189852E+03  0.47000000000E+01 0.  1.
        -11    1    1    2    0    0 -0.21217021750E+02 -0.31244059197E+01  0.17323182444E+02  0.27568398108E+02  0.00000000000E+00 0. -1.
         11    1    1    2    0    0  0.58684602228E+02 -0.29544645045E+02 -0.44973301733E+02  0.79620138522E+02  0.00000000000E+00 0.  1.
<mgrwt>
<rscale>  0 0.11735610E+03</rscale>
<asrwt>0</asrwt>
<pdfrwt beam="1">  1        3 0.87882771E-02 0.12235142E+03</pdfrwt>
<pdfrwt beam="2">  1       -3 0.43548680E-01 0.12235142E+03</pdfrwt>
<totfact> 0.10889297E+03</totfact>
</mgrwt>
</event>
<event>
 7    1  0.8712071E-006  0.2119481E+03  0.7546771E-02  0.1143547E+00
         -2   -1    0    0    0  501 -0.00000000000E+00  0.00000000000E+00  0.94967886800E+03  0.94967886800E+03  0.00000000000E+00 0.  1.
          2   -1    0    0  501    0  0.00000000000E+00 -0.00000000000E+00 -0.10741054199E+03  0.10741054199E+03  0.00000000000E+00 0. -1.
         23    2    1    2    0    0  0.13085875726E+03  0.11031848781E+03  0.83574912513E+03  0.86220566069E+03  0.12501127176E+03 0.  0.
          5    1    3    3  502    0  0.44086045781E+02  0.87371048502E+02  0.63150675769E+03  0.63906193327E+03  0.47000000000E+01 0. -1.
         -5    1    3    3    0  502  0.86772711482E+02  0.22947439308E+02  0.20424236744E+03  0.22314372742E+03  0.47000000000E+01 0. -1.
        -11    1    1    2    0    0 -0.95544024950E+02 -0.48828022364E+02  0.42450270328E+02  0.11539004256E+03  0.00000000000E+00 0.  1.
         11    1    1    2    0    0 -0.35314732313E+02 -0.61490465445E+02 -0.35931069447E+02  0.79493706736E+02  0.00000000000E+00 0. -1.
<mgrwt>
<rscale>  0 0.20751777E+03</rscale>
<asrwt>0</asrwt>
<pdfrwt beam="2">  1        2 0.16524699E-01 0.21194811E+03</pdfrwt>
<pdfrwt beam="1">  1       -2 0.14610444E+00 0.21194811E+03</pdfrwt>
<totfact> 0.11864671E+02</totfact>
</mgrwt>
</event>
<event>
 7    1  0.8712071E-006  0.1402418E+03  0.7546771E-02  0.1222612E+00
         -3   -1    0    0    0  501 -0.00000000000E+00  0.00000000000E+00  0.41393399887E+03  0.41393399887E+03  0.00000000000E+00 0.  1.
          3   -1    0    0  501    0  0.00000000000E+00 -0.00000000000E+00 -0.39968295554E+02  0.39968295554E+02  0.00000000000E+00 0. -1.
         23    2    1    2    0    0  0.11124722333E+02  0.62604887089E+02  0.23671168559E+03  0.27513665832E+03  0.12499850927E+03 0.  0.
          5    1    3    3  502    0 -0.46513538990E+02  0.18427489886E+02  0.16686802370E+03  0.17427021842E+03  0.47000000000E+01 0. -1.
         -5    1    3    3    0  502  0.57638261323E+02  0.44177397203E+02  0.69843661888E+02  0.10086643990E+03  0.47000000000E+01 0. -1.
        -11    1    1    2    0    0  0.11934367081E+02 -0.54394462083E+02  0.20292509563E+02  0.59270334631E+02  0.00000000000E+00 0. -1.
         11    1    1    2    0    0 -0.23059089414E+02 -0.82104250055E+01  0.11696150816E+03  0.11949530147E+03  0.00000000000E+00 0.  1.
<mgrwt>
<rscale>  0 0.13331946E+03</rscale>
<asrwt>0</asrwt>
<pdfrwt beam="2">  1        3 0.61489688E-02 0.14024179E+03</pdfrwt>
<pdfrwt beam="1">  1       -3 0.63682151E-01 0.14024179E+03</pdfrwt>
<totfact> 0.92277042E+02</totfact>
</mgrwt>
</event>
<event>
 7    1  0.8712071E-006  0.1407858E+03  0.7546771E-02  0.1223133E+00
         -1   -1    0    0    0  501 -0.00000000000E+00  0.00000000000E+00  0.81920688285E+02  0.81920688285E+02  0.00000000000E+00 0.  1.
          1   -1    0    0  501    0  0.00000000000E+00 -0.00000000000E+00 -0.30026148985E+03  0.30026148985E+03  0.00000000000E+00 0. -1.
         23    2    1    2    0    0  0.40369177172E+02  0.50616935984E+02 -0.45765773528E+01  0.14086020223E+03  0.12501562638E+03 0.  0.
          5    1    3    3  502    0  0.43777463373E+01  0.73621348352E+02  0.35602321181E+02  0.82029768192E+02  0.47000000000E+01 0. -1.
         -5    1    3    3    0  502  0.35991430835E+02 -0.23004412368E+02 -0.40178898534E+02  0.58830434040E+02  0.47000000000E+01 0. -1.
        -11    1    1    2    0    0 -0.57929285185E+02 -0.14061141542E+02 -0.17632095903E+03  0.18612522230E+03  0.00000000000E+00 0. -1.
         11    1    1    2    0    0  0.17560108013E+02 -0.36555794443E+02 -0.37443265189E+02  0.55196753607E+02  0.00000000000E+00 0.  1.
<mgrwt>
<rscale>  0 0.13295706E+03</rscale>
<asrwt>0</asrwt>
<pdfrwt beam="2">  1        1 0.46194076E-01 0.14078584E+03</pdfrwt>
<pdfrwt beam="1">  1       -1 0.12603183E-01 0.14078584E+03</pdfrwt>
<totfact> 0.35897856E+03</totfact>
</mgrwt>
</event>
<event>
 7    1  0.8712071E-006  0.1661575E+03  0.7546771E-02  0.1188711E+00
          2   -1    0    0  501    0  0.00000000000E+00  0.00000000000E+00  0.11962974226E+04  0.11962974226E+04  0.00000000000E+00 0. -1.
         -2   -1    0    0    0  501 -0.00000000000E+00 -0.00000000000E+00 -0.20280202780E+02  0.20280202780E+02  0.00000000000E+00 0.  1.
         23    2    1    2    0    0 -0.10639535515E+03  0.25704334928E+02  0.70907423898E+03  0.72828195007E+03  0.12501055148E+03 0.  0.
          5    1    3    3  502    0 -0.88282768041E+02  0.17898761840E+02  0.20700921825E+03  0.22580770414E+03  0.47000000000E+01 0. -1.
         -5    1    3    3    0  502 -0.18112587105E+02  0.78055730889E+01  0.50206502072E+03  0.50247424592E+03  0.47000000000E+01 0. -1.
        -11    1    1    2    0    0  0.40769040387E+02  0.26261222007E+02  0.90674499610E+02  0.10282816402E+03  0.00000000000E+00 0.  1.
         11    1    1    2    0    0  0.65626314759E+02 -0.51965556936E+02  0.37626848124E+03  0.38546751131E+03  0.00000000000E+00 0. -1.
<mgrwt>
<rscale>  0 0.15998733E+03</rscale>
<asrwt>0</asrwt>
<pdfrwt beam="1">  1        2 0.18404570E+00 0.16615752E+03</pdfrwt>
<pdfrwt beam="2">  1       -2 0.31200321E-02 0.16615752E+03</pdfrwt>
<totfact> 0.78683747E+03</totfact>
</mgrwt>
</event>
<event>
 7    1  0.8712071E-006  0.1629462E+03  0.7546771E-02  0.1191774E+00
         -1   -1    0    0    0  501 -0.00000000000E+00  0.00000000000E+00  0.37371710668E+02  0.37371710668E+02  0.00000000000E+00 0.  1.
          1   -1    0    0  501    0  0.00000000000E+00 -0.00000000000E+00 -0.62031260454E+03  0.62031260454E+03  0.00000000000E+00 0. -1.
         23    2    1    2    0    0 -0.41157674982E+02  0.96085792843E+02 -0.30637077689E+03  0.34700796535E+03  0.12500016517E+03 0.  0.
          5    1    3    3  502    0  0.17829941101E+02  0.22618182715E+02 -0.30318289551E+01  0.29338898681E+02  0.47000000000E+01 0. -1.
         -5    1    3    3    0  502 -0.58987616083E+02  0.73467610128E+02 -0.30333894793E+03  0.31766906667E+03  0.47000000000E+01 0. -1.
        -11    1    1    2    0    0 -0.13395643489E+01 -0.77698521549E+02 -0.92200953985E+02  0.12058138579E+03  0.00000000000E+00 0. -1.
         11    1    1    2    0    0  0.42497239331E+02 -0.18387271294E+02 -0.18436916300E+03  0.19009496406E+03  0.00000000000E+00 0.  1.
<mgrwt>
<rscale>  0 0.15730409E+03</rscale>
<asrwt>0</asrwt>
<pdfrwt beam="2">  1        1 0.95432697E-01 0.16294623E+03</pdfrwt>
<pdfrwt beam="1">  1       -1 0.57494947E-02 0.16294623E+03</pdfrwt>
<totfact> 0.46725158E+03</totfact>
</mgrwt>
</event>
<event>
 7    1  0.8712071E-006  0.1302542E+03  0.7546771E-02  0.1242551E+00
          2   -1    0    0  501    0  0.00000000000E+00  0.00000000000E+00  0.53566578573E+02  0.53566578573E+02  0.00000000000E+00 0.  1.
         -2   -1    0    0    0  501 -0.00000000000E+00 -0.00000000000E+00 -0.23914796553E+03  0.23914796553E+03  0.00000000000E+00 0. -1.
         23    2    1    2    0    0 -0.66436226144E-02 -0.36611350720E+02 -0.12231930639E+03  0.17868457588E+03  0.12500309555E+03 0.  0.
          5    1    3    3  502    0 -0.45511413335E+02 -0.58068535137E+02 -0.45728793358E+02  0.86927878489E+02  0.47000000000E+01 0. -1.
         -5    1    3    3    0  502  0.45504769712E+02  0.21457184418E+02 -0.76590513037E+02  0.91756697395E+02  0.47000000000E+01 0. -1.
        -11    1    1    2    0    0 -0.20109404593E+02  0.35352804033E+01  0.15920119471E+02  0.25890858706E+02  0.00000000000E+00 0.  1.
         11    1    1    2    0    0  0.20116048215E+02  0.33076070317E+02 -0.79182200029E+02  0.88139109507E+02  0.00000000000E+00 0. -1.
<mgrwt>
<rscale>  0 0.12033132E+03</rscale>
<asrwt>0</asrwt>
<pdfrwt beam="1">  1        2 0.82410122E-02 0.13025423E+03</pdfrwt>
<pdfrwt beam="2">  1       -2 0.36791994E-01 0.13025423E+03</pdfrwt>
<totfact> 0.54130119E+03</totfact>
</mgrwt>
</event>
<event>
 7    1  0.8712071E-006  0.1347806E+03  0.7546771E-02  0.1239693E+00
          1   -1    0    0  501    0  0.00000000000E+00  0.00000000000E+00  0.47836343411E+03  0.47836343411E+03  0.00000000000E+00 0. -1.
         -1   -1    0    0    0  501 -0.00000000000E+00 -0.00000000000E+00 -0.27442427857E+02  0.27442427857E+02  0.00000000000E+00 0.  1.
         23    2    1    2    0    0 -0.46339557438E+02 -0.19751383607E+02  0.22410305680E+03  0.26151097164E+03  0.12501334521E+03 0.  0.
          5    1    3    3  502    0 -0.67816585865E+01  0.45817545395E+02  0.37594119660E+02  0.59838500919E+02  0.47000000000E+01 0. -1.
         -5    1    3    3    0  502 -0.39557898851E+02 -0.65568929003E+02  0.18650893714E+03  0.20167247072E+03  0.47000000000E+01 0. -1.
        -11    1    1    2    0    0  0.43581251610E+02  0.42482413347E+02  0.11453531661E+03  0.12970127095E+03  0.00000000000E+00 0.  1.
         11    1    1    2    0    0  0.27583058274E+01 -0.22731029739E+02  0.11228263285E+03  0.11459361938E+03  0.00000000000E+00 0. -1.
<mgrwt>
<rscale>  0 0.12208697E+03</rscale>
<asrwt>0</asrwt>
<pdfrwt beam="1">  1        1 0.73594368E-01 0.13478059E+03</pdfrwt>
<pdfrwt beam="2">  1       -1 0.42219123E-02 0.13478059E+03</pdfrwt>
<totfact> 0.10331830E+04</totfact>
</mgrwt>
</event>
<event>
 7    1  0.8712071E-006  0.1362690E+03  0.7546771E-02  0.1230318E+00
          2   -1    0    0  501    0  0.00000000000E+00  0.00000000000E+00  0.34939380318E+03  0.34939380318E+03  0.00000000000E+00 0. -1.
         -2   -1    0    0    0  501 -0.00000000000E+00 -0.00000000000E+00 -0.47932705208E+02  0.47932705208E+02  0.00000000000E+00 0.  1.
         23    2    1    2    0    0 -0.51899709265E+02  0.15751993015E+02  0.98386980702E+02  0.16807508962E+03  0.12501013029E+03 0.  0.
          5    1    3    3  502    0  0.12858286878E+02  0.56681190159E+02  0.31542931947E+02  0.66295847646E+02  0.47000000000E+01 0. -1.
         -5    1    3    3    0  502 -0.64757996143E+02 -0.40929197145E+02  0.66844048755E+02  0.10177924198E+03  0.47000000000E+01 0. -1.
        -11    1    1    2    0    0  0.26511489830E+01  0.31999933782E+02  0.33872255615E+02  0.46672840640E+02  0.00000000000E+00 0.  1.
         11    1    1    2    0    0  0.49248560282E+02 -0.47751926797E+02  0.16920186166E+03  0.18257857813E+03  0.00000000000E+00 0. -1.
<mgrwt>
<rscale>  0 0.12808986E+03</rscale>
<asrwt>0</asrwt>
<pdfrwt beam="1">  1        2 0.53752891E-01 0.13626899E+03</pdfrwt>
<pdfrwt beam="2">  1       -2 0.73742626E-02 0.13626899E+03</pdfrwt>
<totfact> 0.94407103E+03</totfact>
</mgrwt>
</event>
<event>
 7    1  0.8712071E-006  0.1394886E+03  0.7546771E-02  0.1221056E+00
          1   -1    0    0  501    0  0.00000000000E+00  0.00000000000E+00  0.46961753707E+03  0.46961753707E+03  0.00000000000E+00 0. -1.
         -1   -1    0    0    0  501 -0.00000000000E+00 -0.00000000000E+00 -0.57926240522E+02  0.57926240522E+02  0.00000000000E+00 0.  1.
         23    2    1    2    0    0 -0.22385598269E+02  0.82673714002E+02  0.52979078006E+02  0.14921080201E+03  0.11009551641E+03 0.  0.
          5    1    3    3  502    0 -0.55734881947E+02  0.58117600340E+02  0.67392119073E+02  0.10510861167E+03  0.47000000000E+01 0. -1.
         -5    1    3    3    0  502  0.33349283678E+02  0.24556113662E+02 -0.14413041067E+02  0.44102190340E+02  0.47000000000E+01 0.  1.
        -11    1    1    2    0    0 -0.23276313725E+02 -0.81290445202E+01  0.33613621361E+02  0.41686252967E+02  0.00000000000E+00 0. -1.
         11    1    1    2    0    0  0.45661911995E+02 -0.74544669482E+02  0.32509859718E+03  0.33664672261E+03  0.00000000000E+00 0.  1.
<mgrwt>
<rscale>  0 0.13440962E+03</rscale>
<asrwt>0</asrwt>
<pdfrwt beam="1">  1        1 0.72248849E-01 0.13948864E+03</pdfrwt>
<pdfrwt beam="2">  1       -1 0.89117296E-02 0.13948864E+03</pdfrwt>
<totfact> 0.34770362E+03</totfact>
</mgrwt>
</event>
<event>
 7    1  0.8712071E-006  0.1455472E+03  0.7546771E-02  0.1216512E+00
          3   -1    0    0  501    0  0.00000000000E+00  0.00000000000E+00  0.13225296323E+03  0.13225296323E+03  0.00000000000E+00 0. -1.
         -3   -1    0    0    0  501 -0.00000000000E+00 -0.00000000000E+00 -0.17427301458E+03  0.17427301458E+03  0.00000000000E+00 0.  1.
         23    2    1    2    0    0  0.53813139736E+02 -0.51614610988E+02 -0.99830821728E+02  0.17649413592E+03  0.12499625983E+03 0.  0.
          5    1    3    3  502    0  0.26611226386E+02 -0.90710369401E+02 -0.48643532729E+02  0.10641809885E+03  0.47000000000E+01 0. -1.
         -5    1    3    3    0  502  0.27201913350E+02  0.39095758413E+02 -0.51187288998E+02  0.70076037065E+02  0.47000000000E+01 0. -1.
        -11    1    1    2    0    0 -0.53162792432E+02 -0.81769956361E+01  0.13075312057E+02  0.55354399484E+02  0.00000000000E+00 0. -1.
         11    1    1    2    0    0 -0.65034730323E+00  0.59791606624E+02  0.44735458320E+02  0.74677442413E+02  0.00000000000E+00 0.  1.
<mgrwt>
<rscale>  0 0.13766075E+03</rscale>
<asrwt>0</asrwt>
<pdfrwt beam="1">  1        3 0.20346610E-01 0.14554720E+03</pdfrwt>
<pdfrwt beam="2">  1       -3 0.26811233E-01 0.14554720E+03</pdfrwt>
<totfact> 0.67255230E+02</totfact>
</mgrwt>
</event>
<event>
 7    1  0.8712071E-006  0.1374097E+03  0.7546771E-02  0.1223350E+00
          2   -1    0    0  501    0  0.00000000000E+00  0.00000000000E+00  0.12488610589E+04  0.12488610589E+04  0.00000000000E+00 0. -1.
         -2   -1    0    0    0  501 -0.00000000000E+00 -0.00000000000E+00 -0.13261640137E+02  0.13261640137E+02  0.00000000000E+00 0.  1.
         23    2    1    2    0    0 -0.61616418516E+02  0.45672275463E+02  0.67518516706E+03  0.68902571166E+03  0.11401263844E+03 0.  0.
          5    1    3    3  502    0 -0.77661974769E+02  0.70808008787E+02  0.56848842185E+03  0.57814040873E+03  0.47000000000E+01 0. -1.
         -5    1    3    3    0  502  0.16045556253E+02 -0.25135733324E+02  0.10669674522E+03  0.11088530293E+03  0.47000000000E+01 0.  1.
        -11    1    1    2    0    0 -0.14336349282E+02  0.14965572407E+02  0.64459560566E+02  0.67709188568E+02  0.00000000000E+00 0. -1.
         11    1    1    2    0    0  0.75952767798E+02 -0.60637847870E+02  0.49595469113E+03  0.50538779881E+03  0.00000000000E+00 0.  1.
<mgrwt>
<rscale>  0 0.13280605E+03</rscale>
<asrwt>0</asrwt>
<pdfrwt beam="1">  1        2 0.19213238E+00 0.13740968E+03</pdfrwt>
<pdfrwt beam="2">  1       -2 0.20402533E-02 0.13740968E+03</pdfrwt>
<totfact> 0.13591415E+04</totfact>
</mgrwt>
</event>
<event>
 7    1  0.8712071E-006  0.2041634E+03  0.7546771E-02  0.1150690E+00
          2   -1    0    0  501    0  0.00000000000E+00  0.00000000000E+00  0.61759779734E+02  0.61759779734E+02  0.00000000000E+00 0. -1.
         -2   -1    0    0    0  501 -0.00000000000E+00 -0.00000000000E+00 -0.62706765459E+03  0.62706765459E+03  0.00000000000E+00 0.  1.
         23    2    1    2    0    0 -0.77627799351E+02 -0.14154057654E+03 -0.35485002807E+03  0.40939129009E+03  0.12499150344E+03 0.  0.
          5    1    3    3  502    0 -0.76144987703E+02 -0.13832437991E+03 -0.20202264739E+03  0.25645064493E+03  0.47000000000E+01 0. -1.
         -5    1    3    3    0  502 -0.14828116482E+01 -0.32161966323E+01 -0.15282738069E+03  0.15294064515E+03  0.47000000000E+01 0. -1.
        -11    1    1    2    0    0 -0.55110596948E+01  0.46252413348E+02 -0.10465941618E+03  0.11455675848E+03  0.00000000000E+00 0.  1.
         11    1    1    2    0    0  0.83138859046E+02  0.95288163195E+02 -0.10579843060E+03  0.16487938575E+03  0.00000000000E+00 0. -1.
<mgrwt>
<rscale>  0 0.19887730E+03</rscale>
<asrwt>0</asrwt>
<pdfrwt beam="1">  1        2 0.95015048E-02 0.20416338E+03</pdfrwt>
<pdfrwt beam="2">  1       -2 0.96471945E-01 0.20416338E+03</pdfrwt>
<totfact> 0.63289934E+02</totfact>
</mgrwt>
</event>
<event>
 7    1  0.8712071E-006  0.1357992E+03  0.7546771E-02  0.1230281E+00
         -1   -1    0    0    0  501 -0.00000000000E+00  0.00000000000E+00  0.36849403682E+03  0.36849403682E+03  0.00000000000E+00 0.  1.
          1   -1    0    0  501    0  0.00000000000E+00 -0.00000000000E+00 -0.46693444052E+02  0.46693444052E+02  0.00000000000E+00 0. -1.
         23    2    1    2    0    0  0.19909350522E+02  0.49195299303E+02  0.25402293992E+03  0.28804353102E+03  0.12499944817E+03 0.  0.
          5    1    3    3  502    0 -0.79817101388E+01  0.44016228721E+02  0.15175231118E+02  0.47471188389E+02  0.47000000000E+01 0. -1.
         -5    1    3    3    0  502  0.27891060661E+02  0.51790705827E+01  0.23884770880E+03  0.24057234263E+03  0.47000000000E+01 0. -1.
        -11    1    1    2    0    0 -0.43503066206E+02 -0.95403942501E+01 -0.73330742643E+00  0.44542941434E+02  0.00000000000E+00 0. -1.
         11    1    1    2    0    0  0.23593715685E+02 -0.39654905053E+02  0.68510960271E+02  0.82601008419E+02  0.00000000000E+00 0.  1.
<mgrwt>
<rscale>  0 0.12811438E+03</rscale>
<asrwt>0</asrwt>
<pdfrwt beam="2">  1        1 0.71836070E-02 0.13579920E+03</pdfrwt>
<pdfrwt beam="1">  1       -1 0.56691388E-01 0.13579920E+03</pdfrwt>
<totfact> 0.31464972E+03</totfact>
</mgrwt>
</event>
<event>
 7    1  0.8712071E-006  0.1644259E+03  0.7546771E-02  0.1190933E+00
         -1   -1    0    0    0  501 -0.00000000000E+00  0.00000000000E+00  0.23103347031E+02  0.23103347031E+02  0.00000000000E+00 0.  1.
          1   -1    0    0  501    0  0.00000000000E+00 -0.00000000000E+00 -0.10138926509E+04  0.10138926509E+04  0.00000000000E+00 0. -1.
         23    2    1    2    0    0 -0.10652308878E+03 -0.80536995603E+01 -0.48560713537E+03  0.51268914970E+03  0.12499537504E+03 0.  0.
          5    1    3    3  502    0  0.19971712165E+02  0.23988755965E+02 -0.64629888507E+02  0.71926644493E+02  0.47000000000E+01 0.  1.
         -5    1    3    3    0  502 -0.12649480095E+03 -0.32042455525E+02 -0.42097724686E+03  0.44076250521E+03  0.47000000000E+01 0.  1.
        -11    1    1    2    0    0  0.10705477439E+03 -0.22469754783E+01 -0.50231532218E+03  0.51360145688E+03  0.00000000000E+00 0. -1.
         11    1    1    2    0    0 -0.53168560245E+00  0.10300675039E+02 -0.28668463084E+01  0.10705391333E+02  0.00000000000E+00 0.  1.
<mgrwt>
<rscale>  0 0.15803550E+03</rscale>
<asrwt>0</asrwt>
<pdfrwt beam="2">  1        1 0.15598348E+00 0.16442589E+03</pdfrwt>
<pdfrwt beam="1">  1       -1 0.35543611E-02 0.16442589E+03</pdfrwt>
<totfact> 0.45084326E+03</totfact>
</mgrwt>
</event>
<event>
 7    1  0.8712071E-006  0.1370600E+03  0.7546771E-02  0.1227677E+00
          2   -1    0    0  501    0  0.00000000000E+00  0.00000000000E+00  0.19183861463E+03  0.19183861463E+03  0.00000000000E+00 0.  1.
         -2   -1    0    0    0  501 -0.00000000000E+00 -0.00000000000E+00 -0.19377170223E+03  0.19377170223E+03  0.00000000000E+00 0. -1.
         23    2    1    2    0    0  0.39398163634E+02  0.40198483399E+02 -0.14851351451E+03  0.20209329384E+03  0.12496920444E+03 0.  0.
          5    1    3    3  502    0 -0.42453031602E+02  0.20825720402E+02 -0.81932157803E+02  0.94715041069E+02  0.47000000000E+01 0.  1.
         -5    1    3    3    0  502  0.81851195235E+02  0.19372762997E+02 -0.66581356705E+02  0.10737825277E+03  0.47000000000E+01 0.  1.
        -11    1    1    2    0    0  0.26990985556E+02 -0.17294242453E+02  0.82256343106E+02  0.88281991960E+02  0.00000000000E+00 0.  1.
         11    1    1    2    0    0 -0.66389149190E+02 -0.22904240946E+02  0.64324083807E+02  0.95235031060E+02  0.00000000000E+00 0. -1.
<mgrwt>
<rscale>  0 0.12985102E+03</rscale>
<asrwt>0</asrwt>
<pdfrwt beam="1">  1        2 0.29513633E-01 0.13705997E+03</pdfrwt>
<pdfrwt beam="2">  1       -2 0.29811031E-01 0.13705997E+03</pdfrwt>
<totfact> 0.18030145E+03</totfact>
</mgrwt>
</event>
<event>
 7    1  0.8712071E-006  0.1379632E+03  0.7546771E-02  0.1227499E+00
          1   -1    0    0  501    0  0.00000000000E+00  0.00000000000E+00  0.66041160865E+02  0.66041160865E+02  0.00000000000E+00 0. -1.
         -1   -1    0    0    0  501 -0.00000000000E+00 -0.00000000000E+00 -0.24556879523E+03  0.24556879523E+03  0.00000000000E+00 0.  1.
         23    2    1    2    0    0 -0.28277654975E+02 -0.51087229188E+02 -0.13841011208E+03  0.19542568216E+03  0.12499722943E+03 0.  0.
          5    1    3    3  502    0  0.95294393069E+01  0.35149557243E+01  0.20375199673E+02  0.23246588760E+02  0.47000000000E+01 0. -1.
         -5    1    3    3    0  502 -0.37807094282E+02 -0.54602184912E+02 -0.15878531175E+03  0.17217909340E+03  0.47000000000E+01 0. -1.
        -11    1    1    2    0    0  0.51599104805E+02  0.57214176427E+02 -0.48411566482E+02  0.90992358855E+02  0.00000000000E+00 0.  1.
         11    1    1    2    0    0 -0.23321449829E+02 -0.61269472388E+01  0.72940441986E+01  0.25191915079E+02  0.00000000000E+00 0. -1.
<mgrwt>
<rscale>  0 0.12997058E+03</rscale>
<asrwt>0</asrwt>
<pdfrwt beam="1">  1        1 0.10160179E-01 0.13796318E+03</pdfrwt>
<pdfrwt beam="2">  1       -1 0.37779814E-01 0.13796318E+03</pdfrwt>
<totfact> 0.41152523E+03</totfact>
</mgrwt>
</event>
<event>
 7    1  0.8712071E-006  0.1747199E+03  0.7546771E-02  0.1179506E+00
         -2   -1    0    0    0  501 -0.00000000000E+00  0.00000000000E+00  0.61373129945E+02  0.61373129945E+02  0.00000000000E+00 0.  1.
          2   -1    0    0  501    0  0.00000000000E+00 -0.00000000000E+00 -0.45348044360E+03  0.45348044360E+03  0.00000000000E+00 0. -1.
         23    2    1    2    0    0 -0.11248350832E+03 -0.47436932141E+02 -0.15355487560E+03  0.23260730709E+03  0.12499702924E+03 0.  0.
          5    1    3    3  502    0  0.73626971613E+00  0.34527876921E+02 -0.29540134266E+02  0.45688356397E+02  0.47000000000E+01 0. -1.
         -5    1    3    3    0  502 -0.11321977803E+03 -0.81964809062E+02 -0.12401474133E+03  0.18691895070E+03  0.47000000000E+01 0. -1.
        -11    1    1    2    0    0  0.73665741790E+02 -0.16581530774E+02 -0.13095132109E+03  0.15116162599E+03  0.00000000000E+00 0. -1.
         11    1    1    2    0    0  0.38817766528E+02  0.64018462915E+02 -0.10760111697E+03  0.13108464046E+03  0.00000000000E+00 0.  1.
<mgrwt>
<rscale>  0 0.16841979E+03</rscale>
<asrwt>0</asrwt>
<pdfrwt beam="2">  1        2 0.69766224E-01 0.17471995E+03</pdfrwt>
<pdfrwt beam="1">  1       -2 0.94420198E-02 0.17471995E+03</pdfrwt>
<totfact> 0.49299849E+03</totfact>
</mgrwt>
</event>
<event>
 7    1  0.8712071E-006  0.1571114E+03  0.7546771E-02  0.1200159E+00
          1   -1    0    0  501    0  0.00000000000E+00  0.00000000000E+00  0.31036456475E+03  0.31036456475E+03  0.00000000000E+00 0. -1.
         -1   -1    0    0    0  501 -0.00000000000E+00 -0.00000000000E+00 -0.72686973214E+02  0.72686973214E+02  0.00000000000E+00 0.  1.
         23    2    1    2    0    0 -0.79715806906E+02 -0.51987923605E+02  0.75522982571E+02  0.17432072984E+03  0.12500656737E+03 0.  0.
          5    1    3    3  502    0  0.27570319102E+02 -0.33684898057E+02  0.39182302491E+01  0.43957222169E+02  0.47000000000E+01 0. -1.
         -5    1    3    3    0  502 -0.10728612601E+03 -0.18303025548E+02  0.71604752322E+02  0.13036350767E+03  0.47000000000E+01 0. -1.
        -11    1    1    2    0    0  0.55931751616E+02  0.64778328881E+02  0.16023371701E+03  0.18165747107E+03  0.00000000000E+00 0. -1.
         11    1    1    2    0    0  0.23784055290E+02 -0.12790405276E+02  0.19208919629E+01  0.27073337051E+02  0.00000000000E+00 0.  1.
<mgrwt>
<rscale>  0 0.15025581E+03</rscale>
<asrwt>0</asrwt>
<pdfrwt beam="1">  1        1 0.47748394E-01 0.15711141E+03</pdfrwt>
<pdfrwt beam="2">  1       -1 0.11182611E-01 0.15711141E+03</pdfrwt>
<totfact> 0.41669239E+03</totfact>
</mgrwt>
</event>
<event>
 7    1  0.8712071E-006  0.1391135E+03  0.7546771E-02  0.1225018E+00
         -2   -1    0    0    0  501 -0.00000000000E+00  0.00000000000E+00  0.11188862647E+03  0.11188862647E+03  0.00000000000E+00 0. -1.
          2   -1    0    0  501    0  0.00000000000E+00 -0.00000000000E+00 -0.21017384754E+03  0.21017384754E+03  0.00000000000E+00 0.  1.
         23    2    1    2    0    0  0.22066974795E+02 -0.56928582074E+02  0.39631586913E+02  0.14464863411E+03  0.12499899933E+03 0.  0.
          5    1    3    3  502    0 -0.30764180652E+02 -0.32839350860E+02  0.66552760471E+02  0.80474950776E+02  0.47000000000E+01 0. -1.
         -5    1    3    3    0  502  0.52831155447E+02 -0.24089231213E+02 -0.26921173558E+02  0.64173683329E+02  0.47000000000E+01 0. -1.
        -11    1    1    2    0    0  0.52101520805E+01  0.42010917941E+02 -0.70636813645E+01  0.42918044053E+02  0.00000000000E+00 0. -1.
         11    1    1    2    0    0 -0.27277126875E+02  0.14917664133E+02 -0.13085312662E+03  0.13449579584E+03  0.00000000000E+00 0.  1.
<mgrwt>
<rscale>  0 0.13165679E+03</rscale>
<asrwt>0</asrwt>
<pdfrwt beam="2">  1        2 0.32334438E-01 0.13911350E+03</pdfrwt>
<pdfrwt beam="1">  1       -2 0.17213635E-01 0.13911350E+03</pdfrwt>
<totfact> 0.42137748E+03</totfact>
</mgrwt>
</event>
<event>
 7    1  0.8712071E-006  0.1313471E+03  0.7546771E-02  0.1230533E+00
         -1   -1    0    0    0  501 -0.00000000000E+00  0.00000000000E+00  0.44956543879E+02  0.44956543879E+02  0.00000000000E+00 0.  1.
          1   -1    0    0  501    0  0.00000000000E+00 -0.00000000000E+00 -0.36236910656E+03  0.36236910656E+03  0.00000000000E+00 0. -1.
         23    2    1    2    0    0 -0.38080978040E+02 -0.13236910987E+02 -0.12407802225E+03  0.18068594450E+03  0.12500671276E+03 0.  0.
          5    1    3    3  502    0 -0.60428334239E+01  0.45453924268E+02 -0.98842762380E+02  0.10906216916E+03  0.47000000000E+01 0.  1.
         -5    1    3    3    0  502 -0.32038144616E+02 -0.58690835255E+02 -0.25235259869E+02  0.71623775341E+02  0.47000000000E+01 0.  1.
        -11    1    1    2    0    0  0.22129517441E+02 -0.22234195518E+02 -0.18398333805E+03  0.18663853748E+03  0.00000000000E+00 0. -1.
         11    1    1    2    0    0  0.15951460599E+02  0.35471106505E+02 -0.93512023808E+01  0.40001168457E+02  0.00000000000E+00 0.  1.
<mgrwt>
<rscale>  0 0.12794759E+03</rscale>
<asrwt>0</asrwt>
<pdfrwt beam="2">  1        1 0.55749094E-01 0.13134708E+03</pdfrwt>
<pdfrwt beam="1">  1       -1 0.69163912E-02 0.13134708E+03</pdfrwt>
<totfact> 0.70523380E+03</totfact>
</mgrwt>
</event>
<event>
 6    1  0.8712071E-006  0.1890538E+03  0.7546771E-02  0.1187010E+00
          2   -1    0    0  501    0  0.00000000000E+00  0.00000000000E+00  0.20279824874E+02  0.20279824874E+02  0.00000000000E+00 0. -1.
         -2   -1    0    0    0  501 -0.00000000000E+00 -0.00000000000E+00 -0.11588391390E+04  0.11588391390E+04  0.00000000000E+00 0.  1.
          5    1    1    2  502    0 -0.80975992120E+01 -0.61194374689E+02 -0.93973165852E+02  0.11253163336E+03  0.47000000000E+01 0. -1.
         -5    1    1    2    0  502  0.30502509626E+02  0.22470787293E+02 -0.81500177083E+03  0.81589540740E+03  0.47000000000E+01 0.  1.
        -11    1    1    2    0    0  0.94376943810E+01  0.61042479963E+02 -0.13781197394E+03  0.15102117268E+03  0.00000000000E+00 0. -1.
         11    1    1    2    0    0 -0.31842604795E+02 -0.22318892568E+02 -0.91772403485E+02  0.99670750409E+02  0.00000000000E+00 0.  1.
<mgrwt>
<rscale>  0 0.16150283E+03</rscale>
<asrwt>0</asrwt>
<pdfrwt beam="1">  1        2 0.31199723E-02 0.18905379E+03</pdfrwt>
<pdfrwt beam="2">  1       -2 0.17828299E+00 0.18905379E+03</pdfrwt>
<totfact> 0.58656235E+02</totfact>
</mgrwt>
</event>
<event>
 7    1  0.8712071E-006  0.1492441E+03  0.7546771E-02  0.1211245E+00
         -2   -1    0    0    0  501 -0.00000000000E+00  0.00000000000E+00  0.97215371041E+02  0.97215371041E+02  0.00000000000E+00 0.  1.
          2   -1    0    0  501    0  0.00000000000E+00 -0.00000000000E+00 -0.19108931355E+03  0.19108931355E+03  0.00000000000E+00 0. -1.
         23    2    1    2    0    0  0.54627604926E+02 -0.60405031845E+02 -0.32233417256E+02  0.15268526608E+03  0.12506340071E+03 0.  0.
          5    1    3    3  502    0 -0.13888475245E+02  0.23398473302E+02  0.18304827933E+02  0.33129066137E+02  0.47000000000E+01 0.  1.
         -5    1    3    3    0  502  0.68516080171E+02 -0.83803505146E+02 -0.50538245189E+02  0.11955619994E+03  0.47000000000E+01 0.  1.
        -11    1    1    2    0    0 -0.82332459638E+00  0.63956405291E+02 -0.18555347751E+02  0.66598803077E+02  0.00000000000E+00 0.  1.
         11    1    1    2    0    0 -0.53804280330E+02 -0.35513734467E+01 -0.43085177505E+02  0.69020615440E+02  0.00000000000E+00 0. -1.
<mgrwt>
<rscale>  0 0.14156021E+03</rscale>
<asrwt>0</asrwt>
<pdfrwt beam="2">  1        2 0.29398356E-01 0.14924409E+03</pdfrwt>
<pdfrwt beam="1">  1       -2 0.14956211E-01 0.14924409E+03</pdfrwt>
<totfact> 0.59141608E+03</totfact>
</mgrwt>
</event>
<event>
 7    1  0.8712071E-006  0.1436890E+03  0.7546771E-02  0.1221401E+00
         -4   -1    0    0    0  501 -0.00000000000E+00  0.00000000000E+00  0.11072418462E+03  0.11072418462E+03  0.00000000000E+00 0.  1.
          4   -1    0    0  501    0  0.00000000000E+00 -0.00000000000E+00 -0.14469316833E+03  0.14469316833E+03  0.00000000000E+00 0. -1.
         23    2    1    2    0    0  0.66525659588E+02 -0.23967853779E+02 -0.13812614122E+02  0.14435133580E+03  0.12508556447E+03 0.  0.
          5    1    3    3  502    0  0.90757568050E+02 -0.31882376487E+02 -0.42863453324E+02  0.10541720789E+03  0.47000000000E+01 0.  1.
         -5    1    3    3    0  502 -0.24231908461E+02  0.79145227088E+01  0.29050839202E+02  0.38934127905E+02  0.47000000000E+01 0.  1.
        -11    1    1    2    0    0 -0.40580997751E+02 -0.41864400661E+01  0.28047690428E+02  0.49507742801E+02  0.00000000000E+00 0.  1.
         11    1    1    2    0    0 -0.25944661837E+02  0.28154293845E+02 -0.48204060009E+02  0.61558274351E+02  0.00000000000E+00 0. -1.
<mgrwt>
<rscale>  0 0.13416672E+03</rscale>
<asrwt>0</asrwt>
<pdfrwt beam="2">  1        4 0.22260487E-01 0.14368897E+03</pdfrwt>
<pdfrwt beam="1">  1       -4 0.17034490E-01 0.14368897E+03</pdfrwt>
<totfact> 0.93350941E+02</totfact>
</mgrwt>
</event>
<event>
 7    1  0.8712071E-006  0.1485072E+03  0.7546771E-02  0.1211487E+00
          1   -1    0    0  501    0  0.00000000000E+00  0.00000000000E+00  0.12142589548E+03  0.12142589548E+03  0.00000000000E+00 0. -1.
         -1   -1    0    0    0  501 -0.00000000000E+00 -0.00000000000E+00 -0.16116860113E+03  0.16116860113E+03  0.00000000000E+00 0.  1.
         23    2    1    2    0    0 -0.31126501647E+02  0.73865975860E+02 -0.57660263646E+02  0.15930813206E+03  0.12501733256E+03 0.  0.
          5    1    3    3  502    0 -0.29172155116E+02 -0.30883521743E+02 -0.24757892005E+02  0.49394835417E+02  0.47000000000E+01 0. -1.
         -5    1    3    3    0  502 -0.19543465304E+01  0.10474949760E+03 -0.32902371641E+02  0.10991329664E+03  0.47000000000E+01 0. -1.
        -11    1    1    2    0    0  0.25976670837E+02 -0.95851421585E+02  0.12771757824E+02  0.10012692068E+03  0.00000000000E+00 0.  1.
         11    1    1    2    0    0  0.51498308093E+01  0.21985445725E+02  0.51458001638E+01  0.23159443871E+02  0.00000000000E+00 0. -1.
<mgrwt>
<rscale>  0 0.14137753E+03</rscale>
<asrwt>0</asrwt>
<pdfrwt beam="1">  1        1 0.18680907E-01 0.14850715E+03</pdfrwt>
<pdfrwt beam="2">  1       -1 0.24795169E-01 0.14850715E+03</pdfrwt>
<totfact> 0.38041981E+03</totfact>
</mgrwt>
</event>
<event>
 7    1  0.8712071E-006  0.1417900E+03  0.7546771E-02  0.1221583E+00
         -2   -1    0    0    0  501 -0.00000000000E+00  0.00000000000E+00  0.30107336834E+02  0.30107336834E+02  0.00000000000E+00 0.  1.
          2   -1    0    0  501    0  0.00000000000E+00 -0.00000000000E+00 -0.74423676789E+03  0.74423676789E+03  0.00000000000E+00 0. -1.
         23    2    1    2    0    0 -0.51197975569E+02  0.43111588214E+02 -0.18420391692E+03  0.23245537034E+03  0.12499829779E+03 0.  0.
          5    1    3    3  502    0 -0.78188683219E+02 -0.12937026498E+02 -0.10470241161E+03  0.13139833269E+03  0.47000000000E+01 0. -1.
         -5    1    3    3    0  502  0.26990707650E+02  0.56048614713E+02 -0.79501505313E+02  0.10105703765E+03  0.47000000000E+01 0. -1.
        -11    1    1    2    0    0  0.39138839775E+02 -0.71651441309E+02 -0.35777958007E+03  0.36697684632E+03  0.00000000000E+00 0.  1.
         11    1    1    2    0    0  0.12059135795E+02  0.28539853095E+02 -0.17214593407E+03  0.17491188807E+03  0.00000000000E+00 0. -1.
<mgrwt>
<rscale>  0 0.13403871E+03</rscale>
<asrwt>0</asrwt>
<pdfrwt beam="2">  1        2 0.11449794E+00 0.14179004E+03</pdfrwt>
<pdfrwt beam="1">  1       -2 0.46318989E-02 0.14179004E+03</pdfrwt>
<totfact> 0.82486146E+03</totfact>
</mgrwt>
</event>
<event>
 7    1  0.8712071E-006  0.1282313E+03  0.7546771E-02  0.1230306E+00
         -2   -1    0    0    0  501 -0.00000000000E+00  0.00000000000E+00  0.58754669691E+03  0.58754669691E+03  0.00000000000E+00 0.  1.
          2   -1    0    0  501    0  0.00000000000E+00 -0.00000000000E+00 -0.35618421341E+03  0.35618421341E+03  0.00000000000E+00 0. -1.
         23    2    1    2    0    0  0.26482621998E+02  0.45673628805E+02  0.56872872890E+03  0.58300569614E+03  0.11685831169E+03 0.  0.
          5    1    3    3  502    0 -0.30045426644E+02 -0.23603007177E+02  0.15645141467E+03  0.16111785985E+03  0.47000000000E+01 0. -1.
         -5    1    3    3    0  502  0.56528048642E+02  0.69276635982E+02  0.41227731423E+03  0.42188783628E+03  0.47000000000E+01 0.  1.
        -11    1    1    2    0    0  0.26467017953E+02  0.13365640733E+02 -0.26055504683E+02  0.39471923133E+02  0.00000000000E+00 0.  1.
         11    1    1    2    0    0 -0.52949639952E+02 -0.59039269538E+02 -0.31131074073E+03  0.32125329105E+03  0.00000000000E+00 0. -1.
<mgrwt>
<rscale>  0 0.12809771E+03</rscale>
<asrwt>0</asrwt>
<pdfrwt beam="2">  1        2 0.54797571E-01 0.12823133E+03</pdfrwt>
<pdfrwt beam="1">  1       -2 0.90391799E-01 0.12823133E+03</pdfrwt>
<totfact> 0.10119056E+02</totfact>
</mgrwt>
</event>
<event>
 7    1  0.8712071E-006  0.1359674E+03  0.7546771E-02  0.1229147E+00
         -1   -1    0    0    0  501 -0.00000000000E+00  0.00000000000E+00  0.36618192375E+02  0.36618192375E+02  0.00000000000E+00 0.  1.
          1   -1    0    0  501    0  0.00000000000E+00 -0.00000000000E+00 -0.41831642268E+03  0.41831642268E+03  0.00000000000E+00 0. -1.
         23    2    1    2    0    0  0.20370284237E+02  0.49464875322E+02 -0.18333071526E+03  0.22824828659E+03  0.12500162720E+03 0.  0.
          5    1    3    3  502    0  0.51096866708E+02  0.69611284645E+02 -0.77508816861E+02  0.11613064810E+03  0.47000000000E+01 0.  1.
         -5    1    3    3    0  502 -0.30726582470E+02 -0.20146409324E+02 -0.10582189840E+03  0.11211763849E+03  0.47000000000E+01 0.  1.
        -11    1    1    2    0    0 -0.52134528997E+02 -0.36263394539E+02 -0.17198556685E+03  0.18333597056E+03  0.00000000000E+00 0.  1.
         11    1    1    2    0    0  0.31764244760E+02 -0.13201480783E+02 -0.26381948199E+02  0.43350357908E+02  0.00000000000E+00 0. -1.
<mgrwt>
<rscale>  0 0.12886677E+03</rscale>
<asrwt>0</asrwt>
<pdfrwt beam="2">  1        1 0.64356373E-01 0.13596738E+03</pdfrwt>
<pdfrwt beam="1">  1       -1 0.56335680E-02 0.13596738E+03</pdfrwt>
<totfact> 0.80132668E+03</totfact>
</mgrwt>
</event>
<event>
 7    1  0.8712071E-006  0.1308962E+03  0.7546771E-02  0.1241054E+00
         -1   -1    0    0    0  501 -0.00000000000E+00  0.00000000000E+00  0.18105909308E+03  0.18105909308E+03  0.00000000000E+00 0.  1.
          1   -1    0    0  501    0  0.00000000000E+00 -0.00000000000E+00 -0.71312602057E+02  0.71312602057E+02  0.00000000000E+00 0. -1.
         23    2    1    2    0    0  0.34545632786E+02  0.17750428467E+02  0.63799828945E+02  0.14561677041E+03  0.12500138878E+03 0.  0.
          5    1    3    3  502    0 -0.33578214659E+02 -0.30952013903E+02  0.13657804502E+02  0.47897278504E+02  0.47000000000E+01 0.  1.
         -5    1    3    3    0  502  0.68123847444E+02  0.48702442370E+02  0.50142024443E+02  0.97719491907E+02  0.47000000000E+01 0.  1.
        -11    1    1    2    0    0 -0.68788531420E+01  0.25892684293E+02 -0.11790922125E+02  0.29270728809E+02  0.00000000000E+00 0. -1.
         11    1    1    2    0    0 -0.27666779644E+02 -0.43643112759E+02  0.57737584204E+02  0.77484195917E+02  0.00000000000E+00 0.  1.
<mgrwt>
<rscale>  0 0.12124704E+03</rscale>
<asrwt>0</asrwt>
<pdfrwt beam="2">  1        1 0.10971170E-01 0.13089624E+03</pdfrwt>
<pdfrwt beam="1">  1       -1 0.27855245E-01 0.13089624E+03</pdfrwt>
<totfact> 0.62166492E+03</totfact>
</mgrwt>
</event>
<event>
 7    1  0.8712071E-006  0.1434880E+03  0.7546771E-02  0.1219068E+00
         -1   -1    0    0    0  501 -0.00000000000E+00  0.00000000000E+00  0.57414194674E+02  0.57414194674E+02  0.00000000000E+00 0.  1.
          1   -1    0    0  501    0  0.00000000000E+00 -0.00000000000E+00 -0.29491246707E+03  0.29491246707E+03  0.00000000000E+00 0. -1.
         23    2    1    2    0    0 -0.49893831192E+02 -0.49743077377E+02 -0.11235586286E+03  0.18224334279E+03  0.12500011173E+03 0.  0.
          5    1    3    3  502    0 -0.73537733776E+02 -0.50763020626E+01 -0.19455865071E+02  0.76381855288E+02  0.47000000000E+01 0.  1.
         -5    1    3    3    0  502  0.23643902584E+02 -0.44666775314E+02 -0.92899997788E+02  0.10586148750E+03  0.47000000000E+01 0.  1.
        -11    1    1    2    0    0  0.43518095425E+02  0.21552037550E+01 -0.91156708560E+01  0.44514772691E+02  0.00000000000E+00 0.  1.
         11    1    1    2    0    0  0.63757357670E+01  0.47587873622E+02 -0.11602673868E+03  0.12556854627E+03  0.00000000000E+00 0. -1.
<mgrwt>
<rscale>  0 0.13581918E+03</rscale>
<asrwt>0</asrwt>
<pdfrwt beam="2">  1        1 0.45371149E-01 0.14348796E+03</pdfrwt>
<pdfrwt beam="1">  1       -1 0.88329531E-02 0.14348796E+03</pdfrwt>
<totfact> 0.63365496E+03</totfact>
</mgrwt>
</event>
<event>
 7    1  0.8712071E-006  0.1477929E+03  0.7546771E-02  0.1213561E+00
          1   -1    0    0  501    0  0.00000000000E+00  0.00000000000E+00  0.53827469978E+03  0.53827469978E+03  0.00000000000E+00 0. -1.
         -1   -1    0    0    0  501 -0.00000000000E+00 -0.00000000000E+00 -0.35949648425E+02  0.35949648425E+02  0.00000000000E+00 0.  1.
         23    2    1    2    0    0 -0.70775876394E+01  0.78534491192E+02  0.19357349252E+03  0.24354347569E+03  0.12499987596E+03 0.  0.
          5    1    3    3  502    0  0.12375224157E+02 -0.32364710279E+02  0.41505718044E+02  0.54271864486E+02  0.47000000000E+01 0. -1.
         -5    1    3    3    0  502 -0.19452811797E+02  0.11089920147E+03  0.15206777448E+03  0.18927161120E+03  0.47000000000E+01 0. -1.
        -11    1    1    2    0    0 -0.19068917897E+01 -0.96644813898E+02  0.27301573349E+03  0.28962293940E+03  0.00000000000E+00 0. -1.
         11    1    1    2    0    0  0.89844794291E+01  0.18110322706E+02  0.35735825345E+02  0.41057933122E+02  0.00000000000E+00 0.  1.
<mgrwt>
<rscale>  0 0.13982748E+03</rscale>
<asrwt>0</asrwt>
<pdfrwt beam="1">  1        1 0.82811486E-01 0.14779285E+03</pdfrwt>
<pdfrwt beam="2">  1       -1 0.55307155E-02 0.14779285E+03</pdfrwt>
<totfact> 0.59712851E+03</totfact>
</mgrwt>
</event>
<event>
 7    1  0.8712071E-006  0.1571826E+03  0.7546771E-02  0.1199473E+00
          2   -1    0    0  501    0  0.00000000000E+00  0.00000000000E+00  0.21183421608E+03  0.21183421608E+03  0.00000000000E+00 0. -1.
         -2   -1    0    0    0  501 -0.00000000000E+00 -0.00000000000E+00 -0.12257372018E+03  0.12257372018E+03  0.00000000000E+00 0.  1.
         23    2    1    2    0    0  0.50176175856E+02 -0.81018935059E+02 -0.24675643441E+02  0.15910764728E+03  0.12499855832E+03 0.  0.
          5    1    3    3  502    0  0.41158530319E+02  0.18896730152E+02 -0.35992608590E+02  0.58040235195E+02  0.47000000000E+01 0.  1.
         -5    1    3    3    0  502  0.90176455374E+01 -0.99915665211E+02  0.11316965149E+02  0.10106741209E+03  0.47000000000E+01 0.  1.
        -11    1    1    2    0    0 -0.68142965662E+02  0.88266327520E+02  0.83857179397E+02  0.13952216627E+03  0.00000000000E+00 0.  1.
         11    1    1    2    0    0  0.17966789805E+02 -0.72473924612E+01  0.30078959945E+02  0.35778122712E+02  0.00000000000E+00 0. -1.
<mgrwt>
<rscale>  0 0.15081663E+03</rscale>
<asrwt>0</asrwt>
<pdfrwt beam="1">  1        2 0.32589879E-01 0.15718256E+03</pdfrwt>
<pdfrwt beam="2">  1       -2 0.18857495E-01 0.15718256E+03</pdfrwt>
<totfact> 0.36104263E+03</totfact>
</mgrwt>
</event>
<event>
 7    1  0.8712071E-006  0.2336452E+03  0.7546771E-02  0.1126780E+00
         -1   -1    0    0    0  501 -0.00000000000E+00  0.00000000000E+00  0.11589248803E+03  0.11589248803E+03  0.00000000000E+00 0.  1.
          1   -1    0    0  501    0  0.00000000000E+00 -0.00000000000E+00 -0.63638462832E+03  0.63638462832E+03  0.00000000000E+00 0. -1.
         23    2    1    2    0    0  0.14764687401E+03 -0.13101913506E+03 -0.58045714948E+02  0.24074750924E+03  0.12499778007E+03 0.  0.
          5    1    3    3  502    0  0.36762069860E+02 -0.11295551842E+03 -0.12898604790E+02  0.11957785300E+03  0.47000000000E+01 0.  1.
         -5    1    3    3    0  502  0.11088480415E+03 -0.18063616642E+02 -0.45147110158E+02  0.12116965624E+03  0.47000000000E+01 0.  1.
        -11    1    1    2    0    0 -0.64234838221E+02  0.40780222863E+01 -0.17421392259E+03  0.18572354598E+03  0.00000000000E+00 0.  1.
         11    1    1    2    0    0 -0.83412035791E+02  0.12694111278E+03 -0.28823250275E+03  0.32580606113E+03  0.00000000000E+00 0. -1.
<mgrwt>
<rscale>  0 0.22980142E+03</rscale>
<asrwt>0</asrwt>
<pdfrwt beam="2">  1        1 0.97905327E-01 0.23364515E+03</pdfrwt>
<pdfrwt beam="1">  1       -1 0.17829614E-01 0.23364515E+03</pdfrwt>
<totfact> 0.79025583E+02</totfact>
</mgrwt>
</event>
<event>
 7    1  0.8712071E-006  0.1526092E+03  0.7546771E-02  0.1206128E+00
         -1   -1    0    0    0  501 -0.00000000000E+00  0.00000000000E+00  0.62668988697E+02  0.62668988697E+02  0.00000000000E+00 0.  1.
          1   -1    0    0  501    0  0.00000000000E+00 -0.00000000000E+00 -0.31812633828E+03  0.31812633828E+03  0.00000000000E+00 0. -1.
         23    2    1    2    0    0  0.87530782672E+02 -0.65767187088E+00 -0.10889592746E+03  0.18747770388E+03  0.12500998355E+03 0.  0.
          5    1    3    3  502    0  0.80496192535E+01  0.52269448363E+02 -0.19424168983E+02  0.56535651964E+02  0.47000000000E+01 0. -1.
         -5    1    3    3    0  502  0.79481163418E+02 -0.52927120234E+02 -0.89471758476E+02  0.13094205191E+03  0.47000000000E+01 0. -1.
        -11    1    1    2    0    0 -0.46497278604E+02  0.45652179316E+02 -0.75028544870E+02  0.99375051896E+02  0.00000000000E+00 0. -1.
         11    1    1    2    0    0 -0.41033504068E+02 -0.44994507445E+02 -0.71532877257E+02  0.93942571207E+02  0.00000000000E+00 0.  1.
<mgrwt>
<rscale>  0 0.14548927E+03</rscale>
<asrwt>0</asrwt>
<pdfrwt beam="2">  1        1 0.48942514E-01 0.15260920E+03</pdfrwt>
<pdfrwt beam="1">  1       -1 0.96413827E-02 0.15260920E+03</pdfrwt>
<totfact> 0.50655351E+03</totfact>
</mgrwt>
</event>
<event>
 7    1  0.8712071E-006  0.1818566E+03  0.7546771E-02  0.1171369E+00
         -1   -1    0    0    0  501 -0.00000000000E+00  0.00000000000E+00  0.72635701848E+02  0.72635701848E+02  0.00000000000E+00 0.  1.
          1   -1    0    0  501    0  0.00000000000E+00 -0.00000000000E+00 -0.45672647140E+03  0.45672647140E+03  0.00000000000E+00 0. -1.
         23    2    1    2    0    0  0.18136016506E+02  0.13083518883E+03 -0.11290477048E+03  0.21405449062E+03  0.12500030411E+03 0.  0.
          5    1    3    3  502    0 -0.34871808398E+01  0.38721266273E+02  0.25208734175E+02  0.46573245224E+02  0.47000000000E+01 0. -1.
         -5    1    3    3    0  502  0.21623197345E+02  0.92113922555E+02 -0.13811350465E+03  0.16748124539E+03  0.47000000000E+01 0. -1.
        -11    1    1    2    0    0 -0.29784124486E+02 -0.86990163922E+02 -0.24771607374E+03  0.26423027056E+03  0.00000000000E+00 0. -1.
         11    1    1    2    0    0  0.11648107980E+02 -0.43845024905E+02 -0.23469925334E+02  0.51077412069E+02  0.00000000000E+00 0.  1.
<mgrwt>
<rscale>  0 0.17636455E+03</rscale>
<asrwt>0</asrwt>
<pdfrwt beam="2">  1        1 0.70265610E-01 0.18185664E+03</pdfrwt>
<pdfrwt beam="1">  1       -1 0.11174723E-01 0.18185664E+03</pdfrwt>
<totfact> 0.25732873E+03</totfact>
</mgrwt>
</event>
<event>
 6    1  0.8712071E-006  0.1640898E+03  0.7546771E-02  0.1204081E+00
         -2   -1    0    0    0  501 -0.00000000000E+00  0.00000000000E+00  0.48276736486E+02  0.48276736486E+02  0.00000000000E+00 0.  1.
          2   -1    0    0  501    0  0.00000000000E+00 -0.00000000000E+00 -0.41358355998E+03  0.41358355998E+03  0.00000000000E+00 0. -1.
          5    1    1    2  502    0 -0.27549512600E+02  0.89659585366E+02 -0.10124759602E+03  0.13809772841E+03  0.47000000000E+01 0. -1.
         -5    1    1    2    0  502  0.53148786174E+02 -0.43589940502E+02 -0.50732042138E+02  0.85561127180E+02  0.47000000000E+01 0.  1.
        -11    1    1    2    0    0 -0.52817145343E+02 -0.20625157597E+02 -0.69858863780E+02  0.89973934096E+02  0.00000000000E+00 0. -1.
         11    1    1    2    0    0  0.27217871769E+02 -0.25444487267E+02 -0.14346832155E+03  0.14822750678E+03  0.00000000000E+00 0.  1.
<mgrwt>
<rscale>  0 0.14710102E+03</rscale>
<asrwt>0</asrwt>
<pdfrwt beam="2">  1        2 0.63628242E-01 0.16408983E+03</pdfrwt>
<pdfrwt beam="1">  1       -2 0.74271901E-02 0.16408983E+03</pdfrwt>
<totfact> 0.78924280E+03</totfact>
</mgrwt>
</event>
<event>
 7    1  0.8712071E-006  0.3070765E+03  0.7546771E-02  0.1083243E+00
          2   -1    0    0  501    0  0.00000000000E+00  0.00000000000E+00  0.12609398563E+04  0.12609398563E+04  0.00000000000E+00 0. -1.
         -2   -1    0    0    0  501 -0.00000000000E+00 -0.00000000000E+00 -0.77990937415E+02  0.77990937415E+02  0.00000000000E+00 0.  1.
         23    2    1    2    0    0  0.28028054743E+03  0.10729100454E+02  0.41510291901E+03  0.51633943893E+03  0.12499473571E+03 0.  0.
          5    1    3    3  502    0  0.23945108118E+03  0.21856151037E+02  0.25435178551E+03  0.35004490056E+03  0.47000000000E+01 0.  1.
         -5    1    3    3    0  502  0.40829466250E+02 -0.11127050583E+02  0.16075113350E+03  0.16629453837E+03  0.47000000000E+01 0.  1.
        -11    1    1    2    0    0 -0.15015345160E+03  0.11614677122E+02  0.28913053955E+03  0.32600219118E+03  0.00000000000E+00 0. -1.
         11    1    1    2    0    0 -0.13012709582E+03 -0.22343777576E+02  0.47871546030E+03  0.49658916359E+03  0.00000000000E+00 0.  1.
<mgrwt>
<rscale>  0 0.30403104E+03</rscale>
<asrwt>0</asrwt>
<pdfrwt beam="1">  1        2 0.19399073E+00 0.30707651E+03</pdfrwt>
<pdfrwt beam="2">  1       -2 0.11998607E-01 0.30707651E+03</pdfrwt>
<totfact> 0.91231688E+02</totfact>
</mgrwt>
</event>
<event>
 7    1  0.8712071E-006  0.1522790E+03  0.7546771E-02  0.1207910E+00
          2   -1    0    0  501    0  0.00000000000E+00  0.00000000000E+00  0.11738777551E+03  0.11738777551E+03  0.00000000000E+00 0.  1.
         -2   -1    0    0    0  501 -0.00000000000E+00 -0.00000000000E+00 -0.16048598367E+03  0.16048598367E+03  0.00000000000E+00 0. -1.
         23    2    1    2    0    0  0.56423824512E+02 -0.66180240889E+02 -0.27820094464E+02  0.15479936764E+03  0.12500165722E+03 0.  0.
          5    1    3    3  502    0 -0.21055809592E+02  0.22926866096E+02  0.56319749932E+01  0.31981204619E+02  0.47000000000E+01 0. -1.
         -5    1    3    3    0  502  0.77479634104E+02 -0.89107106985E+02 -0.33452069458E+02  0.12281816302E+03  0.47000000000E+01 0. -1.
        -11    1    1    2    0    0  0.80106220297E+01 -0.15476526941E+02  0.23141854167E+01  0.17579772627E+02  0.00000000000E+00 0. -1.
         11    1    1    2    0    0 -0.64434446542E+02  0.81656767830E+02 -0.17592299110E+02  0.10549461892E+03  0.00000000000E+00 0.  1.
<mgrwt>
<rscale>  0 0.14410492E+03</rscale>
<asrwt>0</asrwt>
<pdfrwt beam="1">  1        2 0.18059658E-01 0.15227898E+03</pdfrwt>
<pdfrwt beam="2">  1       -2 0.24690151E-01 0.15227898E+03</pdfrwt>
<totfact> 0.43762612E+03</totfact>
</mgrwt>
</event>
<event>
 7    1  0.8712071E-006  0.1351551E+03  0.7546771E-02  0.1232101E+00
         -2   -1    0    0    0  501 -0.00000000000E+00  0.00000000000E+00  0.13061845165E+03  0.13061845165E+03  0.00000000000E+00 0.  1.
          2   -1    0    0  501    0  0.00000000000E+00 -0.00000000000E+00 -0.13971174326E+03  0.13971174326E+03  0.00000000000E+00 0. -1.
         23    2    1    2    0    0 -0.25771116381E+01 -0.51349569772E+02  0.56446704565E+02  0.14646889882E+03  0.12499395204E+03 0.  0.
          5    1    3    3  502    0  0.66219242228E+01  0.16342601618E+02 -0.30653635204E+02  0.35674442662E+02  0.47000000000E+01 0.  1.
         -5    1    3    3    0  502 -0.91990358609E+01 -0.67692171390E+02  0.87100339768E+02  0.11079445616E+03  0.47000000000E+01 0.  1.
        -11    1    1    2    0    0 -0.31859594535E+02  0.18935967448E+02  0.65569872826E+01  0.37637729864E+02  0.00000000000E+00 0.  1.
         11    1    1    2    0    0  0.34436706173E+02  0.32413602325E+02 -0.72096983457E+02  0.86223566217E+02  0.00000000000E+00 0. -1.
<mgrwt>
<rscale>  0 0.12691871E+03</rscale>
<asrwt>0</asrwt>
<pdfrwt beam="2">  1        2 0.21494114E-01 0.13515513E+03</pdfrwt>
<pdfrwt beam="1">  1       -2 0.20095146E-01 0.13515513E+03</pdfrwt>
<totfact> 0.50807645E+03</totfact>
</mgrwt>
</event>
<event>
 7    1  0.8712071E-006  0.1275038E+03  0.7546771E-02  0.1245424E+00
         -3   -1    0    0    0  501 -0.00000000000E+00  0.00000000000E+00  0.12653860178E+03  0.12653860178E+03  0.00000000000E+00 0.  1.
          3   -1    0    0  501    0  0.00000000000E+00 -0.00000000000E+00 -0.10027799272E+03  0.10027799272E+03  0.00000000000E+00 0. -1.
         23    2    1    2    0    0  0.14037014168E+02 -0.20891206938E+02  0.31105381043E+02  0.13124318762E+03  0.12499499699E+03 0.  0.
          5    1    3    3  502    0  0.23081892436E+02 -0.15417205317E+02 -0.45643419063E+02  0.53627191629E+02  0.47000000000E+01 0. -1.
         -5    1    3    3    0  502 -0.90448782679E+01 -0.54740016212E+01  0.76748800106E+02  0.77615995995E+02  0.47000000000E+01 0. -1.
        -11    1    1    2    0    0 -0.32285020610E+02  0.49187505284E+02  0.83187376171E+01  0.59421667995E+02  0.00000000000E+00 0. -1.
         11    1    1    2    0    0  0.18248006442E+02 -0.28296298345E+02 -0.13163509607E+02  0.36151738884E+02  0.00000000000E+00 0.  1.
<mgrwt>
<rscale>  0 0.11860064E+03</rscale>
<asrwt>0</asrwt>
<pdfrwt beam="2">  1        3 0.15427383E-01 0.12750384E+03</pdfrwt>
<pdfrwt beam="1">  1       -3 0.19467477E-01 0.12750384E+03</pdfrwt>
<totfact> 0.18883398E+03</totfact>
</mgrwt>
</event>
<event>
 7    1  0.8712071E-006  0.1258969E+03  0.7546771E-02  0.1248661E+00
         -1   -1    0    0    0  501 -0.00000000000E+00  0.00000000000E+00  0.68838581430E+02  0.68838581430E+02  0.00000000000E+00 0.  1.
          1   -1    0    0  501    0  0.00000000000E+00 -0.00000000000E+00 -0.17732594838E+03  0.17732594838E+03  0.00000000000E+00 0. -1.
         23    2    1    2    0    0  0.99432250766E+01 -0.11511227198E+02 -0.45287612828E+02  0.13379464325E+03  0.12497464787E+03 0.  0.
          5    1    3    3  502    0  0.33507933222E+02 -0.60499798297E+01 -0.82379897017E+02  0.89263213461E+02  0.47000000000E+01 0. -1.
         -5    1    3    3    0  502 -0.23564708146E+02 -0.54612473684E+01  0.37092284189E+02  0.44531429790E+02  0.47000000000E+01 0. -1.
        -11    1    1    2    0    0 -0.10224841072E+02  0.50852539915E+02 -0.46384038610E+02  0.69584532969E+02  0.00000000000E+00 0.  1.
         11    1    1    2    0    0  0.28161599573E+00 -0.39341312717E+02 -0.16815715514E+02  0.42785353593E+02  0.00000000000E+00 0. -1.
<mgrwt>
<rscale>  0 0.11668908E+03</rscale>
<asrwt>0</asrwt>
<pdfrwt beam="2">  1        1 0.27280915E-01 0.12589694E+03</pdfrwt>
<pdfrwt beam="1">  1       -1 0.10590551E-01 0.12589694E+03</pdfrwt>
<totfact> 0.89454928E+03</totfact>
</mgrwt>
</event>
<event>
 7    1  0.8712071E-006  0.1479008E+03  0.7546771E-02  0.1213719E+00
          1   -1    0    0  501    0  0.00000000000E+00  0.00000000000E+00  0.16376055392E+03  0.16376055392E+03  0.00000000000E+00 0. -1.
         -1   -1    0    0    0  501 -0.00000000000E+00 -0.00000000000E+00 -0.11411956269E+03  0.11411956269E+03  0.00000000000E+00 0.  1.
         23    2    1    2    0    0  0.67829675665E+02  0.40619809485E+02 -0.51641290294E+01  0.14799092378E+03  0.12499524578E+03 0.  0.
          5    1    3    3  502    0 -0.17561538294E+02 -0.13367938708E+02  0.32929195700E+02  0.39919059883E+02  0.47000000000E+01 0. -1.
         -5    1    3    3    0  502  0.85391213959E+02  0.53987748193E+02 -0.38093324729E+02  0.10807186389E+03  0.47000000000E+01 0. -1.
        -11    1    1    2    0    0 -0.24357346237E+02 -0.46459623549E+02  0.66302400639E+02  0.84544575619E+02  0.00000000000E+00 0. -1.
         11    1    1    2    0    0 -0.43472329428E+02  0.58398140643E+01 -0.11497280375E+02  0.45344617213E+02  0.00000000000E+00 0.  1.
<mgrwt>
<rscale>  0 0.13971018E+03</rscale>
<asrwt>0</asrwt>
<pdfrwt beam="1">  1        1 0.25193931E-01 0.14790080E+03</pdfrwt>
<pdfrwt beam="2">  1       -1 0.17556856E-01 0.14790080E+03</pdfrwt>
<totfact> 0.45469561E+03</totfact>
</mgrwt>
</event>
<event>
 6    1  0.8712071E-006  0.1489177E+03  0.7546771E-02  0.1220147E+00
          2   -1    0    0  501    0  0.00000000000E+00  0.00000000000E+00  0.16712803659E+03  0.16712803659E+03  0.00000000000E+00 0. -1.
         -2   -1    0    0    0  501 -0.00000000000E+00 -0.00000000000E+00 -0.96887929501E+02  0.96887929501E+02  0.00000000000E+00 0.  1.
          5    1    1    2  502    0 -0.12329952182E+02 -0.80335551832E+02  0.59525263207E+02  0.10085224623E+03  0.47000000000E+01 0. -1.
         -5    1    1    2    0  502 -0.22207276800E+02  0.57637371350E+02  0.73099007597E+01  0.62375911762E+02  0.47000000000E+01 0.  1.
        -11    1    1    2    0    0  0.13713434189E+02  0.11166754930E+02 -0.44176277946E+02  0.47584642755E+02  0.00000000000E+00 0.  1.
         11    1    1    2    0    0  0.20823794793E+02  0.11531425552E+02  0.47581221071E+02  0.53203165352E+02  0.00000000000E+00 0. -1.
<mgrwt>
<rscale>  0 0.13505163E+03</rscale>
<asrwt>0</asrwt>
<pdfrwt beam="1">  1        2 0.25712006E-01 0.14891774E+03</pdfrwt>
<pdfrwt beam="2">  1       -2 0.14905835E-01 0.14891774E+03</pdfrwt>
<totfact> 0.68858210E+03</totfact>
</mgrwt>
</event>
<event>
 7    1  0.8712071E-006  0.1375616E+03  0.7546771E-02  0.1228158E+00
         -1   -1    0    0    0  501 -0.00000000000E+00  0.00000000000E+00  0.20911567832E+02  0.20911567832E+02  0.00000000000E+00 0.  1.
          1   -1    0    0  501    0  0.00000000000E+00 -0.00000000000E+00 -0.72814707134E+03  0.72814707134E+03  0.00000000000E+00 0. -1.
         23    2    1    2    0    0  0.55057673090E+02  0.16311630253E+02 -0.36056901445E+03  0.38591866134E+03  0.12500312935E+03 0.  0.
          5    1    3    3  502    0  0.34036809467E+02 -0.49861594723E+02 -0.23144950527E+03  0.23923972605E+03  0.47000000000E+01 0.  1.
         -5    1    3    3    0  502  0.21020863623E+02  0.66173224976E+02 -0.12911950917E+03  0.14667893530E+03  0.47000000000E+01 0.  1.
        -11    1    1    2    0    0 -0.22177314177E+02 -0.53362182808E+02 -0.20858389827E+03  0.21644075041E+03  0.00000000000E+00 0.  1.
         11    1    1    2    0    0 -0.32880358913E+02  0.37050552555E+02 -0.13808259079E+03  0.14669922742E+03  0.00000000000E+00 0. -1.
<mgrwt>
<rscale>  0 0.12952800E+03</rscale>
<asrwt>0</asrwt>
<pdfrwt beam="2">  1        1 0.11202264E+00 0.13756162E+03</pdfrwt>
<pdfrwt beam="1">  1       -1 0.32171640E-02 0.13756162E+03</pdfrwt>
<totfact> 0.86966211E+03</totfact>
</mgrwt>
</event>
<event>
 7    1  0.8712071E-006  0.1699707E+03  0.7546771E-02  0.1186623E+00
          1   -1    0    0  501    0  0.00000000000E+00  0.00000000000E+00  0.42347231364E+02  0.42347231364E+02  0.00000000000E+00 0. -1.
         -1   -1    0    0    0  501 -0.00000000000E+00 -0.00000000000E+00 -0.56814880606E+03  0.56814880606E+03  0.00000000000E+00 0.  1.
         23    2    1    2    0    0 -0.57536125518E+02  0.99779310019E+02 -0.30582472713E+03  0.34988400338E+03  0.12499494250E+03 0.  0.
          5    1    3    3  502    0 -0.87369467773E+02  0.27784645902E+02 -0.17113413366E+03  0.19420193652E+03  0.47000000000E+01 0. -1.
         -5    1    3    3    0  502  0.29833342255E+02  0.71994664116E+02 -0.13469059347E+03  0.15568206686E+03  0.47000000000E+01 0. -1.
        -11    1    1    2    0    0  0.26148849913E+02 -0.79002020228E+02 -0.79169518626E+02  0.11486032488E+03  0.00000000000E+00 0. -1.
         11    1    1    2    0    0  0.31387275605E+02 -0.20777289791E+02 -0.14080732894E+03  0.14575170917E+03  0.00000000000E+00 0.  1.
<mgrwt>
<rscale>  0 0.16185090E+03</rscale>
<asrwt>0</asrwt>
<pdfrwt beam="1">  1        1 0.65149587E-02 0.16997074E+03</pdfrwt>
<pdfrwt beam="2">  1       -1 0.87407508E-01 0.16997074E+03</pdfrwt>
<totfact> 0.15358045E+03</totfact>
</mgrwt>
</event>
<event>
 7    1  0.8712071E-006  0.1253599E+03  0.7546771E-02  0.1250082E+00
          1   -1    0    0  501    0  0.00000000000E+00  0.00000000000E+00  0.69533765438E+02  0.69533765438E+02  0.00000000000E+00 0. -1.
         -1   -1    0    0    0  501 -0.00000000000E+00 -0.00000000000E+00 -0.22786693420E+03  0.22786693420E+03  0.00000000000E+00 0.  1.
         23    2    1    2    0    0 -0.68233909273E+01 -0.65524653331E+01 -0.16320731986E+03  0.20579536402E+03  0.12500243650E+03 0.  0.
          5    1    3    3  502    0  0.14351374940E+02 -0.22733954923E-01 -0.17806597436E+03  0.17870518656E+03  0.47000000000E+01 0.  1.
         -5    1    3    3    0  502 -0.21174765867E+02 -0.65297313782E+01  0.14858654497E+02  0.27090177461E+02  0.47000000000E+01 0.  1.
        -11    1    1    2    0    0  0.61882926771E+00  0.43023803547E+02 -0.19563987843E+02  0.47267115859E+02  0.00000000000E+00 0.  1.
         11    1    1    2    0    0  0.62045616596E+01 -0.36471338214E+02  0.24438138940E+02  0.44338219759E+02  0.00000000000E+00 0. -1.
<mgrwt>
<rscale>  0 0.11586313E+03</rscale>
<asrwt>0</asrwt>
<pdfrwt beam="1">  1        1 0.10697502E-01 0.12535989E+03</pdfrwt>
<pdfrwt beam="2">  1       -1 0.35056451E-01 0.12535989E+03</pdfrwt>
<totfact> 0.43477567E+03</totfact>
</mgrwt>
</event>
<event>
 7    1  0.8712071E-006  0.1278190E+03  0.7546771E-02  0.1244943E+00
          2   -1    0    0  501    0  0.00000000000E+00  0.00000000000E+00  0.36870838459E+03  0.36870838459E+03  0.00000000000E+00 0. -1.
         -2   -1    0    0    0  501 -0.00000000000E+00 -0.00000000000E+00 -0.34363604778E+02  0.34363604778E+02  0.00000000000E+00 0.  1.
         23    2    1    2    0    0  0.22230444657E+02  0.14876102419E+02  0.16685877678E+03  0.21018933931E+03  0.12498886302E+03 0.  0.
          5    1    3    3  502    0 -0.38766913364E+02  0.38739235441E+02  0.11138483627E+03  0.12422670279E+03  0.47000000000E+01 0. -1.
         -5    1    3    3    0  502  0.60997358021E+02 -0.23863133022E+02  0.55473940510E+02  0.85962636528E+02  0.47000000000E+01 0. -1.
        -11    1    1    2    0    0  0.21264706923E+02 -0.33902037813E+02  0.38888477342E+02  0.55801878090E+02  0.00000000000E+00 0.  1.
         11    1    1    2    0    0 -0.43495151580E+02  0.19025935394E+02  0.12859752569E+03  0.13708077196E+03  0.00000000000E+00 0. -1.
<mgrwt>
<rscale>  0 0.11888774E+03</rscale>
<asrwt>0</asrwt>
<pdfrwt beam="1">  1        2 0.56724364E-01 0.12781904E+03</pdfrwt>
<pdfrwt beam="2">  1       -2 0.52867087E-02 0.12781904E+03</pdfrwt>
<totfact> 0.14708002E+04</totfact>
</mgrwt>
</event>
<event>
 7    1  0.8712071E-006  0.1616580E+03  0.7546771E-02  0.1194229E+00
          3   -1    0    0  501    0  0.00000000000E+00  0.00000000000E+00  0.40548171256E+03  0.40548171256E+03  0.00000000000E+00 0. -1.
         -3   -1    0    0    0  501 -0.00000000000E+00 -0.00000000000E+00 -0.93228236388E+02  0.93228236388E+02  0.00000000000E+00 0.  1.
         23    2    1    2    0    0  0.50626432666E+02  0.89171490529E+02  0.45132025271E+01  0.16172095087E+03  0.12497482364E+03 0.  0.
          5    1    3    3  502    0 -0.82886997565E+01  0.10094060149E+03  0.21619195596E+01  0.10141238321E+03  0.47000000000E+01 0. -1.
         -5    1    3    3    0  502  0.58915132423E+02 -0.11769110957E+02  0.23512829675E+01  0.60308567656E+02  0.47000000000E+01 0. -1.
        -11    1    1    2    0    0  0.24768321185E+01  0.12309311643E+02  0.53756208867E+01  0.13658372904E+02  0.00000000000E+00 0.  1.
         11    1    1    2    0    0 -0.53103264785E+02 -0.10148080217E+03  0.30236465276E+03  0.32333062518E+03  0.00000000000E+00 0. -1.
<mgrwt>
<rscale>  0 0.15519702E+03</rscale>
<asrwt>0</asrwt>
<pdfrwt beam="1">  1        3 0.62381801E-01 0.16165796E+03</pdfrwt>
<pdfrwt beam="2">  1       -3 0.14342806E-01 0.16165796E+03</pdfrwt>
<totfact> 0.24284033E+02</totfact>
</mgrwt>
</event>
<event>
 7    1  0.8712071E-006  0.1329392E+03  0.7546771E-02  0.1235413E+00
          2   -1    0    0  501    0  0.00000000000E+00  0.00000000000E+00  0.30745005280E+03  0.30745005280E+03  0.00000000000E+00 0. -1.
         -2   -1    0    0    0  501 -0.00000000000E+00 -0.00000000000E+00 -0.45362331729E+02  0.45362331729E+02  0.00000000000E+00 0.  1.
         23    2    1    2    0    0 -0.18651553180E+02 -0.41233610595E+02  0.14344637177E+03  0.19557531878E+03  0.12499901065E+03 0.  0.
          5    1    3    3  502    0 -0.49199516890E+02  0.34411595248E+01  0.13070148379E+03  0.13977625659E+03  0.47000000000E+01 0.  1.
         -5    1    3    3    0  502  0.30547963710E+02 -0.44674770120E+02  0.12744887980E+02  0.55799062194E+02  0.47000000000E+01 0.  1.
        -11    1    1    2    0    0  0.47665758853E+02  0.81257134889E+01  0.26545979238E+02  0.55161044229E+02  0.00000000000E+00 0. -1.
         11    1    1    2    0    0 -0.29014205673E+02  0.33107897106E+02  0.92095370060E+02  0.10207602151E+03  0.00000000000E+00 0.  1.
<mgrwt>
<rscale>  0 0.12478059E+03</rscale>
<asrwt>0</asrwt>
<pdfrwt beam="1">  1        2 0.47300007E-01 0.13293925E+03</pdfrwt>
<pdfrwt beam="2">  1       -2 0.69788205E-02 0.13293925E+03</pdfrwt>
<totfact> 0.11743138E+04</totfact>
</mgrwt>
</event>
<event>
 7    1  0.8712071E-006  0.1363538E+03  0.7546771E-02  0.1229506E+00
         -2   -1    0    0    0  501 -0.00000000000E+00  0.00000000000E+00  0.46869814790E+02  0.46869814790E+02  0.00000000000E+00 0.  1.
          2   -1    0    0  501    0  0.00000000000E+00 -0.00000000000E+00 -0.36344282105E+03  0.36344282105E+03  0.00000000000E+00 0. -1.
         23    2    1    2    0    0 -0.31718565911E+02  0.44255251854E+02 -0.10261724859E+03  0.17065361338E+03  0.12501104476E+03 0.  0.
          5    1    3    3  502    0 -0.11940051848E+02  0.59193278010E+02  0.43764278909E+01  0.60726041537E+02  0.47000000000E+01 0.  1.
         -5    1    3    3    0  502 -0.19778514063E+02 -0.14938026156E+02 -0.10699367648E+03  0.10992757184E+03  0.47000000000E+01 0.  1.
        -11    1    1    2    0    0  0.11595804409E+02  0.24527440152E+02 -0.22555600293E+02  0.35281909030E+02  0.00000000000E+00 0.  1.
         11    1    1    2    0    0  0.20122761502E+02 -0.68782692005E+02 -0.19140015737E+03  0.20437711343E+03  0.00000000000E+00 0. -1.
<mgrwt>
<rscale>  0 0.12862780E+03</rscale>
<asrwt>0</asrwt>
<pdfrwt beam="2">  1        2 0.55914279E-01 0.13635379E+03</pdfrwt>
<pdfrwt beam="1">  1       -2 0.72107409E-02 0.13635379E+03</pdfrwt>
<totfact> 0.93705067E+03</totfact>
</mgrwt>
</event>
<event>
 7    1  0.8712071E-006  0.1424225E+03  0.7546771E-02  0.1218899E+00
         -1   -1    0    0    0  501 -0.00000000000E+00  0.00000000000E+00  0.14650758892E+03  0.14650758892E+03  0.00000000000E+00 0.  1.
          1   -1    0    0  501    0  0.00000000000E+00 -0.00000000000E+00 -0.11716090984E+03  0.11716090984E+03  0.00000000000E+00 0. -1.
         23    2    1    2    0    0 -0.65927805324E+02  0.18296811252E+02  0.29562160250E+02  0.14545821956E+03  0.12491166280E+03 0.  0.
          5    1    3    3  502    0 -0.48078887960E+02 -0.34627082701E+02 -0.27484531387E+02  0.65483614664E+02  0.47000000000E+01 0. -1.
         -5    1    3    3    0  502 -0.17848917364E+02  0.52923893953E+02  0.57046691638E+02  0.79974604901E+02  0.47000000000E+01 0. -1.
        -11    1    1    2    0    0  0.28985460535E+02 -0.45419994546E+02  0.31558917771E+02  0.62442758730E+02  0.00000000000E+00 0.  1.
         11    1    1    2    0    0  0.36942344789E+02  0.27123183294E+02 -0.31774398938E+02  0.55767520461E+02  0.00000000000E+00 0. -1.
<mgrwt>
<rscale>  0 0.13594011E+03</rscale>
<asrwt>0</asrwt>
<pdfrwt beam="2">  1        1 0.18024755E-01 0.14242251E+03</pdfrwt>
<pdfrwt beam="1">  1       -1 0.22539629E-01 0.14242251E+03</pdfrwt>
<totfact> 0.46437120E+03</totfact>
</mgrwt>
</event>
<event>
 6    1  0.8712071E-006  0.1670031E+03  0.7546771E-02  0.1209223E+00
          2   -1    0    0  501    0  0.00000000000E+00  0.00000000000E+00  0.35399553879E+03  0.35399553879E+03  0.00000000000E+00 0. -1.
         -2   -1    0    0    0  501 -0.00000000000E+00 -0.00000000000E+00 -0.83819042307E+02  0.83819042307E+02  0.00000000000E+00 0.  1.
          5    1    1    2  502    0  0.35890947014E+02  0.38202517157E+02  0.71721951522E+02  0.88959095796E+02  0.47000000000E+01 0. -1.
         -5    1    1    2    0  502 -0.39403806294E+02 -0.38357335434E+02 -0.56194138228E+02  0.78764308562E+02  0.47000000000E+01 0.  1.
        -11    1    1    2    0    0  0.21650072987E+02 -0.32654106480E+02  0.58603756087E+02  0.70494088816E+02  0.00000000000E+00 0.  1.
         11    1    1    2    0    0 -0.18137213707E+02  0.32808924757E+02  0.19604492710E+03  0.19959708793E+03  0.00000000000E+00 0. -1.
<mgrwt>
<rscale>  0 0.14309552E+03</rscale>
<asrwt>0</asrwt>
<pdfrwt beam="1">  1        2 0.54460851E-01 0.16700308E+03</pdfrwt>
<pdfrwt beam="2">  1       -2 0.12895237E-01 0.16700308E+03</pdfrwt>
<totfact> 0.39108855E+03</totfact>
</mgrwt>
</event>
<event>
 7    1  0.8712071E-006  0.1418074E+03  0.7546771E-02  0.1221818E+00
         -2   -1    0    0    0  501 -0.00000000000E+00  0.00000000000E+00  0.26108543446E+03  0.26108543446E+03  0.00000000000E+00 0. -1.
          2   -1    0    0  501    0  0.00000000000E+00 -0.00000000000E+00 -0.65925124346E+02  0.65925124346E+02  0.00000000000E+00 0.  1.
         23    2    1    2    0    0  0.59291935593E+02 -0.31079347176E+02  0.14777805601E+03  0.20481132804E+03  0.12501146671E+03 0.  0.
          5    1    3    3  502    0  0.76034799365E+02  0.22740723888E+02  0.11383349528E+03  0.13884734742E+03  0.47000000000E+01 0. -1.
         -5    1    3    3    0  502 -0.16742863772E+02 -0.53820071064E+02  0.33944560730E+02  0.65963980624E+02  0.47000000000E+01 0. -1.
        -11    1    1    2    0    0 -0.47325452728E+02 -0.23135134413E+02  0.40100947929E+02  0.66204372552E+02  0.00000000000E+00 0. -1.
         11    1    1    2    0    0 -0.11966482865E+02  0.54214481589E+02  0.72813061725E+01  0.55994858208E+02  0.00000000000E+00 0.  1.
<mgrwt>
<rscale>  0 0.13387405E+03</rscale>
<asrwt>0</asrwt>
<pdfrwt beam="2">  1        2 0.10142327E-01 0.14180736E+03</pdfrwt>
<pdfrwt beam="1">  1       -2 0.40166990E-01 0.14180736E+03</pdfrwt>
<totfact> 0.35702445E+03</totfact>
</mgrwt>
</event>
<event>
 7    1  0.8712071E-006  0.1796441E+03  0.7546771E-02  0.1173543E+00
          2   -1    0    0  501    0  0.00000000000E+00  0.00000000000E+00  0.50736933662E+03  0.50736933662E+03  0.00000000000E+00 0. -1.
         -2   -1    0    0    0  501 -0.00000000000E+00 -0.00000000000E+00 -0.66177714580E+02  0.66177714580E+02  0.00000000000E+00 0.  1.
         23    2    1    2    0    0 -0.93611706344E+02 -0.88873210515E+02  0.12237924425E+03  0.21736761910E+03  0.12494159955E+03 0.  0.
          5    1    3    3  502    0 -0.61656171347E+02  0.19146994518E+02  0.61249343177E+02  0.89116008123E+02  0.47000000000E+01 0.  1.
         -5    1    3    3    0  502 -0.31955534997E+02 -0.10802020503E+03  0.61129901070E+02  0.12825161097E+03  0.47000000000E+01 0.  1.
        -11    1    1    2    0    0  0.94092499592E+02  0.55411369589E+02  0.15890124087E+03  0.19280410449E+03  0.00000000000E+00 0.  1.
         11    1    1    2    0    0 -0.48079324857E+00  0.33461840926E+02  0.15991113692E+03  0.16337532761E+03  0.00000000000E+00 0. -1.
<mgrwt>
<rscale>  0 0.17419398E+03</rscale>
<asrwt>0</asrwt>
<pdfrwt beam="1">  1        2 0.78056818E-01 0.17964410E+03</pdfrwt>
<pdfrwt beam="2">  1       -2 0.10181187E-01 0.17964410E+03</pdfrwt>
<totfact> 0.38721534E+03</totfact>
</mgrwt>
</event>
<event>
 7    1  0.8712071E-006  0.1412440E+03  0.7546771E-02  0.1221797E+00
          2   -1    0    0  501    0  0.00000000000E+00  0.00000000000E+00  0.12591990185E+03  0.12591990185E+03  0.00000000000E+00 0. -1.
         -2   -1    0    0    0  501 -0.00000000000E+00 -0.00000000000E+00 -0.13132620200E+03  0.13132620200E+03  0.00000000000E+00 0.  1.
         23    2    1    2    0    0  0.60468165328E+02  0.25836115255E+02 -0.18513329383E+02  0.14245213178E+03  0.12500385040E+03 0.  0.
          5    1    3    3  502    0  0.65083106014E+02 -0.30829719009E+02  0.18432761646E+02  0.74485830629E+02  0.47000000000E+01 0.  1.
         -5    1    3    3    0  502 -0.46149406863E+01  0.56665834264E+02 -0.36946091029E+02  0.67966301155E+02  0.47000000000E+01 0.  1.
        -11    1    1    2    0    0 -0.71190776928E+02 -0.47960361173E+01  0.37699451159E+02  0.80699301730E+02  0.00000000000E+00 0. -1.
         11    1    1    2    0    0  0.10722611600E+02 -0.21040079138E+02 -0.24592421926E+02  0.34094670343E+02  0.00000000000E+00 0.  1.
<mgrwt>
<rscale>  0 0.13388900E+03</rscale>
<asrwt>0</asrwt>
<pdfrwt beam="1">  1        2 0.19372292E-01 0.14124400E+03</pdfrwt>
<pdfrwt beam="2">  1       -2 0.20204031E-01 0.14124400E+03</pdfrwt>
<totfact> 0.56770174E+03</totfact>
</mgrwt>
</event>
<event>
 7    1  0.8712071E-006  0.1316219E+03  0.7546771E-02  0.1238426E+00
          3   -1    0    0  501    0  0.00000000000E+00  0.00000000000E+00  0.82588736907E+01  0.82588736907E+01  0.00000000000E+00 0.  1.
         -3   -1    0    0    0  501 -0.00000000000E+00 -0.00000000000E+00 -0.19783471772E+04  0.19783471772E+04  0.00000000000E+00 0. -1.
         23    2    1    2    0    0 -0.40323817389E+02  0.85588526144E+01 -0.15128996965E+04  0.15186144384E+04  0.12500022635E+03 0.  0.
          5    1    3    3  502    0 -0.10511710363E+02  0.45093900587E+02 -0.22107181759E+03  0.22591767186E+03  0.47000000000E+01 0. -1.
         -5    1    3    3    0  502 -0.29812107025E+02 -0.36535047973E+02 -0.12918278790E+04  0.12926967666E+04  0.47000000000E+01 0. -1.
        -11    1    1    2    0    0 -0.25955335797E+02  0.13483831049E+02 -0.10832417061E+03  0.11220347185E+03  0.00000000000E+00 0.  1.
         11    1    1    2    0    0  0.66279153185E+02 -0.22042683664E+02 -0.34886443632E+03  0.35578814058E+03  0.00000000000E+00 0. -1.
<mgrwt>
<rscale>  0 0.12287611E+03</rscale>
<asrwt>0</asrwt>
<pdfrwt beam="1">  1        3 0.12705938E-02 0.13162189E+03</pdfrwt>
<pdfrwt beam="2">  1       -3 0.30436162E+00 0.13162189E+03</pdfrwt>
<totfact> 0.18965094E+02</totfact>
</mgrwt>
</event>
<event>
 7    1  0.8712071E-006  0.1321774E+03  0.7546771E-02  0.1236731E+00
          2   -1    0    0  501    0  0.00000000000E+00  0.00000000000E+00  0.16028510686E+03  0.16028510686E+03  0.00000000000E+00 0. -1.
         -2   -1    0    0    0  501 -0.00000000000E+00 -0.00000000000E+00 -0.99780214014E+02  0.99780214014E+02  0.00000000000E+00 0.  1.
         23    2    1    2    0    0  0.42021339047E+02  0.89558056100E+01 -0.14973430469E+02  0.13302283422E+03  0.12499948566E+03 0.  0.
          5    1    3    3  502    0  0.60715266273E+00 -0.40420995517E+02  0.33121308699E+02  0.52472246025E+02  0.47000000000E+01 0.  1.
         -5    1    3    3    0  502  0.41414186384E+02  0.49376801127E+02 -0.48094739168E+02  0.80550588198E+02  0.47000000000E+01 0.  1.
        -11    1    1    2    0    0  0.24974675904E+02  0.13304558853E+02  0.80556252869E+01  0.29421740627E+02  0.00000000000E+00 0.  1.
         11    1    1    2    0    0 -0.66996014951E+02 -0.22260364463E+02  0.67422698031E+02  0.97620746028E+02  0.00000000000E+00 0. -1.
<mgrwt>
<rscale>  0 0.12394247E+03</rscale>
<asrwt>0</asrwt>
<pdfrwt beam="1">  1        2 0.24659247E-01 0.13217742E+03</pdfrwt>
<pdfrwt beam="2">  1       -2 0.15350802E-01 0.13217742E+03</pdfrwt>
<totfact> 0.68161381E+03</totfact>
</mgrwt>
</event>
<event>
 7    1  0.8712071E-006  0.1739233E+03  0.7546771E-02  0.1180032E+00
         -2   -1    0    0    0  501 -0.00000000000E+00  0.00000000000E+00  0.89062181923E+02  0.89062181923E+02  0.00000000000E+00 0.  1.
          2   -1    0    0  501    0  0.00000000000E+00 -0.00000000000E+00 -0.29996688956E+03  0.29996688956E+03  0.00000000000E+00 0. -1.
         23    2    1    2    0    0 -0.11774294823E+03  0.27581044327E+02 -0.92184658927E+02  0.19684344210E+03  0.12500085397E+03 0.  0.
          5    1    3    3  502    0 -0.12483671889E+03 -0.12214687786E+02 -0.92870478213E+02  0.15614230914E+03  0.47000000000E+01 0. -1.
         -5    1    3    3    0  502  0.70937706553E+01  0.39795732113E+02  0.68581928553E+00  0.40701132965E+02  0.47000000000E+01 0. -1.
        -11    1    1    2    0    0  0.56905471886E+02 -0.27487187491E+01 -0.11259805378E+03  0.12619076789E+03  0.00000000000E+00 0.  1.
         11    1    1    2    0    0  0.60837476344E+02 -0.24832325578E+02 -0.61219949319E+01  0.65994861493E+02  0.00000000000E+00 0. -1.
<mgrwt>
<rscale>  0 0.16792195E+03</rscale>
<asrwt>0</asrwt>
<pdfrwt beam="2">  1        2 0.46148752E-01 0.17392334E+03</pdfrwt>
<pdfrwt beam="1">  1       -2 0.13701874E-01 0.17392334E+03</pdfrwt>
<totfact> 0.42384862E+03</totfact>
</mgrwt>
</event>
<event>
 7    1  0.8712071E-006  0.1453742E+03  0.7546771E-02  0.1216071E+00
         -2   -1    0    0    0  501 -0.00000000000E+00  0.00000000000E+00  0.89506768493E+02  0.89506768493E+02  0.00000000000E+00 0.  1.
          2   -1    0    0  501    0  0.00000000000E+00 -0.00000000000E+00 -0.20867480181E+03  0.20867480181E+03  0.00000000000E+00 0. -1.
         23    2    1    2    0    0  0.64183087924E+01 -0.73945927790E+02 -0.25626989333E+02  0.14761570403E+03  0.12499783426E+03 0.  0.
          5    1    3    3  502    0  0.35478931454E+02  0.13226006473E+02  0.21967036243E+02  0.44026384199E+02  0.47000000000E+01 0.  1.
         -5    1    3    3    0  502 -0.29060622661E+02 -0.87171934263E+02 -0.47594025576E+02  0.10358931983E+03  0.47000000000E+01 0.  1.
        -11    1    1    2    0    0 -0.14904994286E+02  0.29782160369E+02 -0.99754384005E+02  0.10516688195E+03  0.00000000000E+00 0. -1.
         11    1    1    2    0    0  0.84866854938E+01  0.44163767421E+02  0.62133400193E+01  0.45398984324E+02  0.00000000000E+00 0.  1.
<mgrwt>
<rscale>  0 0.13798153E+03</rscale>
<asrwt>0</asrwt>
<pdfrwt beam="2">  1        2 0.32103816E-01 0.14537418E+03</pdfrwt>
<pdfrwt beam="1">  1       -2 0.13770272E-01 0.14537418E+03</pdfrwt>
<totfact> 0.61403252E+03</totfact>
</mgrwt>
</event>
<event>
 7    1  0.8712071E-006  0.1383573E+03  0.7546771E-02  0.1226597E+00
         -1   -1    0    0    0  501 -0.00000000000E+00  0.00000000000E+00  0.13756148919E+03  0.13756148919E+03  0.00000000000E+00 0.  1.
          1   -1    0    0  501    0  0.00000000000E+00 -0.00000000000E+00 -0.14042722460E+03  0.14042722460E+03  0.00000000000E+00 0. -1.
         23    2    1    2    0    0  0.39967102110E+02  0.43818423017E+02  0.60754612524E+02  0.15110875702E+03  0.12500124022E+03 0.  0.
          5    1    3    3  502    0 -0.42776376505E+02 -0.21839002162E+01  0.24898210633E+02  0.49765436798E+02  0.47000000000E+01 0.  1.
         -5    1    3    3    0  502  0.82743478614E+02  0.46002323233E+02  0.35856401892E+02  0.10134332022E+03  0.47000000000E+01 0.  1.
        -11    1    1    2    0    0 -0.33104471831E+02  0.57830060022E+01  0.12424778466E+02  0.35829098978E+02  0.00000000000E+00 0. -1.
         11    1    1    2    0    0 -0.68626302789E+01 -0.49601429019E+02 -0.76045126399E+02  0.91050857789E+02  0.00000000000E+00 0.  1.
<mgrwt>
<rscale>  0 0.13058078E+03</rscale>
<asrwt>0</asrwt>
<pdfrwt beam="2">  1        1 0.21604188E-01 0.13835727E+03</pdfrwt>
<pdfrwt beam="1">  1       -1 0.21163306E-01 0.13835727E+03</pdfrwt>
<totfact> 0.40767329E+03</totfact>
</mgrwt>
</event>
<event>
 6    1  0.8712071E-006  0.1527505E+03  0.7546771E-02  0.1214575E+00
         -1   -1    0    0    0  501 -0.00000000000E+00  0.00000000000E+00  0.76646643152E+02  0.76646643152E+02  0.00000000000E+00 0.  1.
          1   -1    0    0  501    0  0.00000000000E+00 -0.00000000000E+00 -0.24143699390E+03  0.24143699390E+03  0.00000000000E+00 0. -1.
          5    1    1    2  502    0  0.39043626492E+02  0.45184990070E+02 -0.30019078205E+02  0.67002411551E+02  0.47000000000E+01 0. -1.
         -5    1    1    2    0  502 -0.16627911353E+02 -0.89472630318E+02 -0.15916068677E+02  0.92505406621E+02  0.47000000000E+01 0.  1.
        -11    1    1    2    0    0 -0.20060789257E+02  0.70662490735E+01 -0.11939648284E+03  0.12127607866E+03  0.00000000000E+00 0.  1.
         11    1    1    2    0    0 -0.23549258820E+01  0.37221391174E+02  0.54127898078E+00  0.37299740211E+02  0.00000000000E+00 0. -1.
<mgrwt>
<rscale>  0 0.13907795E+03</rscale>
<asrwt>0</asrwt>
<pdfrwt beam="2">  1        1 0.37144152E-01 0.15275047E+03</pdfrwt>
<pdfrwt beam="1">  1       -1 0.11791792E-01 0.15275047E+03</pdfrwt>
<totfact> 0.52361856E+03</totfact>
</mgrwt>
</event>
<event>
 7    1  0.8712071E-006  0.1372948E+03  0.7546771E-02  0.1218812E+00
          1   -1    0    0  501    0  0.00000000000E+00  0.00000000000E+00  0.66303794006E+02  0.66303794006E+02  0.00000000000E+00 0. -1.
         -1   -1    0    0    0  501 -0.00000000000E+00 -0.00000000000E+00 -0.28479221473E+03  0.28479221473E+03  0.00000000000E+00 0.  1.
         23    2    1    2    0    0  0.38973843454E+02  0.40970682684E+02 -0.14566150080E+03  0.20016776360E+03  0.12510916614E+03 0.  0.
          5    1    3    3  502    0 -0.54670058111E+01  0.74427304661E+02 -0.51818557200E+02  0.90975626966E+02  0.47000000000E+01 0.  1.
         -5    1    3    3    0  502  0.44440849265E+02 -0.33456621976E+02 -0.93842943605E+02  0.10919213663E+03  0.47000000000E+01 0.  1.
        -11    1    1    2    0    0  0.28677076142E+02 -0.33291385294E+02 -0.70168786625E+02  0.82790999796E+02  0.00000000000E+00 0.  1.
         11    1    1    2    0    0 -0.67650919596E+02 -0.76792973908E+01 -0.26581332968E+01  0.68137245345E+02  0.00000000000E+00 0. -1.
<mgrwt>
<rscale>  0 0.13600175E+03</rscale>
<asrwt>0</asrwt>
<pdfrwt beam="1">  1        1 0.10200584E-01 0.13729480E+03</pdfrwt>
<pdfrwt beam="2">  1       -1 0.43814186E-01 0.13729480E+03</pdfrwt>
<totfact> 0.31536589E+03</totfact>
</mgrwt>
</event>
<event>
 7    1  0.8712071E-006  0.1365234E+03  0.7546771E-02  0.1229854E+00
          2   -1    0    0  501    0  0.00000000000E+00  0.00000000000E+00  0.44789451750E+03  0.44789451750E+03  0.00000000000E+00 0. -1.
         -2   -1    0    0    0  501 -0.00000000000E+00 -0.00000000000E+00 -0.34721739520E+02  0.34721739520E+02  0.00000000000E+00 0.  1.
         23    2    1    2    0    0 -0.54900716796E+02  0.39774882439E+00  0.17800794108E+03  0.22433339134E+03  0.12499758586E+03 0.  0.
          5    1    3    3  502    0 -0.38077155071E+02  0.49295605469E+02  0.15580618657E+03  0.16786180098E+03  0.47000000000E+01 0.  1.
         -5    1    3    3    0  502 -0.16823561725E+02 -0.48897856644E+02  0.22201754517E+02  0.56471590354E+02  0.47000000000E+01 0.  1.
        -11    1    1    2    0    0 -0.17185213475E+02 -0.22686879944E+02  0.40445803490E+02  0.49455930926E+02  0.00000000000E+00 0.  1.
         11    1    1    2    0    0  0.72085930271E+02  0.22289131120E+02  0.19471903340E+03  0.20882693475E+03  0.00000000000E+00 0. -1.
<mgrwt>
<rscale>  0 0.12839685E+03</rscale>
<asrwt>0</asrwt>
<pdfrwt beam="1">  1        2 0.68906845E-01 0.13652342E+03</pdfrwt>
<pdfrwt beam="2">  1       -2 0.53418064E-02 0.13652342E+03</pdfrwt>
<totfact> 0.11820913E+04</totfact>
</mgrwt>
</event>
<event>
 7    1  0.8712071E-006  0.1365525E+03  0.7546771E-02  0.1231244E+00
         -2   -1    0    0    0  501 -0.00000000000E+00  0.00000000000E+00  0.19397224992E+03  0.19397224992E+03  0.00000000000E+00 0. -1.
          2   -1    0    0  501    0  0.00000000000E+00 -0.00000000000E+00 -0.75383965678E+02  0.75383965678E+02  0.00000000000E+00 0.  1.
         23    2    1    2    0    0  0.46945524416E+02 -0.28612700932E+02  0.82486555808E+02  0.15953253138E+03  0.12499611099E+03 0.  0.
          5    1    3    3  502    0  0.79717902432E+02  0.14560626766E+01  0.82473090284E+02  0.11480838257E+03  0.47000000000E+01 0.  1.
         -5    1    3    3    0  502 -0.32772378016E+02 -0.30068763609E+02  0.13465524177E-01  0.44724148813E+02  0.47000000000E+01 0.  1.
        -11    1    1    2    0    0  0.93950781931E+01  0.42166128863E+02  0.35178738931E+01  0.43343111959E+02  0.00000000000E+00 0.  1.
         11    1    1    2    0    0 -0.56340602609E+02 -0.13553427931E+02  0.32583854538E+02  0.66480572257E+02  0.00000000000E+00 0. -1.
<mgrwt>
<rscale>  0 0.12747964E+03</rscale>
<asrwt>0</asrwt>
<pdfrwt beam="2">  1        2 0.11597533E-01 0.13655254E+03</pdfrwt>
<pdfrwt beam="1">  1       -2 0.29841884E-01 0.13655254E+03</pdfrwt>
<totfact> 0.52336981E+03</totfact>
</mgrwt>
</event>
<event>
 7    1  0.8712071E-006  0.1811516E+03  0.7546771E-02  0.1171299E+00
          3   -1    0    0  501    0  0.00000000000E+00  0.00000000000E+00  0.74029656075E+02  0.74029656075E+02  0.00000000000E+00 0. -1.
         -3   -1    0    0    0  501 -0.00000000000E+00 -0.00000000000E+00 -0.49431239038E+03  0.49431239038E+03  0.00000000000E+00 0.  1.
         23    2    1    2    0    0 -0.12695889978E+03 -0.32746899723E+02 -0.34310015540E+03  0.38798661833E+03  0.12499991076E+03 0.  0.
          5    1    3    3  502    0 -0.24134273577E+02 -0.54138165740E+02 -0.21066761785E+03  0.21889801133E+03  0.47000000000E+01 0.  1.
         -5    1    3    3    0  502 -0.10282462621E+03  0.21391266017E+02 -0.13243253755E+03  0.16908860700E+03  0.47000000000E+01 0.  1.
        -11    1    1    2    0    0  0.98413713158E+02  0.64916319729E+02 -0.68914183765E+02  0.13655970207E+03  0.00000000000E+00 0.  1.
         11    1    1    2    0    0  0.28545186625E+02 -0.32169420006E+02 -0.82683951395E+01  0.43795726061E+02  0.00000000000E+00 0. -1.
<mgrwt>
<rscale>  0 0.17643407E+03</rscale>
<asrwt>0</asrwt>
<pdfrwt beam="1">  1        3 0.11389178E-01 0.18115159E+03</pdfrwt>
<pdfrwt beam="2">  1       -3 0.76048057E-01 0.18115159E+03</pdfrwt>
<totfact> 0.23862677E+02</totfact>
</mgrwt>
</event>
<event>
 7    1  0.8712071E-006  0.1953641E+03  0.7546771E-02  0.1156325E+00
         -2   -1    0    0    0  501 -0.00000000000E+00  0.00000000000E+00  0.79513633659E+02  0.79513633659E+02  0.00000000000E+00 0.  1.
          2   -1    0    0  501    0  0.00000000000E+00 -0.00000000000E+00 -0.45649307721E+03  0.45649307721E+03  0.00000000000E+00 0. -1.
         23    2    1    2    0    0  0.13129464372E+03 -0.88925640629E+02 -0.16718544161E+03  0.25713441752E+03  0.11410996344E+03 0.  0.
          5    1    3    3  502    0 -0.67428750096E+01 -0.32794185707E+02 -0.73901539566E+02  0.81267782853E+02  0.47000000000E+01 0. -1.
         -5    1    3    3    0  502  0.13803751873E+03 -0.56131454922E+02 -0.93283902042E+02  0.17586663467E+03  0.47000000000E+01 0.  1.
        -11    1    1    2    0    0  0.96318700617E+01  0.16435513032E+02 -0.51372871549E+02  0.54791157505E+02  0.00000000000E+00 0.  1.
         11    1    1    2    0    0 -0.14092651378E+03  0.72490127597E+02 -0.15842113040E+03  0.22408113585E+03  0.00000000000E+00 0. -1.
<mgrwt>
<rscale>  0 0.19238794E+03</rscale>
<asrwt>0</asrwt>
<pdfrwt beam="2">  1        2 0.70229702E-01 0.19536411E+03</pdfrwt>
<pdfrwt beam="1">  1       -2 0.12232867E-01 0.19536411E+03</pdfrwt>
<totfact> 0.32553690E+03</totfact>
</mgrwt>
</event>
<event>
 7    1  0.8712071E-006  0.1644539E+03  0.7546771E-02  0.1190861E+00
         -2   -1    0    0    0  501 -0.00000000000E+00  0.00000000000E+00  0.30186222138E+03  0.30186222138E+03  0.00000000000E+00 0.  1.
          2   -1    0    0  501    0  0.00000000000E+00 -0.00000000000E+00 -0.81976393324E+02  0.81976393324E+02  0.00000000000E+00 0. -1.
         23    2    1    2    0    0 -0.66376463525E+02 -0.83764198253E+02  0.16520075859E+03  0.23310162131E+03  0.12499119729E+03 0.  0.
          5    1    3    3  502    0 -0.27226072602E+02 -0.58121918841E+01  0.13908806368E+03  0.14192469856E+03  0.47000000000E+01 0.  1.
         -5    1    3    3    0  502 -0.39150390922E+02 -0.77952006369E+02  0.26112694913E+02  0.91176922749E+02  0.47000000000E+01 0.  1.
        -11    1    1    2    0    0  0.16630470660E+02  0.77602187895E+01 -0.24239202009E+02  0.30402836448E+02  0.00000000000E+00 0. -1.
         11    1    1    2    0    0  0.49745992865E+02  0.76003979463E+02  0.78924271471E+02  0.12033415694E+03  0.00000000000E+00 0.  1.
<mgrwt>
<rscale>  0 0.15809831E+03</rscale>
<asrwt>0</asrwt>
<pdfrwt beam="2">  1        2 0.12611753E-01 0.16445387E+03</pdfrwt>
<pdfrwt beam="1">  1       -2 0.46440341E-01 0.16445387E+03</pdfrwt>
<totfact> 0.20889902E+03</totfact>
</mgrwt>
</event>
<event>
 6    1  0.8712071E-006  0.1520627E+03  0.7546771E-02  0.1210432E+00
         -1   -1    0    0    0  501 -0.00000000000E+00  0.00000000000E+00  0.43693379022E+03  0.43693379022E+03  0.00000000000E+00 0.  1.
          1   -1    0    0  501    0  0.00000000000E+00 -0.00000000000E+00 -0.14281716349E+03  0.14281716349E+03  0.00000000000E+00 0. -1.
          5    1    1    2  502    0  0.29518286266E+02 -0.82391742120E+02  0.14210689209E+03  0.16696163384E+03  0.47000000000E+01 0. -1.
         -5    1    1    2    0  502 -0.38274318463E+02  0.14188584795E+02  0.25453003898E+03  0.25782527055E+03  0.47000000000E+01 0.  1.
        -11    1    1    2    0    0  0.20572069845E+02  0.86154584465E+02 -0.99577508155E+02  0.13327228749E+03  0.00000000000E+00 0. -1.
         11    1    1    2    0    0 -0.11816037648E+02 -0.17951427140E+02 -0.29427961783E+01  0.21691761833E+02  0.00000000000E+00 0.  1.
<mgrwt>
<rscale>  0 0.14217478E+03</rscale>
<asrwt>0</asrwt>
<pdfrwt beam="2">  1        1 0.21971872E-01 0.15206268E+03</pdfrwt>
<pdfrwt beam="1">  1       -1 0.67220582E-01 0.15206268E+03</pdfrwt>
<totfact> 0.52681070E+02</totfact>
</mgrwt>
</event>
<event>
 7    1  0.8712071E-006  0.1548954E+03  0.7546771E-02  0.1202723E+00
          2   -1    0    0  501    0  0.00000000000E+00  0.00000000000E+00  0.14890844347E+03  0.14890844347E+03  0.00000000000E+00 0. -1.
         -2   -1    0    0    0  501 -0.00000000000E+00 -0.00000000000E+00 -0.16179019178E+03  0.16179019178E+03  0.00000000000E+00 0.  1.
         23    2    1    2    0    0 -0.27482814172E+02  0.87253479404E+02 -0.68712600726E+02  0.16945210795E+03  0.12499648254E+03 0.  0.
          5    1    3    3  502    0 -0.35183018157E+02  0.11733706864E+03 -0.47090931835E+02  0.13132204044E+03  0.47000000000E+01 0.  1.
         -5    1    3    3    0  502  0.77002039846E+01 -0.30083589237E+02 -0.21621668891E+02  0.38130067511E+02  0.47000000000E+01 0.  1.
        -11    1    1    2    0    0  0.34151303311E+02 -0.32931578362E+02 -0.16777466601E+02  0.50321802003E+02  0.00000000000E+00 0.  1.
         11    1    1    2    0    0 -0.66684891384E+01 -0.54321901042E+02  0.72608319017E+02  0.90924725299E+02  0.00000000000E+00 0. -1.
<mgrwt>
<rscale>  0 0.14818381E+03</rscale>
<asrwt>0</asrwt>
<pdfrwt beam="1">  1        2 0.22908991E-01 0.15489543E+03</pdfrwt>
<pdfrwt beam="2">  1       -2 0.24890799E-01 0.15489543E+03</pdfrwt>
<totfact> 0.32989320E+03</totfact>
</mgrwt>
</event>
<event>
 7    1  0.8712071E-006  0.1280238E+03  0.7546771E-02  0.1248394E+00
          3   -1    0    0  501    0  0.00000000000E+00  0.00000000000E+00  0.11524548252E+02  0.11524548252E+02  0.00000000000E+00 0. -1.
         -3   -1    0    0    0  501 -0.00000000000E+00 -0.00000000000E+00 -0.10590920350E+04  0.10590920350E+04  0.00000000000E+00 0.  1.
         23    2    1    2    0    0 -0.24813252178E+02  0.12172496364E+02 -0.71599112942E+03  0.72734681698E+03  0.12500491039E+03 0.  0.
          5    1    3    3  502    0 -0.48107046098E+02 -0.44542776538E+02 -0.41037676266E+03  0.41560741590E+03  0.47000000000E+01 0.  1.
         -5    1    3    3    0  502  0.23293793921E+02  0.56715272903E+02 -0.30561436676E+03  0.31173940108E+03  0.47000000000E+01 0.  1.
        -11    1    1    2    0    0  0.38319882289E+02 -0.32364400524E+02 -0.29581713614E+03  0.30003940713E+03  0.00000000000E+00 0.  1.
         11    1    1    2    0    0 -0.13506630111E+02  0.20191904160E+02 -0.35759221199E+02  0.43230359140E+02  0.00000000000E+00 0. -1.
<mgrwt>
<rscale>  0 0.11684531E+03</rscale>
<asrwt>0</asrwt>
<pdfrwt beam="1">  1        3 0.17730081E-02 0.12802381E+03</pdfrwt>
<pdfrwt beam="2">  1       -3 0.16293718E+00 0.12802381E+03</pdfrwt>
<totfact> 0.73164828E+02</totfact>
</mgrwt>
</event>
<event>
 7    1  0.8712071E-006  0.1335906E+03  0.7546771E-02  0.1234601E+00
         -2   -1    0    0    0  501 -0.00000000000E+00  0.00000000000E+00  0.12581494487E+03  0.12581494487E+03  0.00000000000E+00 0.  1.
          2   -1    0    0  501    0  0.00000000000E+00 -0.00000000000E+00 -0.12823282128E+03  0.12823282128E+03  0.00000000000E+00 0. -1.
         23    2    1    2    0    0  0.10623321359E+02  0.45920472347E+02  0.44091453762E+02  0.14067876838E+03  0.12499965936E+03 0.  0.
          5    1    3    3  502    0  0.64001978815E+02  0.43039528200E+02  0.12123685602E+02  0.78215906519E+02  0.47000000000E+01 0.  1.
         -5    1    3    3    0  502 -0.53378657456E+02  0.28809441463E+01  0.31967768160E+02  0.62462861863E+02  0.47000000000E+01 0.  1.
        -11    1    1    2    0    0 -0.76669912298E+01 -0.69900248354E+02 -0.12144399002E+02  0.71360450542E+02  0.00000000000E+00 0. -1.
         11    1    1    2    0    0 -0.29563301289E+01  0.23979776007E+02 -0.34364931174E+02  0.42008547223E+02  0.00000000000E+00 0.  1.
<mgrwt>
<rscale>  0 0.12530005E+03</rscale>
<asrwt>0</asrwt>
<pdfrwt beam="2">  1        2 0.19728126E-01 0.13359064E+03</pdfrwt>
<pdfrwt beam="1">  1       -2 0.19356145E-01 0.13359064E+03</pdfrwt>
<totfact> 0.59569220E+03</totfact>
</mgrwt>
</event>
<event>
 7    1  0.8712071E-006  0.1386225E+03  0.7546771E-02  0.1225565E+00
          2   -1    0    0  501    0  0.00000000000E+00  0.00000000000E+00  0.21692464185E+02  0.21692464185E+02  0.00000000000E+00 0. -1.
         -2   -1    0    0    0  501 -0.00000000000E+00 -0.00000000000E+00 -0.75498843850E+03  0.75498843850E+03  0.00000000000E+00 0.  1.
         23    2    1    2    0    0  0.19624872638E+02 -0.56629467102E+02 -0.48644381128E+03  0.50581002518E+03  0.12499667143E+03 0.  0.
          5    1    3    3  502    0  0.97840135473E+01  0.39474013820E+02 -0.11878629855E+03  0.12564314311E+03  0.47000000000E+01 0.  1.
         -5    1    3    3    0  502  0.98408590906E+01 -0.96103480923E+02 -0.36765751273E+03  0.38016688206E+03  0.47000000000E+01 0.  1.
        -11    1    1    2    0    0  0.12589563441E+02  0.63096454255E+02 -0.21748491100E+03  0.22680243861E+03  0.00000000000E+00 0.  1.
         11    1    1    2    0    0 -0.32214436079E+02 -0.64669871529E+01 -0.29367252041E+02  0.44068438901E+02  0.00000000000E+00 0. -1.
<mgrwt>
<rscale>  0 0.13128231E+03</rscale>
<asrwt>0</asrwt>
<pdfrwt beam="1">  1        2 0.33373015E-02 0.13862251E+03</pdfrwt>
<pdfrwt beam="2">  1       -2 0.11615209E+00 0.13862251E+03</pdfrwt>
<totfact> 0.15687590E+03</totfact>
</mgrwt>
</event>
<event>
 7    1  0.8712071E-006  0.1267054E+03  0.7546771E-02  0.1247494E+00
          2   -1    0    0  501    0  0.00000000000E+00  0.00000000000E+00  0.29743992887E+02  0.29743992887E+02  0.00000000000E+00 0. -1.
         -2   -1    0    0    0  501 -0.00000000000E+00 -0.00000000000E+00 -0.57877464762E+03  0.57877464762E+03  0.00000000000E+00 0.  1.
         23    2    1    2    0    0  0.18766588909E+02  0.72423389237E+01 -0.46829966048E+03  0.48513795240E+03  0.12509845929E+03 0.  0.
          5    1    3    3  502    0  0.53535808522E+02 -0.31975626822E+02 -0.35166919643E+03  0.35718599808E+03  0.47000000000E+01 0. -1.
         -5    1    3    3    0  502 -0.34769219613E+02  0.39217965745E+02 -0.11663046405E+03  0.12795195432E+03  0.47000000000E+01 0. -1.
        -11    1    1    2    0    0  0.25334682545E+02  0.25527818823E+02 -0.18773457840E+02  0.40570412776E+02  0.00000000000E+00 0. -1.
         11    1    1    2    0    0 -0.44101271454E+02 -0.32770157747E+02 -0.61957536414E+02  0.82810275335E+02  0.00000000000E+00 0.  1.
<mgrwt>
<rscale>  0 0.11737331E+03</rscale>
<asrwt>0</asrwt>
<pdfrwt beam="1">  1        2 0.45759990E-02 0.12670541E+03</pdfrwt>
<pdfrwt beam="2">  1       -2 0.89042251E-01 0.12670541E+03</pdfrwt>
<totfact> 0.18970734E+03</totfact>
</mgrwt>
</event>
<event>
 7    1  0.8712071E-006  0.1339426E+03  0.7546771E-02  0.1233871E+00
         -1   -1    0    0    0  501 -0.00000000000E+00  0.00000000000E+00  0.44834368624E+02  0.44834368624E+02  0.00000000000E+00 0.  1.
          1   -1    0    0  501    0  0.00000000000E+00 -0.00000000000E+00 -0.45268460161E+03  0.45268460161E+03  0.00000000000E+00 0. -1.
         23    2    1    2    0    0 -0.27612034361E+02  0.43500991080E+02 -0.85829889407E+02  0.15908293817E+03  0.12363596012E+03 0.  0.
          5    1    3    3  502    0 -0.48994282880E+02 -0.32394174799E+01 -0.94640100281E+02  0.10672287553E+03  0.47000000000E+01 0. -1.
         -5    1    3    3    0  502  0.21382248519E+02  0.46740408560E+02  0.88102108744E+01  0.52360062640E+02  0.47000000000E+01 0.  1.
        -11    1    1    2    0    0 -0.94484905353E+01 -0.58846148733E+02 -0.23774607040E+03  0.24510270742E+03  0.00000000000E+00 0. -1.
         11    1    1    2    0    0  0.37060524896E+02  0.15345157653E+02 -0.84274273185E+02  0.93333324648E+02  0.00000000000E+00 0.  1.
<mgrwt>
<rscale>  0 0.12576994E+03</rscale>
<asrwt>0</asrwt>
<pdfrwt beam="2">  1        1 0.69643787E-01 0.13394257E+03</pdfrwt>
<pdfrwt beam="1">  1       -1 0.68975949E-02 0.13394257E+03</pdfrwt>
<totfact> 0.53529305E+03</totfact>
</mgrwt>
</event>
<event>
 7    1  0.8712071E-006  0.2126550E+03  0.7546771E-02  0.1143191E+00
         -2   -1    0    0    0  501 -0.00000000000E+00  0.00000000000E+00  0.97622309103E+02  0.97622309103E+02  0.00000000000E+00 0.  1.
          2   -1    0    0  501    0  0.00000000000E+00 -0.00000000000E+00 -0.55018260924E+03  0.55018260924E+03  0.00000000000E+00 0. -1.
         23    2    1    2    0    0  0.18424315362E+02  0.17105301435E+03 -0.79386963568E+02  0.22698997278E+03  0.12499427444E+03 0.  0.
          5    1    3    3  502    0 -0.43743054246E+01  0.99332049495E+02 -0.10750794962E+03  0.14651293403E+03  0.47000000000E+01 0.  1.
         -5    1    3    3    0  502  0.22798620786E+02  0.71720964851E+02  0.28120986056E+02  0.80477038748E+02  0.47000000000E+01 0.  1.
        -11    1    1    2    0    0 -0.14443908838E+02 -0.35834161131E+02 -0.21938955340E+02  0.44430072788E+02  0.00000000000E+00 0.  1.
         11    1    1    2    0    0 -0.39804065237E+01 -0.13521885321E+03 -0.35123438123E+03  0.37638487278E+03  0.00000000000E+00 0. -1.
<mgrwt>
<rscale>  0 0.20796095E+03</rscale>
<asrwt>0</asrwt>
<pdfrwt beam="2">  1        2 0.84643478E-01 0.21265502E+03</pdfrwt>
<pdfrwt beam="1">  1       -2 0.15018817E-01 0.21265502E+03</pdfrwt>
<totfact> 0.18956376E+03</totfact>
</mgrwt>
</event>
<event>
 7    1  0.8712071E-006  0.1268758E+03  0.7546771E-02  0.1246374E+00
         -1   -1    0    0    0  501 -0.00000000000E+00  0.00000000000E+00  0.48473510261E+02  0.48473510261E+02  0.00000000000E+00 0.  1.
          1   -1    0    0  501    0  0.00000000000E+00 -0.00000000000E+00 -0.27539944783E+03  0.27539944783E+03  0.00000000000E+00 0. -1.
         23    2    1    2    0    0 -0.79336436384E+01 -0.20233613043E+02 -0.83752169535E+02  0.15202596785E+03  0.12500050880E+03 0.  0.
          5    1    3    3  502    0  0.30776425012E+01  0.72019663355E+01 -0.11110325113E+03  0.11147808131E+03  0.47000000000E+01 0.  1.
         -5    1    3    3    0  502 -0.11011286140E+02 -0.27435579378E+02  0.27351081590E+02  0.40547886535E+02  0.47000000000E+01 0.  1.
        -11    1    1    2    0    0 -0.38159020770E+02  0.25369356869E+02 -0.92027874475E+02  0.10280488711E+03  0.00000000000E+00 0. -1.
         11    1    1    2    0    0  0.46092664408E+02 -0.51357438264E+01 -0.51145893560E+02  0.69042103133E+02  0.00000000000E+00 0.  1.
<mgrwt>
<rscale>  0 0.11803507E+03</rscale>
<asrwt>0</asrwt>
<pdfrwt beam="2">  1        1 0.42369145E-01 0.12687580E+03</pdfrwt>
<pdfrwt beam="1">  1       -1 0.74574632E-02 0.12687580E+03</pdfrwt>
<totfact> 0.88290563E+03</totfact>
</mgrwt>
</event>
<event>
 7    1  0.8712071E-006  0.1633175E+03  0.7546771E-02  0.1192310E+00
         -2   -1    0    0    0  501 -0.00000000000E+00  0.00000000000E+00  0.85781960979E+02  0.85781960979E+02  0.00000000000E+00 0.  1.
          2   -1    0    0  501    0  0.00000000000E+00 -0.00000000000E+00 -0.27125581193E+03  0.27125581193E+03  0.00000000000E+00 0. -1.
         23    2    1    2    0    0 -0.31317788971E+02 -0.10037029690E+03 -0.75803874083E+02  0.18005226224E+03  0.12497035410E+03 0.  0.
          5    1    3    3  502    0 -0.42562284550E+02 -0.84682921805E+02  0.67580049076E+01  0.95134147086E+02  0.47000000000E+01 0. -1.
         -5    1    3    3    0  502  0.11244495579E+02 -0.15687375093E+02 -0.82561878990E+02  0.84918115150E+02  0.47000000000E+01 0. -1.
        -11    1    1    2    0    0  0.15018237334E+02  0.95947766366E+02 -0.12210213822E+03  0.15601427333E+03  0.00000000000E+00 0. -1.
         11    1    1    2    0    0  0.16299551637E+02  0.44225305315E+01  0.12432161354E+02  0.20971237346E+02  0.00000000000E+00 0.  1.
<mgrwt>
<rscale>  0 0.15684074E+03</rscale>
<asrwt>0</asrwt>
<pdfrwt beam="2">  1        2 0.41731662E-01 0.16331745E+03</pdfrwt>
<pdfrwt beam="1">  1       -2 0.13197225E-01 0.16331745E+03</pdfrwt>
<totfact> 0.49993844E+03</totfact>
</mgrwt>
</event>
<event>
 7    1  0.8712071E-006  0.1342429E+03  0.7546771E-02  0.1232969E+00
         -1   -1    0    0    0  501 -0.00000000000E+00  0.00000000000E+00  0.23375069440E+02  0.23375069440E+02  0.00000000000E+00 0.  1.
          1   -1    0    0  501    0  0.00000000000E+00 -0.00000000000E+00 -0.64073431482E+03  0.64073431482E+03  0.00000000000E+00 0. -1.
         23    2    1    2    0    0  0.16551818909E+02  0.46386393039E+02 -0.27699079495E+03  0.30780683411E+03  0.12488189009E+03 0.  0.
          5    1    3    3  502    0 -0.49957569857E+02  0.45225052212E+02 -0.13788811588E+03  0.15354571513E+03  0.47000000000E+01 0.  1.
         -5    1    3    3    0  502  0.66509388766E+02  0.11613408269E+01 -0.13910267907E+03  0.15426111899E+03  0.47000000000E+01 0.  1.
        -11    1    1    2    0    0 -0.46616269009E+01 -0.63963153070E+02 -0.32172690859E+03  0.32805673202E+03  0.00000000000E+00 0. -1.
         11    1    1    2    0    0 -0.11890192008E+02  0.17576760031E+02 -0.18641541844E+02  0.28245818124E+02  0.00000000000E+00 0.  1.
<mgrwt>
<rscale>  0 0.12635366E+03</rscale>
<asrwt>0</asrwt>
<pdfrwt beam="2">  1        1 0.98574521E-01 0.13424286E+03</pdfrwt>
<pdfrwt beam="1">  1       -1 0.35961641E-02 0.13424286E+03</pdfrwt>
<totfact> 0.88465940E+03</totfact>
</mgrwt>
</event>
<event>
 7    1  0.8712071E-006  0.2287064E+03  0.7546771E-02  0.1130806E+00
          2   -1    0    0  501    0  0.00000000000E+00  0.00000000000E+00  0.13919661148E+04  0.13919661148E+04  0.00000000000E+00 0. -1.
         -2   -1    0    0    0  501 -0.00000000000E+00 -0.00000000000E+00 -0.37613191225E+02  0.37613191225E+02  0.00000000000E+00 0.  1.
         23    2    1    2    0    0 -0.39727275366E+02  0.18736098422E+03  0.89944236682E+03  0.92806422546E+03  0.12499696210E+03 0.  0.
          5    1    3    3  502    0 -0.64491198344E+02  0.19216193265E+03  0.81247010421E+03  0.83738586282E+03  0.47000000000E+01 0.  1.
         -5    1    3    3    0  502  0.24763922978E+02 -0.48009484283E+01  0.86972262612E+02  0.90678362640E+02  0.47000000000E+01 0.  1.
        -11    1    1    2    0    0  0.48358838661E+02 -0.10956442769E+03  0.35460572332E+03  0.37428352903E+03  0.00000000000E+00 0. -1.
         11    1    1    2    0    0 -0.86315632948E+01 -0.77796556534E+02  0.10030483340E+03  0.12723155150E+03  0.00000000000E+00 0.  1.
<mgrwt>
<rscale>  0 0.22417837E+03</rscale>
<asrwt>0</asrwt>
<pdfrwt beam="1">  1        2 0.21414859E+00 0.22870644E+03</pdfrwt>
<pdfrwt beam="2">  1       -2 0.57866459E-02 0.22870644E+03</pdfrwt>
<totfact> 0.24424218E+03</totfact>
</mgrwt>
</event>
<event>
 7    1  0.8712071E-006  0.1330897E+03  0.7546771E-02  0.1235370E+00
          1   -1    0    0  501    0  0.00000000000E+00  0.00000000000E+00  0.41607459569E+03  0.41607459569E+03  0.00000000000E+00 0. -1.
         -1   -1    0    0    0  501 -0.00000000000E+00 -0.00000000000E+00 -0.33590620932E+02  0.33590620932E+02  0.00000000000E+00 0.  1.
         23    2    1    2    0    0 -0.10362056308E+02 -0.44530614530E+02  0.20222483093E+03  0.24209037358E+03  0.12499007518E+03 0.  0.
          5    1    3    3  502    0  0.12485326714E+02 -0.72571397095E+02  0.59528555850E+02  0.94806276274E+02  0.47000000000E+01 0. -1.
         -5    1    3    3    0  502 -0.22847383022E+02  0.28040782564E+02  0.14269627508E+03  0.14728409731E+03  0.47000000000E+01 0. -1.
        -11    1    1    2    0    0  0.23803237987E+02  0.17413539272E+02  0.52357659520E+01  0.29953943542E+02  0.00000000000E+00 0.  1.
         11    1    1    2    0    0 -0.13441181679E+02  0.27117075259E+02  0.17502337787E+03  0.17762089950E+03  0.00000000000E+00 0. -1.
<mgrwt>
<rscale>  0 0.12480747E+03</rscale>
<asrwt>0</asrwt>
<pdfrwt beam="1">  1        1 0.64011473E-01 0.13308969E+03</pdfrwt>
<pdfrwt beam="2">  1       -1 0.51677881E-02 0.13308969E+03</pdfrwt>
<totfact> 0.91564271E+03</totfact>
</mgrwt>
</event>
<event>
 7    1  0.8712071E-006  0.1262667E+03  0.7546771E-02  0.1247847E+00
         -1   -1    0    0    0  501 -0.00000000000E+00  0.00000000000E+00  0.13384518776E+03  0.13384518776E+03  0.00000000000E+00 0.  1.
          1   -1    0    0  501    0  0.00000000000E+00 -0.00000000000E+00 -0.94751441082E+02  0.94751441082E+02  0.00000000000E+00 0. -1.
         23    2    1    2    0    0 -0.72191553042E+00  0.17830631045E+02  0.46813046774E+02  0.13466525075E+03  0.12499926338E+03 0.  0.
          5    1    3    3  502    0 -0.57732769429E+02  0.17551754567E+02  0.48309834747E+02  0.77440731451E+02  0.47000000000E+01 0. -1.
         -5    1    3    3    0  502  0.57010853899E+02  0.27887647771E+00 -0.14967879731E+01  0.57224519295E+02  0.47000000000E+01 0. -1.
        -11    1    1    2    0    0  0.45888755878E+02 -0.92295226547E+01  0.23368583881E+01  0.46866010195E+02  0.00000000000E+00 0. -1.
         11    1    1    2    0    0 -0.45166840347E+02 -0.86011083904E+01 -0.10056158481E+02  0.47065367903E+02  0.00000000000E+00 0.  1.
<mgrwt>
<rscale>  0 0.11716592E+03</rscale>
<asrwt>0</asrwt>
<pdfrwt beam="2">  1        1 0.14577145E-01 0.12626666E+03</pdfrwt>
<pdfrwt beam="1">  1       -1 0.20591567E-01 0.12626666E+03</pdfrwt>
<totfact> 0.70071712E+03</totfact>
</mgrwt>
</event>
<event>
 7    1  0.8712071E-006  0.1772312E+03  0.7546771E-02  0.1176019E+00
          2   -1    0    0  501    0  0.00000000000E+00  0.00000000000E+00  0.74479863757E+03  0.74479863757E+03  0.00000000000E+00 0. -1.
         -2   -1    0    0    0  501 -0.00000000000E+00 -0.00000000000E+00 -0.43574731934E+02  0.43574731934E+02  0.00000000000E+00 0.  1.
         23    2    1    2    0    0  0.90224904276E+02  0.87438357861E+02  0.22071788431E+03  0.28306763350E+03  0.12499960360E+03 0.  0.
          5    1    3    3  502    0 -0.12339419171E+01 -0.27575972151E+02  0.20663056959E+02  0.34799551371E+02  0.47000000000E+01 0. -1.
         -5    1    3    3    0  502  0.91458846193E+02  0.11501433001E+03  0.20005482736E+03  0.24826808213E+03  0.47000000000E+01 0. -1.
        -11    1    1    2    0    0 -0.55717838843E+02 -0.59764697671E+02  0.43200162326E+03  0.43966089108E+03  0.00000000000E+00 0. -1.
         11    1    1    2    0    0 -0.34507065433E+02 -0.27673660189E+02  0.48504398065E+02  0.65644844921E+02  0.00000000000E+00 0.  1.
<mgrwt>
<rscale>  0 0.17176522E+03</rscale>
<asrwt>0</asrwt>
<pdfrwt beam="1">  1        2 0.11458440E+00 0.17723121E+03</pdfrwt>
<pdfrwt beam="2">  1       -2 0.67038055E-02 0.17723121E+03</pdfrwt>
<totfact> 0.47542972E+03</totfact>
</mgrwt>
</event>
<event>
 7    1  0.8712071E-006  0.2456115E+03  0.7546771E-02  0.1118507E+00
          1   -1    0    0  501    0  0.00000000000E+00  0.00000000000E+00  0.70597797605E+03  0.70597797605E+03  0.00000000000E+00 0. -1.
         -1   -1    0    0    0  501 -0.00000000000E+00 -0.00000000000E+00 -0.89978992074E+02  0.89978992074E+02  0.00000000000E+00 0.  1.
         23    2    1    2    0    0  0.86624333077E+02  0.19286712310E+03  0.18735444071E+03  0.30891212822E+03  0.12499405689E+03 0.  0.
          5    1    3    3  502    0  0.11569714424E+03  0.17861044326E+03  0.16069639794E+03  0.26670759632E+03  0.47000000000E+01 0.  1.
         -5    1    3    3    0  502 -0.29072811159E+02  0.14256679838E+02  0.26658042771E+02  0.42204531902E+02  0.47000000000E+01 0.  1.
        -11    1    1    2    0    0 -0.60782784416E+02 -0.94817042545E+02  0.13183765194E+03  0.17339545815E+03  0.00000000000E+00 0.  1.
         11    1    1    2    0    0 -0.25841548660E+02 -0.98050080552E+02  0.29680689133E+03  0.31364938175E+03  0.00000000000E+00 0. -1.
<mgrwt>
<rscale>  0 0.24193959E+03</rscale>
<asrwt>0</asrwt>
<pdfrwt beam="1">  1        1 0.10861199E+00 0.24561152E+03</pdfrwt>
<pdfrwt beam="2">  1       -1 0.13842922E-01 0.24561152E+03</pdfrwt>
<totfact> 0.10189562E+03</totfact>
</mgrwt>
</event>
<event>
 7    1  0.8712071E-006  0.1193665E+03  0.7546771E-02  0.1255821E+00
          1   -1    0    0  501    0  0.00000000000E+00  0.00000000000E+00  0.20891179513E+03  0.20891179513E+03  0.00000000000E+00 0. -1.
         -1   -1    0    0    0  501 -0.00000000000E+00 -0.00000000000E+00 -0.54784265073E+02  0.54784265073E+02  0.00000000000E+00 0.  1.
         23    2    1    2    0    0  0.16732525422E+02  0.27623171686E+02  0.89235112169E+02  0.14903444298E+03  0.11491450269E+03 0.  0.
          5    1    3    3  502    0  0.46290825990E+02  0.53274131708E+02  0.83125140992E+02  0.10914601571E+03  0.47000000000E+01 0. -1.
         -5    1    3    3    0  502 -0.29558300568E+02 -0.25650960021E+02  0.61099711776E+01  0.39888427273E+02  0.47000000000E+01 0.  1.
        -11    1    1    2    0    0 -0.50119284743E+02 -0.80166961196E+01  0.18007028096E+02  0.53855948424E+02  0.00000000000E+00 0.  1.
         11    1    1    2    0    0  0.33386759322E+02 -0.19606475567E+02  0.46885389797E+02  0.60805668803E+02  0.00000000000E+00 0. -1.
<mgrwt>
<rscale>  0 0.11260465E+03</rscale>
<asrwt>0</asrwt>
<pdfrwt beam="1">  1        1 0.32140276E-01 0.11936649E+03</pdfrwt>
<pdfrwt beam="2">  1       -1 0.84283486E-02 0.11936649E+03</pdfrwt>
<totfact> 0.10278376E+04</totfact>
</mgrwt>
</event>
<event>
 7    1  0.8712071E-006  0.1715684E+03  0.7546771E-02  0.1182594E+00
         -1   -1    0    0    0  501 -0.00000000000E+00  0.00000000000E+00  0.11628083399E+03  0.11628083399E+03  0.00000000000E+00 0.  1.
          1   -1    0    0  501    0  0.00000000000E+00 -0.00000000000E+00 -0.22054230691E+03  0.22054230691E+03  0.00000000000E+00 0. -1.
         23    2    1    2    0    0 -0.68257006363E+02 -0.95649006222E+02 -0.52617113057E+02  0.17945549604E+03  0.12501185210E+03 0.  0.
          5    1    3    3  502    0 -0.58829195376E+02  0.28230851380E+00 -0.58066885048E+02  0.82793762240E+02  0.47000000000E+01 0.  1.
         -5    1    3    3    0  502 -0.94278109867E+01 -0.95931314735E+02  0.54497719906E+01  0.96661733802E+02  0.47000000000E+01 0.  1.
        -11    1    1    2    0    0  0.53442550331E+00  0.37563425301E+02 -0.56686551964E+02  0.68004865300E+02  0.00000000000E+00 0. -1.
         11    1    1    2    0    0  0.67722580859E+02  0.58085580920E+02  0.50421921053E+01  0.89362779558E+02  0.00000000000E+00 0.  1.
<mgrwt>
<rscale>  0 0.16552771E+03</rscale>
<asrwt>0</asrwt>
<pdfrwt beam="2">  1        1 0.33929586E-01 0.17156840E+03</pdfrwt>
<pdfrwt beam="1">  1       -1 0.17889359E-01 0.17156840E+03</pdfrwt>
<totfact> 0.30627320E+03</totfact>
</mgrwt>
</event>
<event>
 7    1  0.8712071E-006  0.1581576E+03  0.7546771E-02  0.1198584E+00
         -2   -1    0    0    0  501 -0.00000000000E+00  0.00000000000E+00  0.53693675634E+02  0.53693675634E+02  0.00000000000E+00 0.  1.
          2   -1    0    0  501    0  0.00000000000E+00 -0.00000000000E+00 -0.51354315575E+03  0.51354315575E+03  0.00000000000E+00 0. -1.
         23    2    1    2    0    0  0.84058853318E+02 -0.48204222842E+02 -0.10947256038E+03  0.19234884997E+03  0.12499720272E+03 0.  0.
          5    1    3    3  502    0 -0.25040567541E+02 -0.21814800059E+02 -0.61786000770E+02  0.70303025650E+02  0.47000000000E+01 0. -1.
         -5    1    3    3    0  502  0.10909942086E+03 -0.26389422783E+02 -0.47686559608E+02  0.12204582432E+03  0.47000000000E+01 0. -1.
        -11    1    1    2    0    0 -0.33853100913E+02  0.47717071820E+02 -0.75770807507E+02  0.95729653999E+02  0.00000000000E+00 0.  1.
         11    1    1    2    0    0 -0.50205752404E+02  0.48715102199E+00 -0.27460611223E+03  0.27915832741E+03  0.00000000000E+00 0. -1.
<mgrwt>
<rscale>  0 0.15154792E+03</rscale>
<asrwt>0</asrwt>
<pdfrwt beam="2">  1        2 0.79006639E-01 0.15815764E+03</pdfrwt>
<pdfrwt beam="1">  1       -2 0.82605655E-02 0.15815764E+03</pdfrwt>
<totfact> 0.52734432E+03</totfact>
</mgrwt>
</event>
<event>
 7    1  0.8712071E-006  0.1503092E+03  0.7546771E-02  0.1209888E+00
          2   -1    0    0  501    0  0.00000000000E+00  0.00000000000E+00  0.98428015471E+03  0.98428015471E+03  0.00000000000E+00 0. -1.
         -2   -1    0    0    0  501 -0.00000000000E+00 -0.00000000000E+00 -0.19051106324E+02  0.19051106324E+02  0.00000000000E+00 0.  1.
         23    2    1    2    0    0 -0.72492726543E+02 -0.41383991011E+02  0.47493730640E+03  0.49815490615E+03  0.12500014161E+03 0.  0.
          5    1    3    3  502    0 -0.26760194762E+01  0.52955911435E+01  0.33356505744E+03  0.33365092824E+03  0.47000000000E+01 0.  1.
         -5    1    3    3    0  502 -0.69816707066E+02 -0.46679582154E+02  0.14137224895E+03  0.16450397791E+03  0.47000000000E+01 0.  1.
        -11    1    1    2    0    0  0.70843145075E+01 -0.25335156056E+02  0.74259246356E+02  0.78781300534E+02  0.00000000000E+00 0.  1.
         11    1    1    2    0    0  0.65408412035E+02  0.66719147067E+02  0.41603249563E+03  0.42639505434E+03  0.00000000000E+00 0. -1.
<mgrwt>
<rscale>  0 0.14258862E+03</rscale>
<asrwt>0</asrwt>
<pdfrwt beam="1">  1        2 0.15142768E+00 0.15030923E+03</pdfrwt>
<pdfrwt beam="2">  1       -2 0.29309402E-02 0.15030923E+03</pdfrwt>
<totfact> 0.11395568E+04</totfact>
</mgrwt>
</event>
<event>
 7    1  0.8712071E-006  0.1696134E+03  0.7546771E-02  0.1184724E+00
         -1   -1    0    0    0  501 -0.00000000000E+00  0.00000000000E+00  0.32963366729E+02  0.32963366729E+02  0.00000000000E+00 0. -1.
          1   -1    0    0  501    0  0.00000000000E+00 -0.00000000000E+00 -0.75923351892E+03  0.75923351892E+03  0.00000000000E+00 0.  1.
         23    2    1    2    0    0 -0.69175499606E+02 -0.91419518435E+02 -0.39850613626E+03  0.43310025382E+03  0.12500364447E+03 0.  0.
          5    1    3    3  502    0 -0.78167358306E+02 -0.29494743105E+02 -0.11202724646E+03  0.13982943082E+03  0.47000000000E+01 0.  1.
         -5    1    3    3    0  502  0.89918587004E+01 -0.61924775329E+02 -0.28647888980E+03  0.29327082300E+03  0.47000000000E+01 0.  1.
        -11    1    1    2    0    0  0.51939712369E+02 -0.14298092885E+01 -0.12762324943E+03  0.13779503572E+03  0.00000000000E+00 0.  1.
         11    1    1    2    0    0  0.17235787236E+02  0.92849327723E+02 -0.20014076651E+03  0.22130159611E+03  0.00000000000E+00 0. -1.
<mgrwt>
<rscale>  0 0.16356983E+03</rscale>
<asrwt>0</asrwt>
<pdfrwt beam="2">  1        1 0.11680515E+00 0.16961335E+03</pdfrwt>
<pdfrwt beam="1">  1       -1 0.50712875E-02 0.16961335E+03</pdfrwt>
<totfact> 0.42254138E+03</totfact>
</mgrwt>
</event>
<event>
 7    1  0.8712071E-006  0.1498236E+03  0.7546771E-02  0.1206415E+00
         -2   -1    0    0    0  501 -0.00000000000E+00  0.00000000000E+00  0.15021604200E+03  0.15021604200E+03  0.00000000000E+00 0.  1.
          2   -1    0    0  501    0  0.00000000000E+00 -0.00000000000E+00 -0.13268960205E+03  0.13268960205E+03  0.00000000000E+00 0. -1.
         23    2    1    2    0    0  0.73641779150E+02  0.64387060097E+02  0.13635904985E+02  0.15044288868E+03  0.11348268460E+03 0.  0.
          5    1    3    3  502    0  0.53680631041E+02  0.61719057359E+01 -0.41017582949E+02  0.68001725569E+02  0.47000000000E+01 0. -1.
         -5    1    3    3    0  502  0.19961148109E+02  0.58215154361E+02  0.54653487934E+02  0.82441163107E+02  0.47000000000E+01 0.  1.
        -11    1    1    2    0    0 -0.18066914257E+02 -0.16558132620E+02 -0.40071257663E+02  0.46971170278E+02  0.00000000000E+00 0.  1.
         11    1    1    2    0    0 -0.55574864893E+02 -0.47828927478E+02  0.43961792622E+02  0.85491585095E+02  0.00000000000E+00 0. -1.
<mgrwt>
<rscale>  0 0.14526529E+03</rscale>
<asrwt>0</asrwt>
<pdfrwt beam="2">  1        2 0.20413785E-01 0.14982365E+03</pdfrwt>
<pdfrwt beam="1">  1       -2 0.23110160E-01 0.14982365E+03</pdfrwt>
<totfact> 0.42654852E+03</totfact>
</mgrwt>
</event>
<event>
 7    1  0.8712071E-006  0.1282695E+03  0.7546771E-02  0.1244001E+00
         -2   -1    0    0    0  501 -0.00000000000E+00  0.00000000000E+00  0.42189718265E+02  0.42189718265E+02  0.00000000000E+00 0.  1.
          2   -1    0    0  501    0  0.00000000000E+00 -0.00000000000E+00 -0.30324760586E+03  0.30324760586E+03  0.00000000000E+00 0. -1.
         23    2    1    2    0    0  0.26678832509E+02  0.10874524308E+02 -0.12927533809E+03  0.18211310694E+03  0.12499222095E+03 0.  0.
          5    1    3    3  502    0 -0.21861718167E+02  0.21727594226E+02  0.11112863703E+02  0.33099982050E+02  0.47000000000E+01 0.  1.
         -5    1    3    3    0  502  0.48540550677E+02 -0.10853069918E+02 -0.14038820179E+03  0.14901312489E+03  0.47000000000E+01 0.  1.
        -11    1    1    2    0    0  0.21626369684E+02 -0.23751124984E+02 -0.13373845862E+02  0.34794763353E+02  0.00000000000E+00 0.  1.
         11    1    1    2    0    0 -0.48305202193E+02  0.12876600675E+02 -0.11840870365E+03  0.12852945383E+03  0.00000000000E+00 0. -1.
<mgrwt>
<rscale>  0 0.11945397E+03</rscale>
<asrwt>0</asrwt>
<pdfrwt beam="2">  1        2 0.46653477E-01 0.12826952E+03</pdfrwt>
<pdfrwt beam="1">  1       -2 0.64907260E-02 0.12826952E+03</pdfrwt>
<totfact> 0.13269678E+04</totfact>
</mgrwt>
</event>
<event>
 7    1  0.8712071E-006  0.1672079E+03  0.7546771E-02  0.1187689E+00
         -1   -1    0    0    0  501 -0.00000000000E+00  0.00000000000E+00  0.27689616080E+03  0.27689616080E+03  0.00000000000E+00 0.  1.
          1   -1    0    0  501    0  0.00000000000E+00 -0.00000000000E+00 -0.93234364125E+02  0.93234364125E+02  0.00000000000E+00 0. -1.
         23    2    1    2    0    0 -0.87730281522E+02 -0.68101903759E+02  0.14583110465E+03  0.22186748218E+03  0.12499598783E+03 0.  0.
          5    1    3    3  502    0  0.23506085353E+02 -0.48182670835E+02  0.41020197767E+02  0.67667218373E+02  0.47000000000E+01 0. -1.
         -5    1    3    3    0  502 -0.11123636687E+03 -0.19919232923E+02  0.10481090688E+03  0.15420026380E+03  0.47000000000E+01 0. -1.
        -11    1    1    2    0    0  0.34163886003E+02  0.68122524567E+02 -0.94781272473E+01  0.76796382443E+02  0.00000000000E+00 0. -1.
         11    1    1    2    0    0  0.53566395519E+02 -0.20620807967E-01  0.47308819271E+02  0.71466660303E+02  0.00000000000E+00 0.  1.
<mgrwt>
<rscale>  0 0.16089629E+03</rscale>
<asrwt>0</asrwt>
<pdfrwt beam="2">  1        1 0.14343748E-01 0.16720786E+03</pdfrwt>
<pdfrwt beam="1">  1       -1 0.42599409E-01 0.16720786E+03</pdfrwt>
<totfact> 0.21367542E+03</totfact>
</mgrwt>
</event>
<event>
 7    1  0.8712071E-006  0.1435857E+03  0.7546771E-02  0.1219275E+00
          1   -1    0    0  501    0  0.00000000000E+00  0.00000000000E+00  0.25503753720E+02  0.25503753720E+02  0.00000000000E+00 0. -1.
         -1   -1    0    0    0  501 -0.00000000000E+00 -0.00000000000E+00 -0.70082982291E+03  0.70082982291E+03  0.00000000000E+00 0.  1.
         23    2    1    2    0    0 -0.63182967388E+02 -0.31630735963E+02 -0.46780027036E+03  0.48934032647E+03  0.12499708532E+03 0.  0.
          5    1    3    3  502    0 -0.94700485294E+02 -0.28344304824E+02 -0.42199872264E+03  0.43344733641E+03  0.47000000000E+01 0. -1.
         -5    1    3    3    0  502  0.31517517907E+02 -0.32864311381E+01 -0.45801547717E+02  0.55892990061E+02  0.47000000000E+01 0. -1.
        -11    1    1    2    0    0  0.62300937142E+02  0.15732279746E+02 -0.21110953506E+03  0.22067203535E+03  0.00000000000E+00 0.  1.
         11    1    1    2    0    0  0.88203024567E+00  0.15898456216E+02  0.35837362255E+01  0.16321214806E+02  0.00000000000E+00 0. -1.
<mgrwt>
<rscale>  0 0.13567117E+03</rscale>
<asrwt>0</asrwt>
<pdfrwt beam="1">  1        1 0.39236547E-02 0.14358573E+03</pdfrwt>
<pdfrwt beam="2">  1       -1 0.10781997E+00 0.14358573E+03</pdfrwt>
<totfact> 0.19329557E+03</totfact>
</mgrwt>
</event>
<event>
 7    1  0.8712071E-006  0.1427693E+03  0.7546771E-02  0.1220084E+00
          2   -1    0    0  501    0  0.00000000000E+00  0.00000000000E+00  0.29920640354E+02  0.29920640354E+02  0.00000000000E+00 0. -1.
         -2   -1    0    0    0  501 -0.00000000000E+00 -0.00000000000E+00 -0.61741786301E+03  0.61741786301E+03  0.00000000000E+00 0.  1.
         23    2    1    2    0    0 -0.26763871117E+01 -0.68930024676E+02 -0.42678030195E+03  0.45002720553E+03  0.12499819294E+03 0.  0.
          5    1    3    3  502    0 -0.22583696706E+02  0.30640480227E+02 -0.16012918261E+03  0.16465815348E+03  0.47000000000E+01 0. -1.
         -5    1    3    3    0  502  0.19907309594E+02 -0.99570504903E+02 -0.26665111935E+03  0.28536905205E+03  0.47000000000E+01 0. -1.
        -11    1    1    2    0    0 -0.41576832308E+02  0.48137976733E+02 -0.10854535331E+03  0.12580934590E+03  0.00000000000E+00 0. -1.
         11    1    1    2    0    0  0.44253219420E+02  0.20792047943E+02 -0.52171567395E+02  0.71501951939E+02  0.00000000000E+00 0.  1.
<mgrwt>
<rscale>  0 0.13509599E+03</rscale>
<asrwt>0</asrwt>
<pdfrwt beam="1">  1        2 0.46031755E-02 0.14276925E+03</pdfrwt>
<pdfrwt beam="2">  1       -2 0.94987363E-01 0.14276925E+03</pdfrwt>
<totfact> 0.16388957E+03</totfact>
</mgrwt>
</event>
<event>
 7    1  0.8712071E-006  0.1446006E+03  0.7546771E-02  0.1217845E+00
          3   -1    0    0  501    0  0.00000000000E+00  0.00000000000E+00  0.20751545232E+03  0.20751545232E+03  0.00000000000E+00 0. -1.
         -3   -1    0    0    0  501 -0.00000000000E+00 -0.00000000000E+00 -0.83511189332E+02  0.83511189332E+02  0.00000000000E+00 0.  1.
         23    2    1    2    0    0 -0.12613033190E+02  0.71588523526E+02  0.46288189148E+02  0.15182858139E+03  0.12500126545E+03 0.  0.
          5    1    3    3  502    0  0.37013382158E+02  0.63768113218E+02 -0.11873986624E+02  0.74829434586E+02  0.47000000000E+01 0.  1.
         -5    1    3    3    0  502 -0.49626415347E+02  0.78204103084E+01  0.58162175772E+02  0.76999146802E+02  0.47000000000E+01 0.  1.
        -11    1    1    2    0    0  0.19808256410E+02  0.15277508134E+02  0.46129560411E+01  0.25437150788E+02  0.00000000000E+00 0.  1.
         11    1    1    2    0    0 -0.71952232202E+01 -0.86866031660E+02  0.73103117803E+02  0.11376090948E+03  0.00000000000E+00 0. -1.
<mgrwt>
<rscale>  0 0.13669636E+03</rscale>
<asrwt>0</asrwt>
<pdfrwt beam="1">  1        3 0.31925454E-01 0.14460056E+03</pdfrwt>
<pdfrwt beam="2">  1       -3 0.12847875E-01 0.14460056E+03</pdfrwt>
<totfact> 0.10764696E+03</totfact>
</mgrwt>
</event>
<event>
 7    1  0.8712071E-006  0.1261254E+03  0.7546771E-02  0.1248843E+00
         -2   -1    0    0    0  501 -0.00000000000E+00  0.00000000000E+00  0.31065041121E+02  0.31065041121E+02  0.00000000000E+00 0.  1.
          2   -1    0    0  501    0  0.00000000000E+00 -0.00000000000E+00 -0.38437828617E+03  0.38437828617E+03  0.00000000000E+00 0. -1.
         23    2    1    2    0    0  0.14840883732E+02  0.79318687606E+01 -0.19255505493E+03  0.23018483199E+03  0.12499776528E+03 0.  0.
          5    1    3    3  502    0  0.54404756854E+02 -0.33169311837E+02 -0.13316448484E+03  0.14769885185E+03  0.47000000000E+01 0.  1.
         -5    1    3    3    0  502 -0.39563873122E+02  0.41101180598E+02 -0.59390570093E+02  0.82485980135E+02  0.47000000000E+01 0.  1.
        -11    1    1    2    0    0 -0.53420117152E+01  0.29463780358E+02 -0.13173610613E+02  0.32713842005E+02  0.00000000000E+00 0.  1.
         11    1    1    2    0    0 -0.94988720166E+01 -0.37395649118E+02 -0.14758457950E+03  0.15254465330E+03  0.00000000000E+00 0. -1.
<mgrwt>
<rscale>  0 0.11658304E+03</rscale>
<asrwt>0</asrwt>
<pdfrwt beam="2">  1        2 0.59135125E-01 0.12612537E+03</pdfrwt>
<pdfrwt beam="1">  1       -2 0.47792367E-02 0.12612537E+03</pdfrwt>
<totfact> 0.16351820E+04</totfact>
</mgrwt>
</event>
<event>
 7    1  0.8712071E-006  0.1440229E+03  0.7546771E-02  0.1218524E+00
         -1   -1    0    0    0  501 -0.00000000000E+00  0.00000000000E+00  0.11765985676E+03  0.11765985676E+03  0.00000000000E+00 0.  1.
          1   -1    0    0  501    0  0.00000000000E+00 -0.00000000000E+00 -0.14338738023E+03  0.14338738023E+03  0.00000000000E+00 0. -1.
         23    2    1    2    0    0  0.30142300044E+02  0.64880819853E+02 -0.59628814599E+01  0.14414631297E+03  0.12499809819E+03 0.  0.
          5    1    3    3  502    0 -0.37437837884E+01  0.92577593953E+02 -0.25162921954E+02  0.96124343745E+02  0.47000000000E+01 0.  1.
         -5    1    3    3    0  502  0.33886083833E+02 -0.27696774099E+02  0.19200040494E+02  0.48021969223E+02  0.47000000000E+01 0.  1.
        -11    1    1    2    0    0 -0.23939460136E+02  0.19882034957E+01  0.26181100939E+02  0.35531686578E+02  0.00000000000E+00 0.  1.
         11    1    1    2    0    0 -0.62028399087E+01 -0.66869023349E+02 -0.45945742948E+02  0.81369237440E+02  0.00000000000E+00 0. -1.
<mgrwt>
<rscale>  0 0.13620837E+03</rscale>
<asrwt>0</asrwt>
<pdfrwt beam="2">  1        1 0.22059597E-01 0.14402293E+03</pdfrwt>
<pdfrwt beam="1">  1       -1 0.18101516E-01 0.14402293E+03</pdfrwt>
<totfact> 0.51135495E+03</totfact>
</mgrwt>
</event>
<event>
 7    1  0.8712071E-006  0.2844309E+03  0.7546771E-02  0.1095134E+00
         -1   -1    0    0    0  501 -0.00000000000E+00  0.00000000000E+00  0.75515777500E+02  0.75515777500E+02  0.00000000000E+00 0.  1.
          1   -1    0    0  501    0  0.00000000000E+00 -0.00000000000E+00 -0.10223705203E+04  0.10223705203E+04  0.00000000000E+00 0. -1.
         23    2    1    2    0    0 -0.25373746010E+03  0.29932581297E+02 -0.46803477168E+03  0.54768373560E+03  0.12498907415E+03 0.  0.
          5    1    3    3  502    0 -0.23844926601E+03  0.10962111742E+02 -0.46496873512E+03  0.52268177220E+03  0.47000000000E+01 0. -1.
         -5    1    3    3    0  502 -0.15288194083E+02  0.18970469555E+02 -0.30660365641E+01  0.25001963396E+02  0.47000000000E+01 0. -1.
        -11    1    1    2    0    0  0.12335222349E+03 -0.51736639751E+02 -0.29370928187E+03  0.32273455531E+03  0.00000000000E+00 0. -1.
         11    1    1    2    0    0  0.13038523660E+03  0.21804058455E+02 -0.18511068929E+03  0.22746800693E+03  0.00000000000E+00 0.  1.
<mgrwt>
<rscale>  0 0.28101837E+03</rscale>
<asrwt>0</asrwt>
<pdfrwt beam="2">  1        1 0.15728777E+00 0.28443088E+03</pdfrwt>
<pdfrwt beam="1">  1       -1 0.11617812E-01 0.28443088E+03</pdfrwt>
<totfact> 0.74304725E+02</totfact>
</mgrwt>
</event>
<event>
 7    1  0.8712071E-006  0.2612642E+03  0.7546771E-02  0.1108558E+00
          1   -1    0    0  501    0  0.00000000000E+00  0.00000000000E+00  0.25794682149E+03  0.25794682149E+03  0.00000000000E+00 0.  1.
         -1   -1    0    0    0  501 -0.00000000000E+00 -0.00000000000E+00 -0.25464590076E+03  0.25464590076E+03  0.00000000000E+00 0. -1.
         23    2    1    2    0    0  0.22000292454E+03 -0.64977078217E+02 -0.30941239971E+02  0.26308995786E+03  0.12504262513E+03 0.  0.
          5    1    3    3  502    0  0.56919216784E+02 -0.15218453790E+02  0.47039253784E+02  0.75539261127E+02  0.47000000000E+01 0. -1.
         -5    1    3    3    0  502  0.16308370775E+03 -0.49758624427E+02 -0.77980493755E+02  0.18755069674E+03  0.47000000000E+01 0. -1.
        -11    1    1    2    0    0 -0.34708820645E+02  0.48286802559E+02  0.20698287639E+02  0.62966154744E+02  0.00000000000E+00 0.  1.
         11    1    1    2    0    0 -0.18529410389E+03  0.16690275658E+02  0.13543873056E+02  0.18653660964E+03  0.00000000000E+00 0. -1.
<mgrwt>
<rscale>  0 0.25765968E+03</rscale>
<asrwt>0</asrwt>
<pdfrwt beam="1">  1        1 0.39684126E-01 0.26126417E+03</pdfrwt>
<pdfrwt beam="2">  1       -1 0.39176293E-01 0.26126417E+03</pdfrwt>
<totfact> 0.68214836E+02</totfact>
</mgrwt>
</event>
<event>
 7    1  0.8712071E-006  0.1602382E+03  0.7546771E-02  0.1196165E+00
         -2   -1    0    0    0  501 -0.00000000000E+00  0.00000000000E+00  0.35635159293E+02  0.35635159293E+02  0.00000000000E+00 0.  1.
          2   -1    0    0  501    0  0.00000000000E+00 -0.00000000000E+00 -0.63171460882E+03  0.63171460882E+03  0.00000000000E+00 0. -1.
         23    2    1    2    0    0 -0.34952925619E+02  0.93961546233E+02 -0.26404190097E+03  0.30885986472E+03  0.12500324551E+03 0.  0.
          5    1    3    3  502    0  0.22308012180E+02  0.10042293166E+02  0.10446319425E+01  0.24933437696E+02  0.47000000000E+01 0. -1.
         -5    1    3    3    0  502 -0.57260937798E+02  0.83919253066E+02 -0.26508653291E+03  0.28392642703E+03  0.47000000000E+01 0. -1.
        -11    1    1    2    0    0 -0.27360731408E+01 -0.21200645007E+02 -0.58432556156E+01  0.22160710303E+02  0.00000000000E+00 0.  1.
         11    1    1    2    0    0  0.37688998759E+02 -0.72760901226E+02 -0.32619429294E+03  0.33632919309E+03  0.00000000000E+00 0. -1.
<mgrwt>
<rscale>  0 0.15356076E+03</rscale>
<asrwt>0</asrwt>
<pdfrwt beam="2">  1        2 0.97186865E-01 0.16023823E+03</pdfrwt>
<pdfrwt beam="1">  1       -2 0.54823321E-02 0.16023823E+03</pdfrwt>
<totfact> 0.78252925E+03</totfact>
</mgrwt>
</event>
<event>
 7    1  0.8712071E-006  0.1517447E+03  0.7546771E-02  0.1207365E+00
          1   -1    0    0  501    0  0.00000000000E+00  0.00000000000E+00  0.21198919875E+02  0.21198919875E+02  0.00000000000E+00 0. -1.
         -1   -1    0    0    0  501 -0.00000000000E+00 -0.00000000000E+00 -0.92613088455E+03  0.92613088455E+03  0.00000000000E+00 0.  1.
         23    2    1    2    0    0  0.86026217090E+02  0.10979472671E+01 -0.57086696073E+03  0.59069072865E+03  0.12499893818E+03 0.  0.
          5    1    3    3  502    0  0.19215059621E+02  0.55127389021E+02 -0.32411250798E+03  0.32936189119E+03  0.47000000000E+01 0.  1.
         -5    1    3    3    0  502  0.66811157468E+02 -0.54029441754E+02 -0.24675445275E+03  0.26132883746E+03  0.47000000000E+01 0.  1.
        -11    1    1    2    0    0 -0.10292251506E+03  0.64707743570E+01 -0.30691549332E+03  0.32377775567E+03  0.00000000000E+00 0.  1.
         11    1    1    2    0    0  0.16896297966E+02 -0.75687216241E+01 -0.27149510632E+02  0.32861320112E+02  0.00000000000E+00 0. -1.
<mgrwt>
<rscale>  0 0.14452663E+03</rscale>
<asrwt>0</asrwt>
<pdfrwt beam="1">  1        1 0.32613735E-02 0.15174469E+03</pdfrwt>
<pdfrwt beam="2">  1       -1 0.14248162E+00 0.15174469E+03</pdfrwt>
<totfact> 0.12853903E+03</totfact>
</mgrwt>
</event>
<event>
 7    1  0.8712071E-006  0.1630052E+03  0.7546771E-02  0.1194730E+00
         -1   -1    0    0    0  501 -0.00000000000E+00  0.00000000000E+00  0.40540376480E+02  0.40540376480E+02  0.00000000000E+00 0.  1.
          1   -1    0    0  501    0  0.00000000000E+00 -0.00000000000E+00 -0.54071778589E+03  0.54071778589E+03  0.00000000000E+00 0. -1.
         23    2    1    2    0    0  0.38214785762E+02 -0.97386501601E+02 -0.29461325244E+03  0.33670114190E+03  0.12500475951E+03 0.  0.
          5    1    3    3  502    0  0.65672521445E+02 -0.97153473866E+02 -0.15545588426E+03  0.19478269817E+03  0.47000000000E+01 0.  1.
         -5    1    3    3    0  502 -0.27457735683E+02 -0.23302773473E+00 -0.13915736818E+03  0.14191844373E+03  0.47000000000E+01 0.  1.
        -11    1    1    2    0    0 -0.22667773071E+02  0.10774372268E+03 -0.19249387752E+03  0.22175759422E+03  0.00000000000E+00 0. -1.
         11    1    1    2    0    0 -0.15547012690E+02 -0.10357221083E+02 -0.13070279449E+02  0.22799426244E+02  0.00000000000E+00 0.  1.
<mgrwt>
<rscale>  0 0.15477128E+03</rscale>
<asrwt>0</asrwt>
<pdfrwt beam="2">  1        1 0.83187347E-01 0.16300519E+03</pdfrwt>
<pdfrwt beam="1">  1       -1 0.62369814E-02 0.16300519E+03</pdfrwt>
<totfact> 0.49849673E+03</totfact>
</mgrwt>
</event>
<event>
 7    1  0.8712071E-006  0.1414969E+03  0.7546771E-02  0.1222174E+00
         -1   -1    0    0    0  501 -0.00000000000E+00  0.00000000000E+00  0.88836702214E+02  0.88836702214E+02  0.00000000000E+00 0.  1.
          1   -1    0    0  501    0  0.00000000000E+00 -0.00000000000E+00 -0.18165567496E+03  0.18165567496E+03  0.00000000000E+00 0. -1.
         23    2    1    2    0    0  0.41333743961E+01 -0.66173930042E+02 -0.49569663689E+02  0.14992837686E+03  0.12500117131E+03 0.  0.
          5    1    3    3  502    0 -0.43070787539E+02 -0.80638492545E+02 -0.26994945878E+02  0.95438337801E+02  0.47000000000E+01 0.  1.
         -5    1    3    3    0  502  0.47204161935E+02  0.14464562503E+02 -0.22574717811E+02  0.54490039059E+02  0.47000000000E+01 0.  1.
        -11    1    1    2    0    0 -0.12434470115E+02  0.32902295449E+02 -0.69155714548E+02  0.77586660887E+02  0.00000000000E+00 0. -1.
         11    1    1    2    0    0  0.83010957192E+01  0.33271634593E+02  0.25906405492E+02  0.42977339426E+02  0.00000000000E+00 0.  1.
<mgrwt>
<rscale>  0 0.13362464E+03</rscale>
<asrwt>0</asrwt>
<pdfrwt beam="2">  1        1 0.27947027E-01 0.14149688E+03</pdfrwt>
<pdfrwt beam="1">  1       -1 0.13667185E-01 0.14149688E+03</pdfrwt>
<totfact> 0.59055935E+03</totfact>
</mgrwt>
</event>
<event>
 7    1  0.8712071E-006  0.1328697E+03  0.7546771E-02  0.1236059E+00
          4   -1    0    0  501    0  0.00000000000E+00  0.00000000000E+00  0.10988376914E+02  0.10988376914E+02  0.00000000000E+00 0. -1.
         -4   -1    0    0    0  501 -0.00000000000E+00 -0.00000000000E+00 -0.12576277928E+04  0.12576277928E+04  0.00000000000E+00 0.  1.
         23    2    1    2    0    0 -0.13811537368E+02 -0.42878019020E+02 -0.73395085009E+03  0.74588082811E+03  0.12500030527E+03 0.  0.
          5    1    3    3  502    0 -0.65595202303E+02 -0.38900910985E+02 -0.33912776219E+03  0.34762873950E+03  0.47000000000E+01 0.  1.
         -5    1    3    3    0  502  0.51783664934E+02 -0.39771080351E+01 -0.39482308790E+03  0.39825208861E+03  0.47000000000E+01 0.  1.
        -11    1    1    2    0    0  0.34166622707E+02 -0.17391127456E+02 -0.20008608780E+03  0.20372592362E+03  0.00000000000E+00 0.  1.
         11    1    1    2    0    0 -0.20355085339E+02  0.60269146476E+02 -0.31260247799E+03  0.31900941798E+03  0.00000000000E+00 0. -1.
<mgrwt>
<rscale>  0 0.12436913E+03</rscale>
<asrwt>0</asrwt>
<pdfrwt beam="1">  1        4 0.16905213E-02 0.13286971E+03</pdfrwt>
<pdfrwt beam="2">  1       -4 0.19348099E+00 0.13286971E+03</pdfrwt>
<totfact> 0.35222385E+02</totfact>
</mgrwt>
</event>
<event>
 7    1  0.8712071E-006  0.1623615E+03  0.7546771E-02  0.1193506E+00
          3   -1    0    0  501    0  0.00000000000E+00  0.00000000000E+00  0.28801692380E+02  0.28801692380E+02  0.00000000000E+00 0. -1.
         -3   -1    0    0    0  501 -0.00000000000E+00 -0.00000000000E+00 -0.80493751408E+03  0.80493751408E+03  0.00000000000E+00 0.  1.
         23    2    1    2    0    0 -0.87616662943E+02 -0.55331294156E+02 -0.48979243813E+03  0.51600183666E+03  0.12499212475E+03 0.  0.
          5    1    3    3  502    0 -0.85696057573E+02  0.18247957052E+02 -0.23940249131E+03  0.25497538129E+03  0.47000000000E+01 0. -1.
         -5    1    3    3    0  502 -0.19206053693E+01 -0.73579251208E+02 -0.25038994682E+03  0.26102645537E+03  0.47000000000E+01 0. -1.
        -11    1    1    2    0    0  0.37869183108E+02  0.27432588695E+02 -0.23923455536E+03  0.24376175752E+03  0.00000000000E+00 0.  1.
         11    1    1    2    0    0  0.49747479834E+02  0.27898705461E+02 -0.47108828204E+02  0.73975612272E+02  0.00000000000E+00 0. -1.
<mgrwt>
<rscale>  0 0.15581347E+03</rscale>
<asrwt>0</asrwt>
<pdfrwt beam="1">  1        3 0.44310293E-02 0.16236152E+03</pdfrwt>
<pdfrwt beam="2">  1       -3 0.12383655E+00 0.16236152E+03</pdfrwt>
<totfact> 0.36104399E+02</totfact>
</mgrwt>
</event>
<event>
 7    1  0.8712071E-006  0.1788798E+03  0.7546771E-02  0.1174526E+00
          2   -1    0    0  501    0  0.00000000000E+00  0.00000000000E+00  0.66867133185E+03  0.66867133185E+03  0.00000000000E+00 0. -1.
         -2   -1    0    0    0  501 -0.00000000000E+00 -0.00000000000E+00 -0.42908889981E+02  0.42908889981E+02  0.00000000000E+00 0.  1.
         23    2    1    2    0    0 -0.59107132570E+02  0.11348910359E+03  0.28888013903E+03  0.33977890266E+03  0.12499815283E+03 0.  0.
          5    1    3    3  502    0 -0.66402303762E+02  0.12457082314E+02  0.64389032172E+02  0.93447751758E+02  0.47000000000E+01 0.  1.
         -5    1    3    3    0  502  0.72951711917E+01  0.10103202128E+03  0.22449110685E+03  0.24633115090E+03  0.47000000000E+01 0.  1.
        -11    1    1    2    0    0  0.27957492591E+02  0.29513361474E+01  0.12416010556E+03  0.12730303841E+03  0.00000000000E+00 0. -1.
         11    1    1    2    0    0  0.31149639979E+02 -0.11644043974E+03  0.21272219729E+03  0.24449828076E+03  0.00000000000E+00 0.  1.
<mgrwt>
<rscale>  0 0.17322485E+03</rscale>
<asrwt>0</asrwt>
<pdfrwt beam="1">  1        2 0.10287250E+00 0.17887976E+03</pdfrwt>
<pdfrwt beam="2">  1       -2 0.66013682E-02 0.17887976E+03</pdfrwt>
<totfact> 0.55448385E+03</totfact>
</mgrwt>
</event>
<event>
 6    1  0.8712071E-006  0.3384392E+03  0.7546771E-02  0.1111622E+00
          2   -1    0    0  501    0  0.00000000000E+00  0.00000000000E+00  0.43587270617E+03  0.43587270617E+03  0.00000000000E+00 0. -1.
         -2   -1    0    0    0  501 -0.00000000000E+00 -0.00000000000E+00 -0.11500621120E+03  0.11500621120E+03  0.00000000000E+00 0.  1.
          5    1    1    2  502    0 -0.92857836242E+02  0.39439548953E+02  0.26227366454E+03  0.28104736413E+03  0.47000000000E+01 0. -1.
         -5    1    1    2    0  502  0.10536232196E+03  0.12427682610E+02 -0.51119697054E+02  0.11786000005E+03  0.47000000000E+01 0.  1.
        -11    1    1    2    0    0  0.36504566848E+02 -0.90253343622E+01  0.56625887695E+02  0.67974489467E+02  0.00000000000E+00 0.  1.
         11    1    1    2    0    0 -0.49009052567E+02 -0.42841897201E+02  0.53086639785E+02  0.83997063716E+02  0.00000000000E+00 0. -1.
<mgrwt>
<rscale>  0 0.25268100E+03</rscale>
<asrwt>0</asrwt>
<pdfrwt beam="1">  1        2 0.67057338E-01 0.33843919E+03</pdfrwt>
<pdfrwt beam="2">  1       -2 0.17693264E-01 0.33843919E+03</pdfrwt>
<totfact> 0.18867951E+03</totfact>
</mgrwt>
</event>
<event>
 7    1  0.8712071E-006  0.1251671E+03  0.7546771E-02  0.1249754E+00
         -2   -1    0    0    0  501 -0.00000000000E+00  0.00000000000E+00  0.31905944574E+02  0.31905944574E+02  0.00000000000E+00 0.  1.
          2   -1    0    0  501    0  0.00000000000E+00 -0.00000000000E+00 -0.43861430995E+03  0.43861430995E+03  0.00000000000E+00 0. -1.
         23    2    1    2    0    0  0.63946647844E+01  0.11195358997E+01 -0.13786650011E+03  0.18620948575E+03  0.12499862252E+03 0.  0.
          5    1    3    3  502    0  0.26599044490E+02  0.24211547660E+02 -0.14890848638E+03  0.15326296201E+03  0.47000000000E+01 0.  1.
         -5    1    3    3    0  502 -0.20204379705E+02 -0.23092011760E+02  0.11041986263E+02  0.32946523747E+02  0.47000000000E+01 0.  1.
        -11    1    1    2    0    0 -0.13161487766E+02 -0.44166763606E+02 -0.17290017039E+03  0.17893685112E+03  0.00000000000E+00 0.  1.
         11    1    1    2    0    0  0.67668229820E+01  0.43047227707E+02 -0.95941694868E+02  0.10537391765E+03  0.00000000000E+00 0. -1.
<mgrwt>
<rscale>  0 0.11605282E+03</rscale>
<asrwt>0</asrwt>
<pdfrwt beam="2">  1        2 0.67479127E-01 0.12516709E+03</pdfrwt>
<pdfrwt beam="1">  1       -2 0.49086067E-02 0.12516709E+03</pdfrwt>
<totfact> 0.13635908E+04</totfact>
</mgrwt>
</event>
<event>
 7    1  0.8712071E-006  0.2117434E+03  0.7546771E-02  0.1143906E+00
         -1   -1    0    0    0  501 -0.00000000000E+00  0.00000000000E+00  0.14645952659E+03  0.14645952659E+03  0.00000000000E+00 0.  1.
          1   -1    0    0  501    0  0.00000000000E+00 -0.00000000000E+00 -0.28095768628E+03  0.28095768628E+03  0.00000000000E+00 0. -1.
         23    2    1    2    0    0 -0.68909425641E+02 -0.15640050582E+03 -0.78342876753E+02  0.22577171748E+03  0.12500253962E+03 0.  0.
          5    1    3    3  502    0 -0.20473379248E+02 -0.97724190659E+01 -0.66966556430E+02  0.70860913855E+02  0.47000000000E+01 0. -1.
         -5    1    3    3    0  502 -0.48436046392E+02 -0.14662808675E+03 -0.11376320323E+02  0.15491080362E+03  0.47000000000E+01 0. -1.
        -11    1    1    2    0    0  0.48392640118E+02  0.15807535276E+03 -0.67000788084E+02  0.17837816674E+03  0.00000000000E+00 0. -1.
         11    1    1    2    0    0  0.20516785523E+02 -0.16748469406E+01  0.10845505143E+02  0.23267328645E+02  0.00000000000E+00 0.  1.
<mgrwt>
<rscale>  0 0.20707236E+03</rscale>
<asrwt>0</asrwt>
<pdfrwt beam="2">  1        1 0.43224259E-01 0.21174339E+03</pdfrwt>
<pdfrwt beam="1">  1       -1 0.22532235E-01 0.21174339E+03</pdfrwt>
<totfact> 0.15677687E+03</totfact>
</mgrwt>
</event>
<event>
 7    1  0.8712071E-006  0.1677702E+03  0.7546771E-02  0.1187006E+00
         -1   -1    0    0    0  501 -0.00000000000E+00  0.00000000000E+00  0.55469841475E+03  0.55469841475E+03  0.00000000000E+00 0.  1.
          1   -1    0    0  501    0  0.00000000000E+00 -0.00000000000E+00 -0.47872183754E+02  0.47872183754E+02  0.00000000000E+00 0. -1.
         23    2    1    2    0    0  0.87882634820E+02  0.69272621530E+02  0.35832869003E+03  0.39565931012E+03  0.12499914398E+03 0.  0.
          5    1    3    3  502    0  0.56063046387E+02  0.10406571428E+03  0.22576005200E+03  0.25487728251E+03  0.47000000000E+01 0.  1.
         -5    1    3    3    0  502  0.31819588433E+02 -0.34793092754E+02  0.13256863803E+03  0.14078202762E+03  0.47000000000E+01 0.  1.
        -11    1    1    2    0    0 -0.76684121507E+02 -0.39888216378E+01  0.67148180250E+02  0.10200609443E+03  0.00000000000E+00 0. -1.
         11    1    1    2    0    0 -0.11198513313E+02 -0.65283799892E+02  0.81349360719E+02  0.10490519395E+03  0.00000000000E+00 0.  1.
<mgrwt>
<rscale>  0 0.16150706E+03</rscale>
<asrwt>0</asrwt>
<pdfrwt beam="2">  1        1 0.73649517E-02 0.16777020E+03</pdfrwt>
<pdfrwt beam="1">  1       -1 0.85338213E-01 0.16777020E+03</pdfrwt>
<totfact> 0.13668730E+03</totfact>
</mgrwt>
</event>
<event>
 7    1  0.8712071E-006  0.1481136E+03  0.7546771E-02  0.1212342E+00
          3   -1    0    0  501    0  0.00000000000E+00  0.00000000000E+00  0.42817522753E+02  0.42817522753E+02  0.00000000000E+00 0. -1.
         -3   -1    0    0    0  501 -0.00000000000E+00 -0.00000000000E+00 -0.42707705282E+03  0.42707705282E+03  0.00000000000E+00 0.  1.
         23    2    1    2    0    0  0.46293533702E+02  0.64571236708E+02 -0.23688195523E+03  0.27937554108E+03  0.12500038547E+03 0.  0.
          5    1    3    3  502    0 -0.20705924744E+02 -0.23529568126E+02 -0.25328357917E+02  0.40570822157E+02  0.47000000000E+01 0.  1.
         -5    1    3    3    0  502  0.66999458446E+02  0.88100804834E+02 -0.21155359732E+03  0.23880471893E+03  0.47000000000E+01 0.  1.
        -11    1    1    2    0    0 -0.27302946355E+02  0.24892549686E+01 -0.10594812787E+03  0.10943789595E+03  0.00000000000E+00 0.  1.
         11    1    1    2    0    0 -0.18990587347E+02 -0.67060491677E+02 -0.41429446963E+02  0.81081138543E+02  0.00000000000E+00 0. -1.
<mgrwt>
<rscale>  0 0.14073626E+03</rscale>
<asrwt>0</asrwt>
<pdfrwt beam="1">  1        3 0.65873109E-02 0.14811358E+03</pdfrwt>
<pdfrwt beam="2">  1       -3 0.65704165E-01 0.14811358E+03</pdfrwt>
<totfact> 0.78035079E+02</totfact>
</mgrwt>
</event>
<event>
 7    1  0.8712071E-006  0.1836665E+03  0.7546771E-02  0.1169569E+00
         -1   -1    0    0    0  501 -0.00000000000E+00  0.00000000000E+00  0.22516755703E+04  0.22516755703E+04  0.00000000000E+00 0.  1.
          1   -1    0    0  501    0  0.00000000000E+00 -0.00000000000E+00 -0.17951974677E+02  0.17951974677E+02  0.00000000000E+00 0. -1.
         23    2    1    2    0    0 -0.17960384062E+02 -0.13336797915E+03  0.17425969396E+04  0.17522492653E+04  0.12499520271E+03 0.  0.
          5    1    3    3  502    0 -0.55546010951E+02 -0.74798397367E+02  0.13705064255E+04  0.13736775866E+04  0.47000000000E+01 0. -1.
         -5    1    3    3    0  502  0.37585626888E+02 -0.58569581778E+02  0.37209051410E+03  0.37857167873E+03  0.47000000000E+01 0. -1.
        -11    1    1    2    0    0  0.57725389081E+01  0.94147993858E+02  0.44800882161E+03  0.45783083251E+03  0.00000000000E+00 0.  1.
         11    1    1    2    0    0  0.12187845154E+02  0.39219985287E+02  0.43117834395E+02  0.59547447118E+02  0.00000000000E+00 0. -1.
<mgrwt>
<rscale>  0 0.17818732E+03</rscale>
<asrwt>0</asrwt>
<pdfrwt beam="2">  1        1 0.27618440E-02 0.18366653E+03</pdfrwt>
<pdfrwt beam="1">  1       -1 0.34641140E+00 0.18366653E+03</pdfrwt>
<totfact> 0.76461994E+01</totfact>
</mgrwt>
</event>
<event>
 7    1  0.8712071E-006  0.1507412E+03  0.7546771E-02  0.1208586E+00
          1   -1    0    0  501    0  0.00000000000E+00  0.00000000000E+00  0.64566868206E+02  0.64566868206E+02  0.00000000000E+00 0. -1.
         -1   -1    0    0    0  501 -0.00000000000E+00 -0.00000000000E+00 -0.29270803272E+03  0.29270803272E+03  0.00000000000E+00 0.  1.
         23    2    1    2    0    0 -0.13525396050E+01  0.84259582946E+02 -0.13037330222E+03  0.19929903192E+03  0.12498559721E+03 0.  0.
          5    1    3    3  502    0  0.21838402138E+02  0.98763300718E+02 -0.47392543891E+02  0.11180003843E+03  0.47000000000E+01 0.  1.
         -5    1    3    3    0  502 -0.23190941743E+02 -0.14503717771E+02 -0.82980758329E+02  0.87498993485E+02  0.47000000000E+01 0.  1.
        -11    1    1    2    0    0 -0.13073090631E+02 -0.36668534912E+01  0.13951447741E+02  0.19467778693E+02  0.00000000000E+00 0. -1.
         11    1    1    2    0    0  0.14425630236E+02 -0.80592729455E+02 -0.11171931004E+03  0.13850809032E+03  0.00000000000E+00 0.  1.
<mgrwt>
<rscale>  0 0.14358410E+03</rscale>
<asrwt>0</asrwt>
<pdfrwt beam="1">  1        1 0.99333643E-02 0.15074119E+03</pdfrwt>
<pdfrwt beam="2">  1       -1 0.45032005E-01 0.15074119E+03</pdfrwt>
<totfact> 0.31257874E+03</totfact>
</mgrwt>
</event>
<event>
 7    1  0.8712071E-006  0.1428785E+03  0.7546771E-02  0.1221888E+00
          1   -1    0    0  501    0  0.00000000000E+00  0.00000000000E+00  0.64553561096E+02  0.64553561096E+02  0.00000000000E+00 0. -1.
         -1   -1    0    0    0  501 -0.00000000000E+00 -0.00000000000E+00 -0.25232650734E+03  0.25232650734E+03  0.00000000000E+00 0.  1.
         23    2    1    2    0    0 -0.41128294935E+02  0.55654003943E+02 -0.84331774329E+02  0.16590991548E+03  0.12500138836E+03 0.  0.
          5    1    3    3  502    0 -0.31848029090E+02 -0.23259098617E+02  0.11486794339E+02  0.41343912122E+02  0.47000000000E+01 0. -1.
         -5    1    3    3    0  502 -0.92802658453E+01  0.78913102560E+02 -0.95818568668E+02  0.12456600335E+03  0.47000000000E+01 0. -1.
        -11    1    1    2    0    0 -0.14330477026E+02  0.44833867167E+00 -0.58392039036E+02  0.60126481704E+02  0.00000000000E+00 0.  1.
         11    1    1    2    0    0  0.55458771962E+02 -0.56102342615E+02 -0.45049132882E+02  0.90843671259E+02  0.00000000000E+00 0. -1.
<mgrwt>
<rscale>  0 0.13382490E+03</rscale>
<asrwt>0</asrwt>
<pdfrwt beam="1">  1        1 0.99313170E-02 0.14287845E+03</pdfrwt>
<pdfrwt beam="2">  1       -1 0.38819463E-01 0.14287845E+03</pdfrwt>
<totfact> 0.40540944E+03</totfact>
</mgrwt>
</event>
<event>
 7    1  0.8712071E-006  0.1536737E+03  0.7546771E-02  0.1204632E+00
          2   -1    0    0  501    0  0.00000000000E+00  0.00000000000E+00  0.58151635192E+03  0.58151635192E+03  0.00000000000E+00 0.  1.
         -2   -1    0    0    0  501 -0.00000000000E+00 -0.00000000000E+00 -0.34058180577E+02  0.34058180577E+02  0.00000000000E+00 0. -1.
         23    2    1    2    0    0 -0.29217275654E+02 -0.84483084063E+02  0.28522675909E+03  0.32399058506E+03  0.12499821765E+03 0.  0.
          5    1    3    3  502    0  0.21268541090E+02 -0.60505903948E+02  0.48059544978E+02  0.80281536584E+02  0.47000000000E+01 0.  1.
         -5    1    3    3    0  502 -0.50485816744E+02 -0.23977180114E+02  0.23716721411E+03  0.24370904847E+03  0.47000000000E+01 0.  1.
        -11    1    1    2    0    0  0.92572708104E+01  0.99805809418E+02  0.22834954321E+03  0.24938005241E+03  0.00000000000E+00 0.  1.
         11    1    1    2    0    0  0.19960004843E+02 -0.15322725356E+02  0.33881869044E+02  0.42203895029E+02  0.00000000000E+00 0. -1.
<mgrwt>
<rscale>  0 0.14666481E+03</rscale>
<asrwt>0</asrwt>
<pdfrwt beam="1">  1        2 0.89464047E-01 0.15367366E+03</pdfrwt>
<pdfrwt beam="2">  1       -2 0.52397205E-02 0.15367366E+03</pdfrwt>
<totfact> 0.91920528E+03</totfact>
</mgrwt>
</event>
<event>
 7    1  0.8712071E-006  0.1310688E+03  0.7546771E-02  0.1241468E+00
         -1   -1    0    0    0  501 -0.00000000000E+00  0.00000000000E+00  0.39068352075E+02  0.39068352075E+02  0.00000000000E+00 0.  1.
          1   -1    0    0  501    0  0.00000000000E+00 -0.00000000000E+00 -0.46395389036E+03  0.46395389036E+03  0.00000000000E+00 0. -1.
         23    2    1    2    0    0  0.23397585146E+02  0.31750497129E+02 -0.10107982850E+03  0.16551782363E+03  0.12499390846E+03 0.  0.
          5    1    3    3  502    0 -0.37054989051E+02  0.50641328952E+02 -0.28514023038E+02  0.69085135315E+02  0.47000000000E+01 0.  1.
         -5    1    3    3    0  502  0.60452574198E+02 -0.18890831823E+02 -0.72565805460E+02  0.96432688317E+02  0.47000000000E+01 0.  1.
        -11    1    1    2    0    0 -0.33363012883E+01 -0.59285038222E+02 -0.23507359052E+03  0.24245708821E+03  0.00000000000E+00 0. -1.
         11    1    1    2    0    0 -0.20061283858E+02  0.27534541093E+02 -0.88732119273E+02  0.95047330598E+02  0.00000000000E+00 0.  1.
<mgrwt>
<rscale>  0 0.12099293E+03</rscale>
<asrwt>0</asrwt>
<pdfrwt beam="2">  1        1 0.71377520E-01 0.13106875E+03</pdfrwt>
<pdfrwt beam="1">  1       -1 0.60105158E-02 0.13106875E+03</pdfrwt>
<totfact> 0.63622282E+03</totfact>
</mgrwt>
</event>
<event>
 7    1  0.8712071E-006  0.1411009E+03  0.7546771E-02  0.1221761E+00
          1   -1    0    0  501    0  0.00000000000E+00  0.00000000000E+00  0.50731334999E+02  0.50731334999E+02  0.00000000000E+00 0. -1.
         -1   -1    0    0    0  501 -0.00000000000E+00 -0.00000000000E+00 -0.32504520396E+03  0.32504520396E+03  0.00000000000E+00 0.  1.
         23    2    1    2    0    0  0.52448679045E+02  0.39052363546E+02 -0.16971733342E+03  0.22071121922E+03  0.12503406734E+03 0.  0.
          5    1    3    3  502    0 -0.17044151215E+02 -0.30334783864E+02 -0.16818979935E+02  0.38931610405E+02  0.47000000000E+01 0.  1.
         -5    1    3    3    0  502  0.69492830261E+02  0.69387147410E+02 -0.15289835348E+03  0.18177960881E+03  0.47000000000E+01 0.  1.
        -11    1    1    2    0    0 -0.34725637524E+02 -0.32483938910E+02  0.12274743685E+01  0.47566615203E+02  0.00000000000E+00 0. -1.
         11    1    1    2    0    0 -0.17723041521E+02 -0.65684246364E+01 -0.10582400992E+03  0.10749870454E+03  0.00000000000E+00 0.  1.
<mgrwt>
<rscale>  0 0.13391408E+03</rscale>
<asrwt>0</asrwt>
<pdfrwt beam="1">  1        1 0.78048204E-02 0.14110092E+03</pdfrwt>
<pdfrwt beam="2">  1       -1 0.50006957E-01 0.14110092E+03</pdfrwt>
<totfact> 0.35568774E+03</totfact>
</mgrwt>
</event>
<event>
 7    1  0.8712071E-006  0.1575199E+03  0.7546771E-02  0.1199100E+00
         -1   -1    0    0    0  501 -0.00000000000E+00  0.00000000000E+00  0.10220831839E+04  0.10220831839E+04  0.00000000000E+00 0.  1.
          1   -1    0    0  501    0  0.00000000000E+00 -0.00000000000E+00 -0.26438730338E+02  0.26438730338E+02  0.00000000000E+00 0. -1.
         23    2    1    2    0    0  0.95603679749E+02 -0.65643623571E+01  0.77349879760E+03  0.78937501366E+03  0.12501747025E+03 0.  0.
          5    1    3    3  502    0  0.39165786825E+02 -0.38668850097E+02  0.62243038579E+03  0.62487671902E+03  0.47000000000E+01 0.  1.
         -5    1    3    3    0  502  0.56437892925E+02  0.32104487740E+02  0.15106841181E+03  0.16449829463E+03  0.47000000000E+01 0.  1.
        -11    1    1    2    0    0 -0.42939934323E+02  0.42245457010E+02  0.15670149720E+03  0.16788054034E+03  0.00000000000E+00 0.  1.
         11    1    1    2    0    0 -0.52663745426E+02 -0.35681094653E+02  0.65444158791E+02  0.91266360275E+02  0.00000000000E+00 0. -1.
<mgrwt>
<rscale>  0 0.15112273E+03</rscale>
<asrwt>0</asrwt>
<pdfrwt beam="2">  1        1 0.40674978E-02 0.15751991E+03</pdfrwt>
<pdfrwt beam="1">  1       -1 0.15724354E+00 0.15751991E+03</pdfrwt>
<totfact> 0.73389057E+02</totfact>
</mgrwt>
</event>
<event>
 7    1  0.9827331E-006  0.2231594E+03  0.7546771E-02  0.1135025E+00
          1   -1    0    0  501    0  0.00000000000E+00  0.00000000000E+00  0.10420541811E+04  0.10420541811E+04  0.00000000000E+00 0. -1.
         -1   -1    0    0    0  501 -0.00000000000E+00 -0.00000000000E+00 -0.44424203163E+02  0.44424203163E+02  0.00000000000E+00 0.  1.
         23    2    1    2    0    0  0.54225729589E+02 -0.17673631585E+03  0.46558902813E+03  0.51630732067E+03  0.12499580464E+03 0.  0.
          5    1    3    3  502    0 -0.34662039382E+02 -0.27054615281E+02  0.14341829149E+03  0.15008099652E+03  0.47000000000E+01 0. -1.
         -5    1    3    3    0  502  0.88887768971E+02 -0.14968170057E+03  0.32217073664E+03  0.36622632415E+03  0.47000000000E+01 0. -1.
        -11    1    1    2    0    0 -0.70874602626E+02  0.83398175937E+02  0.26066465109E+03  0.28270925944E+03  0.00000000000E+00 0. -1.
         11    1    1    2    0    0  0.16648873037E+02  0.93338139913E+02  0.27137629870E+03  0.28746180412E+03  0.00000000000E+00 0.  1.
<mgrwt>
<rscale>  0 0.21847563E+03</rscale>
<asrwt>0</asrwt>
<pdfrwt beam="1">  1        1 0.16031601E+00 0.22315937E+03</pdfrwt>
<pdfrwt beam="2">  1       -1 0.68344935E-02 0.22315937E+03</pdfrwt>
<totfact> 0.16297425E+03</totfact>
</mgrwt>
</event>
<event>
 7    1  0.8712071E-006  0.1252260E+03  0.7546771E-02  0.1280827E+00
         -2   -1    0    0    0  501 -0.00000000000E+00  0.00000000000E+00  0.24308633610E+02  0.24308633610E+02  0.00000000000E+00 0.  1.
          2   -1    0    0  501    0  0.00000000000E+00 -0.00000000000E+00 -0.32627661493E+03  0.32627661493E+03  0.00000000000E+00 0. -1.
         23    2    1    2    0    0  0.18799424435E+02  0.32674343206E+02 -0.18707526982E+03  0.22511929351E+03  0.11941737172E+03 0.  0.
          5    1    3    3  502    0  0.26363754124E+02  0.51545631299E+02 -0.19448620087E+03  0.20297529891E+03  0.47000000000E+01 0. -1.
         -5    1    3    3    0  502 -0.75643296897E+01 -0.18871288094E+02  0.74109310497E+01  0.22143994604E+02  0.47000000000E+01 0.  1.
        -11    1    1    2    0    0  0.95037499731E+01 -0.46489984364E+01 -0.24487252831E+02  0.26675082028E+02  0.00000000000E+00 0.  1.
         11    1    1    2    0    0 -0.28303174408E+02 -0.28025344769E+02 -0.90405458663E+02  0.98790872995E+02  0.00000000000E+00 0. -1.
<mgrwt>
<rscale>  0 0.99748016E+02</rscale>
<asrwt>0</asrwt>
<pdfrwt beam="2">  1        2 0.50196405E-01 0.12522595E+03</pdfrwt>
<pdfrwt beam="1">  1       -2 0.37397896E-02 0.12522595E+03</pdfrwt>
<totfact> 0.27994819E+04</totfact>
</mgrwt>
</event>
<event>
 7    1  0.8712071E-006  0.1667851E+03  0.7546771E-02  0.1187895E+00
         -1   -1    0    0    0  501 -0.00000000000E+00  0.00000000000E+00  0.33532950982E+03  0.33532950982E+03  0.00000000000E+00 0.  1.
          1   -1    0    0  501    0  0.00000000000E+00 -0.00000000000E+00 -0.82432754827E+02  0.82432754827E+02  0.00000000000E+00 0. -1.
         23    2    1    2    0    0 -0.61979926332E+02  0.91381553304E+02  0.20906173586E+03  0.26743988738E+03  0.12500073762E+03 0.  0.
          5    1    3    3  502    0 -0.52927913352E+02  0.12251457951E+03  0.17561115852E+03  0.22061857401E+03  0.47000000000E+01 0. -1.
         -5    1    3    3    0  502 -0.90520129804E+01 -0.31133026209E+02  0.33450577348E+02  0.46821313361E+02  0.47000000000E+01 0. -1.
        -11    1    1    2    0    0  0.79092966632E+02 -0.59579095268E+02  0.54020831231E+02  0.11279900784E+03  0.00000000000E+00 0.  1.
         11    1    1    2    0    0 -0.17113040300E+02 -0.31802458036E+02 -0.10185812098E+02  0.37523369432E+02  0.00000000000E+00 0. -1.
<mgrwt>
<rscale>  0 0.16071245E+03</rscale>
<asrwt>0</asrwt>
<pdfrwt beam="2">  1        1 0.12681962E-01 0.16678514E+03</pdfrwt>
<pdfrwt beam="1">  1       -1 0.51589155E-01 0.16678514E+03</pdfrwt>
<totfact> 0.17744729E+03</totfact>
</mgrwt>
</event>
<event>
 7    1  0.8712071E-006  0.1428653E+03  0.7546771E-02  0.1219273E+00
         -1   -1    0    0    0  501 -0.00000000000E+00  0.00000000000E+00  0.25051310654E+02  0.25051310654E+02  0.00000000000E+00 0.  1.
          1   -1    0    0  501    0  0.00000000000E+00 -0.00000000000E+00 -0.69645706059E+03  0.69645706059E+03  0.00000000000E+00 0. -1.
         23    2    1    2    0    0 -0.64785137962E+02  0.24261706442E+02 -0.29865445210E+03  0.33106643472E+03  0.12499903175E+03 0.  0.
          5    1    3    3  502    0  0.46166539256E+01 -0.44534157975E+02 -0.92125354317E+02  0.10253670381E+03  0.47000000000E+01 0. -1.
         -5    1    3    3    0  502 -0.69401791888E+02  0.68795864418E+02 -0.20652909778E+03  0.22852973091E+03  0.47000000000E+01 0. -1.
        -11    1    1    2    0    0  0.19576891056E+02  0.33660788462E+02 -0.17993272480E+03  0.18409804126E+03  0.00000000000E+00 0. -1.
         11    1    1    2    0    0  0.45208246906E+02 -0.57922494904E+02 -0.19281857304E+03  0.20634389526E+03  0.00000000000E+00 0.  1.
<mgrwt>
<rscale>  0 0.13567268E+03</rscale>
<asrwt>0</asrwt>
<pdfrwt beam="2">  1        1 0.10714723E+00 0.14286533E+03</pdfrwt>
<pdfrwt beam="1">  1       -1 0.38540482E-02 0.14286533E+03</pdfrwt>
<totfact> 0.71331457E+03</totfact>
</mgrwt>
</event>
<event>
 7    1  0.8712071E-006  0.1604828E+03  0.7546771E-02  0.1195576E+00
         -3   -1    0    0    0  501 -0.00000000000E+00  0.00000000000E+00  0.11921266186E+04  0.11921266186E+04  0.00000000000E+00 0.  1.
          3   -1    0    0  501    0  0.00000000000E+00 -0.00000000000E+00 -0.21250357040E+02  0.21250357040E+02  0.00000000000E+00 0. -1.
         23    2    1    2    0    0 -0.73865442182E+02 -0.68355623801E+02  0.84580245802E+03  0.86089287085E+03  0.12500456888E+03 0.  0.
          5    1    3    3  502    0 -0.17871458920E+01  0.28457696259E+02  0.32427762370E+03  0.32556274603E+03  0.47000000000E+01 0. -1.
         -5    1    3    3    0  502 -0.72078296290E+02 -0.96813320060E+02  0.52152483431E+03  0.53533012482E+03  0.47000000000E+01 0. -1.
        -11    1    1    2    0    0  0.49709064135E+02  0.61210492195E+02  0.31603037255E+03  0.32571906881E+03  0.00000000000E+00 0.  1.
         11    1    1    2    0    0  0.24156378047E+02  0.71451316061E+01  0.90434309695E+01  0.26765035956E+02  0.00000000000E+00 0. -1.
<mgrwt>
<rscale>  0 0.15405612E+03</rscale>
<asrwt>0</asrwt>
<pdfrwt beam="2">  1        3 0.32692866E-02 0.16048282E+03</pdfrwt>
<pdfrwt beam="1">  1       -3 0.18340404E+00 0.16048282E+03</pdfrwt>
<totfact> 0.21622307E+02</totfact>
</mgrwt>
</event>
<event>
 7    1  0.8712071E-006  0.1903787E+03  0.7546771E-02  0.1163055E+00
         -2   -1    0    0    0  501 -0.00000000000E+00  0.00000000000E+00  0.91946239420E+02  0.91946239420E+02  0.00000000000E+00 0.  1.
          2   -1    0    0  501    0  0.00000000000E+00 -0.00000000000E+00 -0.36309052581E+03  0.36309052581E+03  0.00000000000E+00 0. -1.
         23    2    1    2    0    0  0.13303366351E+03 -0.54063765659E+02 -0.10451791747E+03  0.21718206519E+03  0.12499283174E+03 0.  0.
          5    1    3    3  502    0  0.48228963920E+02 -0.60531659040E+02  0.58583384468E+01  0.77759403523E+02  0.47000000000E+01 0.  1.
         -5    1    3    3    0  502  0.84804699586E+02  0.64678933810E+01 -0.11037625592E+03  0.13942266167E+03  0.47000000000E+01 0.  1.
        -11    1    1    2    0    0 -0.73136859149E+02  0.74071698657E+02 -0.83409944680E+02  0.13338978814E+03  0.00000000000E+00 0.  1.
         11    1    1    2    0    0 -0.59896804357E+02 -0.20007932998E+02 -0.83216424236E+02  0.10446491190E+03  0.00000000000E+00 0. -1.
<mgrwt>
<rscale>  0 0.18499401E+03</rscale>
<asrwt>0</asrwt>
<pdfrwt beam="2">  1        2 0.55860082E-01 0.19037871E+03</pdfrwt>
<pdfrwt beam="1">  1       -2 0.14145575E-01 0.19037871E+03</pdfrwt>
<totfact> 0.32923876E+03</totfact>
</mgrwt>
</event>
<event>
 7    1  0.8712071E-006  0.1714099E+03  0.7546771E-02  0.1182835E+00
         -2   -1    0    0    0  501 -0.00000000000E+00  0.00000000000E+00  0.13397847810E+03  0.13397847810E+03  0.00000000000E+00 0.  1.
          2   -1    0    0  501    0  0.00000000000E+00 -0.00000000000E+00 -0.23417093460E+03  0.23417093460E+03  0.00000000000E+00 0. -1.
         23    2    1    2    0    0  0.82302278521E+02  0.83561061992E+02  0.26105263722E+02  0.17338638213E+03  0.12500094633E+03 0.  0.
          5    1    3    3  502    0 -0.47549037748E+01  0.47312087077E+02 -0.36473346471E+02  0.60111876500E+02  0.47000000000E+01 0.  1.
         -5    1    3    3    0  502  0.87057182296E+02  0.36248974915E+02  0.62578610193E+02  0.11327450563E+03  0.47000000000E+01 0.  1.
        -11    1    1    2    0    0 -0.83210633040E+02 -0.22339738516E+02 -0.84126033202E+02  0.12041703713E+03  0.00000000000E+00 0.  1.
         11    1    1    2    0    0  0.90835451914E+00 -0.61221323476E+02 -0.42171687022E+02  0.74345993452E+02  0.00000000000E+00 0. -1.
<mgrwt>
<rscale>  0 0.16530430E+03</rscale>
<asrwt>0</asrwt>
<pdfrwt beam="2">  1        2 0.36026297E-01 0.17140990E+03</pdfrwt>
<pdfrwt beam="1">  1       -2 0.20612074E-01 0.17140990E+03</pdfrwt>
<totfact> 0.27973449E+03</totfact>
</mgrwt>
</event>
<event>
 7    1  0.8712071E-006  0.1469821E+03  0.7546771E-02  0.1213655E+00
          1   -1    0    0  501    0  0.00000000000E+00  0.00000000000E+00  0.20787003482E+03  0.20787003482E+03  0.00000000000E+00 0. -1.
         -1   -1    0    0    0  501 -0.00000000000E+00 -0.00000000000E+00 -0.94733963788E+02  0.94733963788E+02  0.00000000000E+00 0.  1.
         23    2    1    2    0    0  0.46923101482E+02 -0.61455463417E+02  0.15519938218E+02  0.14779921033E+03  0.12500074662E+03 0.  0.
          5    1    3    3  502    0 -0.33435766347E+02 -0.55399624861E+02 -0.31141416010E+01  0.64952727301E+02  0.47000000000E+01 0. -1.
         -5    1    3    3    0  502  0.80358867829E+02 -0.60558385562E+01  0.18634079819E+02  0.82846483027E+02  0.47000000000E+01 0. -1.
        -11    1    1    2    0    0 -0.62276341597E+02  0.30074342765E+02  0.97905688623E+02  0.11986798021E+03  0.00000000000E+00 0. -1.
         11    1    1    2    0    0  0.15353240115E+02  0.31381120652E+02 -0.28955580756E+00  0.34936808068E+02  0.00000000000E+00 0.  1.
<mgrwt>
<rscale>  0 0.13975834E+03</rscale>
<asrwt>0</asrwt>
<pdfrwt beam="1">  1        1 0.31980005E-01 0.14698210E+03</pdfrwt>
<pdfrwt beam="2">  1       -1 0.14574456E-01 0.14698210E+03</pdfrwt>
<totfact> 0.45255560E+03</totfact>
</mgrwt>
</event>
<event>
 7    1  0.8712071E-006  0.1312881E+03  0.7546771E-02  0.1281048E+00
          2   -1    0    0  501    0  0.00000000000E+00  0.00000000000E+00  0.65212119413E+02  0.65212119413E+02  0.00000000000E+00 0. -1.
         -2   -1    0    0    0  501 -0.00000000000E+00 -0.00000000000E+00 -0.16545001182E+03  0.16545001182E+03  0.00000000000E+00 0.  1.
         23    2    1    2    0    0 -0.36041549323E+02  0.22891109547E+02 -0.12438521250E+03  0.18085420616E+03  0.12415138591E+03 0.  0.
          5    1    3    3  502    0 -0.28770745903E+02  0.73374357676E+02 -0.63726692444E+02  0.10146296622E+03  0.47000000000E+01 0. -1.
         -5    1    3    3    0  502 -0.72708034199E+01 -0.50483248128E+02 -0.60658520059E+02  0.79391239943E+02  0.47000000000E+01 0.  1.
        -11    1    1    2    0    0  0.14783572251E+02 -0.61605382421E+01  0.54276667095E+01  0.16910523523E+02  0.00000000000E+00 0. -1.
         11    1    1    2    0    0  0.21257977072E+02 -0.16730571305E+02  0.18719653389E+02  0.32897401545E+02  0.00000000000E+00 0.  1.
<mgrwt>
<rscale>  0 0.99643388E+02</rscale>
<asrwt>0</asrwt>
<pdfrwt beam="1">  1        2 0.10032634E-01 0.13128809E+03</pdfrwt>
<pdfrwt beam="2">  1       -2 0.25453848E-01 0.13128809E+03</pdfrwt>
<totfact> 0.82517375E+03</totfact>
</mgrwt>
</event>
<event>
 7    1  0.8712071E-006  0.1426366E+03  0.7546771E-02  0.1220013E+00
         -1   -1    0    0    0  501 -0.00000000000E+00  0.00000000000E+00  0.47596195628E+02  0.47596195628E+02  0.00000000000E+00 0.  1.
          1   -1    0    0  501    0  0.00000000000E+00 -0.00000000000E+00 -0.35472129152E+03  0.35472129152E+03  0.00000000000E+00 0. -1.
         23    2    1    2    0    0 -0.68281622209E+02 -0.75979976799E+01 -0.14334046371E+03  0.20221693198E+03  0.12500035817E+03 0.  0.
          5    1    3    3  502    0  0.31598574085E+02 -0.63440810810E+01 -0.73008622986E+01  0.33378283947E+02  0.47000000000E+01 0. -1.
         -5    1    3    3    0  502 -0.99880196294E+02 -0.12539165989E+01 -0.13603960141E+03  0.16883864804E+03  0.47000000000E+01 0. -1.
        -11    1    1    2    0    0  0.33630445461E+01 -0.36384952871E+02 -0.51747273925E+02  0.63347890436E+02  0.00000000000E+00 0. -1.
         11    1    1    2    0    0  0.64918577663E+02  0.43982950551E+02 -0.11203735825E+03  0.13675266472E+03  0.00000000000E+00 0.  1.
<mgrwt>
<rscale>  0 0.13514685E+03</rscale>
<asrwt>0</asrwt>
<pdfrwt beam="2">  1        1 0.54572505E-01 0.14263660E+03</pdfrwt>
<pdfrwt beam="1">  1       -1 0.73224918E-02 0.14263660E+03</pdfrwt>
<totfact> 0.66832099E+03</totfact>
</mgrwt>
</event>
<event>
 7    1  0.8712071E-006  0.1352856E+03  0.7546771E-02  0.1232019E+00
          4   -1    0    0  501    0  0.00000000000E+00  0.00000000000E+00  0.42398157694E+02  0.42398157694E+02  0.00000000000E+00 0. -1.
         -4   -1    0    0    0  501 -0.00000000000E+00 -0.00000000000E+00 -0.36803263477E+03  0.36803263477E+03  0.00000000000E+00 0.  1.
         23    2    1    2    0    0 -0.44460714584E+02 -0.26493308140E+02 -0.23766348173E+03  0.27347053112E+03  0.12499420117E+03 0.  0.
          5    1    3    3  502    0 -0.20912833276E+02 -0.54229805399E+02 -0.36070752326E+02  0.68566810941E+02  0.47000000000E+01 0. -1.
         -5    1    3    3    0  502 -0.23547881307E+02  0.27736497260E+02 -0.20159272941E+03  0.20490372018E+03  0.47000000000E+01 0. -1.
        -11    1    1    2    0    0  0.39171461334E+02  0.75677776656E+01  0.65397379339E+01  0.40428242778E+02  0.00000000000E+00 0. -1.
         11    1    1    2    0    0  0.52892532496E+01  0.18925530474E+02 -0.94510733276E+02  0.96532018564E+02  0.00000000000E+00 0.  1.
<mgrwt>
<rscale>  0 0.12697189E+03</rscale>
<asrwt>0</asrwt>
<pdfrwt beam="1">  1        4 0.65227931E-02 0.13528563E+03</pdfrwt>
<pdfrwt beam="2">  1       -4 0.56620409E-01 0.13528563E+03</pdfrwt>
<totfact> 0.76770084E+02</totfact>
</mgrwt>
</event>
<event>
 7    1  0.8712071E-006  0.1626251E+03  0.7546771E-02  0.1193372E+00
          2   -1    0    0  501    0  0.00000000000E+00  0.00000000000E+00  0.47720969413E+03  0.47720969413E+03  0.00000000000E+00 0.  1.
         -2   -1    0    0    0  501 -0.00000000000E+00 -0.00000000000E+00 -0.47204849698E+02  0.47204849698E+02  0.00000000000E+00 0. -1.
         23    2    1    2    0    0  0.39590795436E+02  0.96202576177E+02  0.23991587728E+03  0.28983885102E+03  0.12499825856E+03 0.  0.
          5    1    3    3  502    0  0.33202168576E+02  0.11966513511E+03  0.14136719940E+03  0.18822567207E+03  0.47000000000E+01 0. -1.
         -5    1    3    3    0  502  0.63886268607E+01 -0.23462558934E+02  0.98548677878E+02  0.10161317895E+03  0.47000000000E+01 0. -1.
        -11    1    1    2    0    0 -0.50476962876E+02 -0.33907577085E+02  0.14403332767E+03  0.15634336265E+03  0.00000000000E+00 0.  1.
         11    1    1    2    0    0  0.10886167440E+02 -0.62294999092E+02  0.46055639474E+02  0.78232330150E+02  0.00000000000E+00 0. -1.
<mgrwt>
<rscale>  0 0.15592843E+03</rscale>
<asrwt>0</asrwt>
<pdfrwt beam="1">  1        2 0.73416873E-01 0.16262513E+03</pdfrwt>
<pdfrwt beam="2">  1       -2 0.72622849E-02 0.16262513E+03</pdfrwt>
<totfact> 0.69892795E+03</totfact>
</mgrwt>
</event>
<event>
 7    1  0.8712071E-006  0.1256711E+03  0.7546771E-02  0.1242959E+00
         -2   -1    0    0    0  501 -0.00000000000E+00  0.00000000000E+00  0.70111631647E+02  0.70111631647E+02  0.00000000000E+00 0.  1.
          2   -1    0    0  501    0  0.00000000000E+00 -0.00000000000E+00 -0.45231679689E+03  0.45231679689E+03  0.00000000000E+00 0. -1.
         23    2    1    2    0    0 -0.40148500528E+02  0.29469554425E+02  0.46891846228E+00  0.12567198909E+03  0.11538142063E+03 0.  0.
          5    1    3    3  502    0 -0.71144338346E+02 -0.94635748660E+01 -0.14747454613E+02  0.73421070174E+02  0.47000000000E+01 0. -1.
         -5    1    3    3    0  502  0.30995837818E+02  0.38933129291E+02  0.15216373075E+02  0.52250918921E+02  0.47000000000E+01 0.  1.
        -11    1    1    2    0    0 -0.23299149851E+02 -0.33765315042E+02 -0.13978796731E+03  0.14568329584E+03  0.00000000000E+00 0. -1.
         11    1    1    2    0    0  0.63447650378E+02  0.42957606165E+01 -0.24288611640E+03  0.25107314360E+03  0.00000000000E+00 0.  1.
<mgrwt>
<rscale>  0 0.12008346E+03</rscale>
<asrwt>0</asrwt>
<pdfrwt beam="2">  1        2 0.69587201E-01 0.12567111E+03</pdfrwt>
<pdfrwt beam="1">  1       -2 0.10786405E-01 0.12567111E+03</pdfrwt>
<totfact> 0.39454757E+03</totfact>
</mgrwt>
</event>
<event>
 7    1  0.8712071E-006  0.1699870E+03  0.7546771E-02  0.1184295E+00
         -2   -1    0    0    0  501 -0.00000000000E+00  0.00000000000E+00  0.36366929237E+03  0.36366929237E+03  0.00000000000E+00 0.  1.
          2   -1    0    0  501    0  0.00000000000E+00 -0.00000000000E+00 -0.69704627197E+02  0.69704627197E+02  0.00000000000E+00 0. -1.
         23    2    1    2    0    0 -0.16247841087E+02  0.11404957697E+03  0.17704528913E+03  0.24543963838E+03  0.12499713332E+03 0.  0.
          5    1    3    3  502    0 -0.28005225624E+02  0.13703588060E+03  0.12723994637E+03  0.18914338261E+03  0.47000000000E+01 0. -1.
         -5    1    3    3    0  502  0.11757384537E+02 -0.22986303634E+02  0.49805342757E+02  0.56296255764E+02  0.47000000000E+01 0. -1.
        -11    1    1    2    0    0  0.20145601075E+02 -0.22438636081E+01  0.58112266342E+02  0.61546045088E+02  0.00000000000E+00 0.  1.
         11    1    1    2    0    0 -0.38977599888E+01 -0.11180571336E+03  0.58807109701E+02  0.12638823610E+03  0.00000000000E+00 0. -1.
<mgrwt>
<rscale>  0 0.16396151E+03</rscale>
<asrwt>0</asrwt>
<pdfrwt beam="2">  1        2 0.10723789E-01 0.16998700E+03</pdfrwt>
<pdfrwt beam="1">  1       -2 0.55949121E-01 0.16998700E+03</pdfrwt>
<totfact> 0.17569943E+03</totfact>
</mgrwt>
</event>
<event>
 7    1  0.8712071E-006  0.1651224E+03  0.7546771E-02  0.1190402E+00
          2   -1    0    0  501    0  0.00000000000E+00  0.00000000000E+00  0.17624586322E+03  0.17624586322E+03  0.00000000000E+00 0. -1.
         -2   -1    0    0    0  501 -0.00000000000E+00 -0.00000000000E+00 -0.15930677129E+03  0.15930677129E+03  0.00000000000E+00 0.  1.
         23    2    1    2    0    0  0.79601259949E+01 -0.10760033106E+03 -0.59951628849E+02  0.17566898138E+03  0.12499679343E+03 0.  0.
          5    1    3    3  502    0 -0.13945488593E+02 -0.12139099773E+03 -0.76828690116E+02  0.14441256388E+03  0.47000000000E+01 0. -1.
         -5    1    3    3    0  502  0.21905614588E+02  0.13790666670E+02  0.16877061267E+02  0.31256417496E+02  0.47000000000E+01 0. -1.
        -11    1    1    2    0    0  0.68807958889E+00  0.84400462343E+02  0.96569891742E+02  0.12825621033E+03  0.00000000000E+00 0. -1.
         11    1    1    2    0    0 -0.86482055838E+01  0.23199868720E+02 -0.19679170961E+02  0.31627442801E+02  0.00000000000E+00 0.  1.
<mgrwt>
<rscale>  0 0.15849895E+03</rscale>
<asrwt>0</asrwt>
<pdfrwt beam="1">  1        2 0.27114748E-01 0.16512236E+03</pdfrwt>
<pdfrwt beam="2">  1       -2 0.24508734E-01 0.16512236E+03</pdfrwt>
<totfact> 0.28202309E+03</totfact>
</mgrwt>
</event>
<event>
 7    1  0.8712071E-006  0.2367360E+03  0.7546771E-02  0.1124786E+00
         -2   -1    0    0    0  501 -0.00000000000E+00  0.00000000000E+00  0.61553636542E+02  0.61553636542E+02  0.00000000000E+00 0.  1.
          2   -1    0    0  501    0  0.00000000000E+00 -0.00000000000E+00 -0.93440762175E+03  0.93440762175E+03  0.00000000000E+00 0. -1.
         23    2    1    2    0    0  0.15629616869E+03 -0.12645762924E+03 -0.59955303362E+03  0.64459892007E+03  0.12499561307E+03 0.  0.
          5    1    3    3  502    0  0.19682099178E+02 -0.26686265563E+02 -0.16217125574E+02  0.37210575911E+02  0.47000000000E+01 0.  1.
         -5    1    3    3    0  502  0.13661406951E+03 -0.99771363680E+02 -0.58333590805E+03  0.60738834415E+03  0.47000000000E+01 0.  1.
        -11    1    1    2    0    0 -0.66867469133E+02  0.26797260069E+01 -0.10068187638E+03  0.12089367060E+03  0.00000000000E+00 0.  1.
         11    1    1    2    0    0 -0.89428699552E+02  0.12377790324E+03 -0.17261907521E+03  0.23046866763E+03  0.00000000000E+00 0. -1.
<mgrwt>
<rscale>  0 0.23265291E+03</rscale>
<asrwt>0</asrwt>
<pdfrwt beam="2">  1        2 0.14375500E+00 0.23673599E+03</pdfrwt>
<pdfrwt beam="1">  1       -2 0.94697913E-02 0.23673599E+03</pdfrwt>
<totfact> 0.20853554E+03</totfact>
</mgrwt>
</event>
<event>
 6    1  0.8712071E-006  0.1380777E+03  0.7546771E-02  0.1239413E+00
         -1   -1    0    0    0  501 -0.00000000000E+00  0.00000000000E+00  0.56085436429E+03  0.56085436429E+03  0.00000000000E+00 0.  1.
          1   -1    0    0  501    0  0.00000000000E+00 -0.00000000000E+00 -0.26114777064E+02  0.26114777064E+02  0.00000000000E+00 0. -1.
          5    1    1    2  502    0  0.23313824316E+01  0.37234650223E+02  0.40339814700E+03  0.40514689869E+03  0.47000000000E+01 0. -1.
         -5    1    1    2    0  502  0.10261016753E+02 -0.37799953933E+02  0.29557961726E+02  0.49293894992E+02  0.47000000000E+01 0.  1.
        -11    1    1    2    0    0  0.21127625342E+02  0.15346687483E+02  0.90242000835E+02  0.93944217938E+02  0.00000000000E+00 0.  1.
         11    1    1    2    0    0 -0.33720024526E+02 -0.14781383773E+02  0.11541477671E+02  0.38584129731E+02  0.00000000000E+00 0. -1.
<mgrwt>
<rscale>  0 0.12226114E+03</rscale>
<asrwt>0</asrwt>
<pdfrwt beam="2">  1        1 0.40176584E-02 0.13807767E+03</pdfrwt>
<pdfrwt beam="1">  1       -1 0.86285278E-01 0.13807767E+03</pdfrwt>
<totfact> 0.30314260E+03</totfact>
</mgrwt>
</event>
<event>
 7    1  0.8712071E-006  0.1347737E+03  0.7546771E-02  0.1238262E+00
          2   -1    0    0  501    0  0.00000000000E+00  0.00000000000E+00  0.10586165581E+04  0.10586165581E+04  0.00000000000E+00 0. -1.
         -2   -1    0    0    0  501 -0.00000000000E+00 -0.00000000000E+00 -0.12317699178E+02  0.12317699178E+02  0.00000000000E+00 0.  1.
         23    2    1    2    0    0 -0.33354111941E+02  0.37766628880E+02  0.59719522148E+03  0.61221409146E+03  0.12500058475E+03 0.  0.
          5    1    3    3  502    0  0.40035609455E+02  0.42888093772E+02  0.21150182598E+03  0.21953895100E+03  0.47000000000E+01 0. -1.
         -5    1    3    3    0  502 -0.73389721396E+02 -0.51214648925E+01  0.38569339550E+03  0.39267514047E+03  0.47000000000E+01 0. -1.
        -11    1    1    2    0    0  0.57137591099E+02 -0.15089393248E+02  0.32558570789E+03  0.33090549600E+03  0.00000000000E+00 0. -1.
         11    1    1    2    0    0 -0.23783479157E+02 -0.22677235631E+02  0.12351792955E+03  0.12781466981E+03  0.00000000000E+00 0.  1.
<mgrwt>
<rscale>  0 0.12297914E+03</rscale>
<asrwt>0</asrwt>
<pdfrwt beam="1">  1        2 0.16286401E+00 0.13477374E+03</pdfrwt>
<pdfrwt beam="2">  1       -2 0.18950315E-02 0.13477374E+03</pdfrwt>
<totfact> 0.19331321E+04</totfact>
</mgrwt>
</event>
<event>
 7    1  0.8712071E-006  0.1436048E+03  0.7546771E-02  0.1216078E+00
         -3   -1    0    0    0  501 -0.00000000000E+00  0.00000000000E+00  0.39036285677E+03  0.39036285677E+03  0.00000000000E+00 0.  1.
          3   -1    0    0  501    0  0.00000000000E+00 -0.00000000000E+00 -0.45465977119E+02  0.45465977119E+02  0.00000000000E+00 0. -1.
         23    2    1    2    0    0  0.65294100705E+02  0.27120117074E+02  0.19891303349E+03  0.24533390785E+03  0.12499404431E+03 0.  0.
          5    1    3    3  502    0  0.74336523763E+02  0.65055105716E+02  0.10878509251E+03  0.14701827062E+03  0.47000000000E+01 0.  1.
         -5    1    3    3    0  502 -0.90424230573E+01 -0.37934988642E+02  0.90127940979E+02  0.98315637226E+02  0.47000000000E+01 0.  1.
        -11    1    1    2    0    0 -0.92307994050E+02 -0.20419180103E+02  0.11372453958E+03  0.14788840246E+03  0.00000000000E+00 0.  1.
         11    1    1    2    0    0  0.27013893344E+02 -0.67009369704E+01  0.32259306591E+02  0.42606523581E+02  0.00000000000E+00 0. -1.
<mgrwt>
<rscale>  0 0.13797642E+03</rscale>
<asrwt>0</asrwt>
<pdfrwt beam="2">  1        3 0.69947660E-02 0.14360478E+03</pdfrwt>
<pdfrwt beam="1">  1       -3 0.60055822E-01 0.14360478E+03</pdfrwt>
<totfact> 0.85001588E+02</totfact>
</mgrwt>
</event>
<event>
 7    1  0.8712071E-006  0.1300894E+03  0.7546771E-02  0.1240261E+00
          1   -1    0    0  501    0  0.00000000000E+00  0.00000000000E+00  0.72249195401E+03  0.72249195401E+03  0.00000000000E+00 0. -1.
         -1   -1    0    0    0  501 -0.00000000000E+00 -0.00000000000E+00 -0.18351968291E+02  0.18351968291E+02  0.00000000000E+00 0.  1.
         23    2    1    2    0    0  0.81755088393E+01 -0.35070802785E+02  0.37542098519E+03  0.39732123544E+03  0.12500579128E+03 0.  0.
          5    1    3    3  502    0 -0.16392112187E+02 -0.98270043868E+01  0.35653370656E+03  0.35707652579E+03  0.47000000000E+01 0.  1.
         -5    1    3    3    0  502  0.24567621027E+02 -0.25243798398E+02  0.18887278632E+02  0.40244709647E+02  0.47000000000E+01 0.  1.
        -11    1    1    2    0    0  0.30496898951E+02  0.49244923768E+02  0.17250821194E+03  0.18197309293E+03  0.00000000000E+00 0.  1.
         11    1    1    2    0    0 -0.38672407790E+02 -0.14174120983E+02  0.15621078858E+03  0.16154959393E+03  0.00000000000E+00 0. -1.
<mgrwt>
<rscale>  0 0.12173580E+03</rscale>
<asrwt>0</asrwt>
<pdfrwt beam="1">  1        1 0.11115259E+00 0.13008938E+03</pdfrwt>
<pdfrwt beam="2">  1       -1 0.28233803E-02 0.13008938E+03</pdfrwt>
<totfact> 0.10599029E+04</totfact>
</mgrwt>
</event>
<event>
 7    1  0.8712071E-006  0.1765976E+03  0.7546771E-02  0.1177093E+00
          1   -1    0    0  501    0  0.00000000000E+00  0.00000000000E+00  0.25858858767E+03  0.25858858767E+03  0.00000000000E+00 0. -1.
         -1   -1    0    0    0  501 -0.00000000000E+00 -0.00000000000E+00 -0.11883310667E+03  0.11883310667E+03  0.00000000000E+00 0.  1.
         23    2    1    2    0    0  0.12079048519E+03 -0.31162992730E+02  0.11779903125E+02  0.17699006993E+03  0.12500098122E+03 0.  0.
          5    1    3    3  502    0  0.27576083885E+02  0.45689572764E+02 -0.89743746117E+01  0.54319488781E+02  0.47000000000E+01 0. -1.
         -5    1    3    3    0  502  0.93214401306E+02 -0.76852565494E+02  0.20754277737E+02  0.12267058114E+03  0.47000000000E+01 0. -1.
        -11    1    1    2    0    0 -0.20551632212E+02 -0.99359738156E+01  0.77724759130E+02  0.81007600532E+02  0.00000000000E+00 0. -1.
         11    1    1    2    0    0 -0.10023885298E+03  0.41098966546E+02  0.50250818746E+02  0.11942402389E+03  0.00000000000E+00 0.  1.
<mgrwt>
<rscale>  0 0.17072595E+03</rscale>
<asrwt>0</asrwt>
<pdfrwt beam="1">  1        1 0.39782859E-01 0.17659762E+03</pdfrwt>
<pdfrwt beam="2">  1       -1 0.18282017E-01 0.17659762E+03</pdfrwt>
<totfact> 0.24284120E+03</totfact>
</mgrwt>
</event>
<event>
 7    1  0.8712071E-006  0.1143759E+03  0.7546771E-02  0.1261741E+00
          2   -1    0    0  501    0  0.00000000000E+00  0.00000000000E+00  0.55792156913E+03  0.55792156913E+03  0.00000000000E+00 0. -1.
         -2   -1    0    0    0  501 -0.00000000000E+00 -0.00000000000E+00 -0.13854177673E+03  0.13854177673E+03  0.00000000000E+00 0.  1.
         23    2    1    2    0    0  0.27414441707E+02  0.95096651370E+01 -0.10989718156E+03  0.15861666978E+03  0.11063395533E+03 0.  0.
          5    1    3    3  502    0  0.33776633078E+02 -0.80186168016E+01  0.10595266854E+02  0.36599301048E+02  0.47000000000E+01 0. -1.
         -5    1    3    3    0  502 -0.63621913704E+01  0.17528281939E+02 -0.12049244841E+03  0.12201736873E+03  0.47000000000E+01 0.  1.
        -11    1    1    2    0    0 -0.61000076338E+02 -0.74884845314E+01  0.36809764642E+03  0.37319293136E+03  0.00000000000E+00 0. -1.
         11    1    1    2    0    0  0.33585634631E+02 -0.20211806056E+01  0.16117932754E+03  0.16465374473E+03  0.00000000000E+00 0.  1.
<mgrwt>
<rscale>  0 0.10937009E+03</rscale>
<asrwt>0</asrwt>
<pdfrwt beam="1">  1        2 0.85834086E-01 0.11437595E+03</pdfrwt>
<pdfrwt beam="2">  1       -2 0.21314120E-01 0.11437595E+03</pdfrwt>
<totfact> 0.10277071E+03</totfact>
</mgrwt>
</event>
<event>
 7    1  0.8712071E-006  0.1900966E+03  0.7546771E-02  0.1163021E+00
         -2   -1    0    0    0  501 -0.00000000000E+00  0.00000000000E+00  0.48336431147E+02  0.48336431147E+02  0.00000000000E+00 0.  1.
          2   -1    0    0  501    0  0.00000000000E+00 -0.00000000000E+00 -0.67465400555E+03  0.67465400555E+03  0.00000000000E+00 0. -1.
         23    2    1    2    0    0  0.94019655025E+02 -0.10803758410E+03 -0.34781088113E+03  0.39636993513E+03  0.12499960535E+03 0.  0.
          5    1    3    3  502    0  0.11868678036E+03 -0.75459361474E+02 -0.31023008541E+03  0.34065446270E+03  0.47000000000E+01 0.  1.
         -5    1    3    3    0  502 -0.24667125331E+02 -0.32578222626E+02 -0.37580795722E+02  0.55715472435E+02  0.47000000000E+01 0.  1.
        -11    1    1    2    0    0 -0.44004516047E+01 -0.16293078780E+02 -0.20829981690E+02  0.26808888968E+02  0.00000000000E+00 0.  1.
         11    1    1    2    0    0 -0.89619203420E+02  0.12433066288E+03 -0.25767671159E+03  0.29981161260E+03  0.00000000000E+00 0. -1.
<mgrwt>
<rscale>  0 0.18503135E+03</rscale>
<asrwt>0</asrwt>
<pdfrwt beam="2">  1        2 0.10379292E+00 0.19009660E+03</pdfrwt>
<pdfrwt beam="1">  1       -2 0.74363741E-02 0.19009660E+03</pdfrwt>
<totfact> 0.45773679E+03</totfact>
</mgrwt>
</event>
<event>
 7    1  0.8712071E-006  0.1502146E+03  0.7546771E-02  0.1209133E+00
          2   -1    0    0  501    0  0.00000000000E+00  0.00000000000E+00  0.11076583068E+03  0.11076583068E+03  0.00000000000E+00 0. -1.
         -2   -1    0    0    0  501 -0.00000000000E+00 -0.00000000000E+00 -0.20430549896E+03  0.20430549896E+03  0.00000000000E+00 0.  1.
         23    2    1    2    0    0 -0.81889319524E+02 -0.15268629731E+02 -0.11513756447E+03  0.18926458448E+03  0.12500172991E+03 0.  0.
          5    1    3    3  502    0 -0.28826837209E+02  0.37277710401E+02 -0.10312787808E+03  0.11348155566E+03  0.47000000000E+01 0. -1.
         -5    1    3    3    0  502 -0.53062482315E+02 -0.52546340131E+02 -0.12009686389E+02  0.75783028824E+02  0.47000000000E+01 0. -1.
        -11    1    1    2    0    0  0.39343978003E+02  0.30547565011E+02  0.51467632639E+02  0.71624154743E+02  0.00000000000E+00 0. -1.
         11    1    1    2    0    0  0.42545341520E+02 -0.15278935281E+02 -0.29869736450E+02  0.54182590414E+02  0.00000000000E+00 0.  1.
<mgrwt>
<rscale>  0 0.14316474E+03</rscale>
<asrwt>0</asrwt>
<pdfrwt beam="1">  1        2 0.17040897E-01 0.15021459E+03</pdfrwt>
<pdfrwt beam="2">  1       -2 0.31431615E-01 0.15021459E+03</pdfrwt>
<totfact> 0.30417249E+03</totfact>
</mgrwt>
</event>
<event>
 7    1  0.8712071E-006  0.1969207E+03  0.7546771E-02  0.1157043E+00
          3   -1    0    0  501    0  0.00000000000E+00  0.00000000000E+00  0.29899114048E+03  0.29899114048E+03  0.00000000000E+00 0. -1.
         -3   -1    0    0    0  501 -0.00000000000E+00 -0.00000000000E+00 -0.11724302849E+03  0.11724302849E+03  0.00000000000E+00 0.  1.
         23    2    1    2    0    0 -0.92298465621E+02 -0.12096354109E+03  0.11190249760E+03  0.22649490847E+03  0.12500635809E+03 0.  0.
          5    1    3    3  502    0  0.23772746407E+02 -0.64137239405E+01  0.42200137975E+02  0.49083815781E+02  0.47000000000E+01 0. -1.
         -5    1    3    3    0  502 -0.11607121203E+03 -0.11454981715E+03  0.69702359629E+02  0.17741109269E+03  0.47000000000E+01 0. -1.
        -11    1    1    2    0    0 -0.12982756296E+01  0.60130896459E+02  0.45678760686E+02  0.75524561610E+02  0.00000000000E+00 0. -1.
         11    1    1    2    0    0  0.93596741251E+02  0.60832644632E+02  0.24166853702E+02  0.11421469889E+03  0.00000000000E+00 0.  1.
<mgrwt>
<rscale>  0 0.19158126E+03</rscale>
<asrwt>0</asrwt>
<pdfrwt beam="1">  1        3 0.45998637E-01 0.19692073E+03</pdfrwt>
<pdfrwt beam="2">  1       -3 0.18037389E-01 0.19692073E+03</pdfrwt>
<totfact> 0.31000848E+02</totfact>
</mgrwt>
</event>
<event>
 7    1  0.8712071E-006  0.1378937E+03  0.7546771E-02  0.1227533E+00
         -1   -1    0    0    0  501 -0.00000000000E+00  0.00000000000E+00  0.26155802834E+02  0.26155802834E+02  0.00000000000E+00 0.  1.
          1   -1    0    0  501    0  0.00000000000E+00 -0.00000000000E+00 -0.58260256855E+03  0.58260256855E+03  0.00000000000E+00 0. -1.
         23    2    1    2    0    0  0.56964107673E+02  0.12073036013E+02 -0.29770199666E+03  0.32808712612E+03  0.12499606294E+03 0.  0.
          5    1    3    3  502    0 -0.13905242898E+02  0.29208476702E+02 -0.21609006256E+03  0.21854861250E+03  0.47000000000E+01 0.  1.
         -5    1    3    3    0  502  0.70869350571E+02 -0.17135440689E+02 -0.81611934105E+02  0.10953851362E+03  0.47000000000E+01 0.  1.
        -11    1    1    2    0    0 -0.24111519592E+02 -0.51693824522E+02 -0.14537518388E+03  0.15616517204E+03  0.00000000000E+00 0. -1.
         11    1    1    2    0    0 -0.32852588081E+02  0.39620788509E+02 -0.11336958518E+03  0.12450607322E+03  0.00000000000E+00 0.  1.
<mgrwt>
<rscale>  0 0.12994812E+03</rscale>
<asrwt>0</asrwt>
<pdfrwt beam="2">  1        1 0.89631168E-01 0.13789374E+03</pdfrwt>
<pdfrwt beam="1">  1       -1 0.40239695E-02 0.13789374E+03</pdfrwt>
<totfact> 0.85599379E+03</totfact>
</mgrwt>
</event>
<event>
 7    1  0.8712071E-006  0.1343265E+03  0.7546771E-02  0.1233909E+00
         -1   -1    0    0    0  501 -0.00000000000E+00  0.00000000000E+00  0.25843268968E+02  0.25843268968E+02  0.00000000000E+00 0.  1.
          1   -1    0    0  501    0  0.00000000000E+00 -0.00000000000E+00 -0.54611063851E+03  0.54611063851E+03  0.00000000000E+00 0. -1.
         23    2    1    2    0    0  0.33296060917E+02 -0.36217446738E+02 -0.28530732109E+03  0.31534724270E+03  0.12499313936E+03 0.  0.
          5    1    3    3  502    0  0.39833429076E+02  0.40464993416E+02 -0.13076710306E+03  0.14264025731E+03  0.47000000000E+01 0.  1.
         -5    1    3    3    0  502 -0.65373681596E+01 -0.76682440153E+02 -0.15454021803E+03  0.17270698538E+03  0.47000000000E+01 0.  1.
        -11    1    1    2    0    0 -0.61251741451E+02  0.92896839743E+01 -0.11648044659E+03  0.13193092320E+03  0.00000000000E+00 0.  1.
         11    1    1    2    0    0  0.27955680534E+02  0.26927762764E+02 -0.11847960185E+03  0.12467574157E+03  0.00000000000E+00 0. -1.
<mgrwt>
<rscale>  0 0.12574563E+03</rscale>
<asrwt>0</asrwt>
<pdfrwt beam="2">  1        1 0.84017019E-01 0.13432653E+03</pdfrwt>
<pdfrwt beam="1">  1       -1 0.39758876E-02 0.13432653E+03</pdfrwt>
<totfact> 0.94849075E+03</totfact>
</mgrwt>
</event>
<event>
 7    1  0.8712071E-006  0.1769425E+03  0.7546771E-02  0.1176036E+00
          2   -1    0    0  501    0  0.00000000000E+00  0.00000000000E+00  0.24469450598E+02  0.24469450598E+02  0.00000000000E+00 0. -1.
         -2   -1    0    0    0  501 -0.00000000000E+00 -0.00000000000E+00 -0.12824888648E+04  0.12824888648E+04  0.00000000000E+00 0.  1.
         23    2    1    2    0    0 -0.39946824035E+02  0.11869241856E+03 -0.87990671144E+03  0.89752129593E+03  0.12500006728E+03 0.  0.
          5    1    3    3  502    0 -0.74037893366E+02  0.30473413457E+02 -0.47217355783E+03  0.47893652742E+03  0.47000000000E+01 0.  1.
         -5    1    3    3    0  502  0.34091069332E+02  0.88219005106E+02 -0.40773315361E+03  0.41858476850E+03  0.47000000000E+01 0.  1.
        -11    1    1    2    0    0  0.72263477101E+01 -0.31925791559E+02 -0.17551254058E+02  0.37141927615E+02  0.00000000000E+00 0. -1.
         11    1    1    2    0    0  0.32720476325E+02 -0.86766627003E+02 -0.36056144867E+03  0.37229509183E+03  0.00000000000E+00 0.  1.
<mgrwt>
<rscale>  0 0.17174896E+03</rscale>
<asrwt>0</asrwt>
<pdfrwt beam="1">  1        2 0.37645313E-02 0.17694252E+03</pdfrwt>
<pdfrwt beam="2">  1       -2 0.19730596E+00 0.17694252E+03</pdfrwt>
<totfact> 0.34220030E+02</totfact>
</mgrwt>
</event>
<event>
 7    1  0.8712071E-006  0.1370325E+03  0.7546771E-02  0.1230281E+00
          2   -1    0    0  501    0  0.00000000000E+00  0.00000000000E+00  0.15092729397E+03  0.15092729397E+03  0.00000000000E+00 0. -1.
         -2   -1    0    0    0  501 -0.00000000000E+00 -0.00000000000E+00 -0.11368842890E+03  0.11368842890E+03  0.00000000000E+00 0.  1.
         23    2    1    2    0    0  0.55368066750E+02  0.92703686877E+01 -0.29884532622E+02  0.14025333458E+03  0.12500539996E+03 0.  0.
          5    1    3    3  502    0  0.81369523691E+02 -0.18237583813E+02  0.11112670547E+02  0.84256692883E+02  0.47000000000E+01 0.  1.
         -5    1    3    3    0  502 -0.26001456941E+02  0.27507952501E+02 -0.40997203169E+02  0.55996641699E+02  0.47000000000E+01 0.  1.
        -11    1    1    2    0    0 -0.46163686783E+02  0.23211910627E+02  0.73658267667E+02  0.89974547335E+02  0.00000000000E+00 0. -1.
         11    1    1    2    0    0 -0.92043799663E+01 -0.32482279315E+02 -0.65348699721E+01  0.34387840956E+02  0.00000000000E+00 0.  1.
<mgrwt>
<rscale>  0 0.12811392E+03</rscale>
<asrwt>0</asrwt>
<pdfrwt beam="1">  1        2 0.23219584E-01 0.13703252E+03</pdfrwt>
<pdfrwt beam="2">  1       -2 0.17490528E-01 0.13703252E+03</pdfrwt>
<totfact> 0.58888714E+03</totfact>
</mgrwt>
</event>
<event>
 7    1  0.8712071E-006  0.1490485E+03  0.7546771E-02  0.1209248E+00
         -2   -1    0    0    0  501 -0.00000000000E+00  0.00000000000E+00  0.63135801514E+02  0.63135801514E+02  0.00000000000E+00 0.  1.
          2   -1    0    0  501    0  0.00000000000E+00 -0.00000000000E+00 -0.49735748599E+03  0.49735748599E+03  0.00000000000E+00 0. -1.
         23    2    1    2    0    0  0.19377241585E+02  0.78865678078E+02 -0.51991973742E+02  0.15785630163E+03  0.12498069436E+03 0.  0.
          5    1    3    3  502    0  0.43476007230E+02  0.10029697075E+03 -0.59306874663E+02  0.12445497551E+03  0.47000000000E+01 0.  1.
         -5    1    3    3    0  502 -0.24098765645E+02 -0.21431292675E+02  0.73149009207E+01  0.33401326123E+02  0.47000000000E+01 0.  1.
        -11    1    1    2    0    0  0.24199569638E+02 -0.49360348659E+02 -0.88159349301E+02  0.10389482210E+03  0.00000000000E+00 0.  1.
         11    1    1    2    0    0 -0.43576811223E+02 -0.29505329419E+02 -0.29407036144E+03  0.29874216377E+03  0.00000000000E+00 0. -1.
<mgrwt>
<rscale>  0 0.14307648E+03</rscale>
<asrwt>0</asrwt>
<pdfrwt beam="2">  1        2 0.76516536E-01 0.14904847E+03</pdfrwt>
<pdfrwt beam="1">  1       -2 0.97132002E-02 0.14904847E+03</pdfrwt>
<totfact> 0.42298526E+03</totfact>
</mgrwt>
</event>
<event>
 7    1  0.8712071E-006  0.1298825E+03  0.7546771E-02  0.1241800E+00
         -2   -1    0    0    0  501 -0.00000000000E+00  0.00000000000E+00  0.11174475966E+03  0.11174475966E+03  0.00000000000E+00 0.  1.
          2   -1    0    0  501    0  0.00000000000E+00 -0.00000000000E+00 -0.12361085368E+03  0.12361085368E+03  0.00000000000E+00 0. -1.
         23    2    1    2    0    0  0.24986517813E+02 -0.24816966142E+02  0.23446782777E+02  0.13198183545E+03  0.12501698038E+03 0.  0.
          5    1    3    3  502    0  0.16815504817E+02  0.45258464254E+02  0.35688525976E+02  0.60223339955E+02  0.47000000000E+01 0. -1.
         -5    1    3    3    0  502  0.81710129952E+01 -0.70075430396E+02 -0.12241743199E+02  0.71758495491E+02  0.47000000000E+01 0. -1.
        -11    1    1    2    0    0 -0.55268461922E+02  0.23592823586E+02 -0.46690020825E+01  0.60274569998E+02  0.00000000000E+00 0.  1.
         11    1    1    2    0    0  0.30281944110E+02  0.12241425557E+01 -0.30643874711E+02  0.43099207897E+02  0.00000000000E+00 0. -1.
<mgrwt>
<rscale>  0 0.12078957E+03</rscale>
<asrwt>0</asrwt>
<pdfrwt beam="2">  1        2 0.19017054E-01 0.12988246E+03</pdfrwt>
<pdfrwt beam="1">  1       -2 0.17191502E-01 0.12988246E+03</pdfrwt>
<totfact> 0.75553832E+03</totfact>
</mgrwt>
</event>
<event>
 6    1  0.8712071E-006  0.1749010E+03  0.7546771E-02  0.1201064E+00
          1   -1    0    0  501    0  0.00000000000E+00  0.00000000000E+00  0.48291317803E+03  0.48291317803E+03  0.00000000000E+00 0. -1.
         -1   -1    0    0    0  501 -0.00000000000E+00 -0.00000000000E+00 -0.49486289971E+02  0.49486289971E+02  0.00000000000E+00 0.  1.
          5    1    1    2  502    0 -0.70045698852E+02 -0.24000526016E+02  0.75415742800E+02  0.10579248290E+03  0.47000000000E+01 0. -1.
         -5    1    1    2    0  502  0.92936123964E+02  0.33548855659E+02  0.63282167645E+02  0.11742815504E+03  0.47000000000E+01 0.  1.
        -11    1    1    2    0    0  0.28430315871E+02  0.14676891153E+02  0.63728099239E+02  0.71308937918E+02  0.00000000000E+00 0.  1.
         11    1    1    2    0    0 -0.51320740983E+02 -0.24225220795E+02  0.23100087837E+03  0.23786989214E+03  0.00000000000E+00 0. -1.
<mgrwt>
<rscale>  0 0.14951969E+03</rscale>
<asrwt>0</asrwt>
<pdfrwt beam="1">  1        1 0.74294332E-01 0.17490095E+03</pdfrwt>
<pdfrwt beam="2">  1       -1 0.76132757E-02 0.17490095E+03</pdfrwt>
<totfact> 0.42991345E+03</totfact>
</mgrwt>
</event>
<event>
 7    1  0.8712071E-006  0.1643026E+03  0.7546771E-02  0.1187418E+00
          3   -1    0    0  501    0  0.00000000000E+00  0.00000000000E+00  0.10939732803E+03  0.10939732803E+03  0.00000000000E+00 0. -1.
         -3   -1    0    0    0  501 -0.00000000000E+00 -0.00000000000E+00 -0.23204569961E+03  0.23204569961E+03  0.00000000000E+00 0.  1.
         23    2    1    2    0    0  0.53118184799E+02  0.92461606263E+02 -0.84333100224E+02  0.18468195727E+03  0.12499865343E+03 0.  0.
          5    1    3    3  502    0 -0.38236914922E+02  0.44949685234E+02 -0.44968867519E+02  0.74342618405E+02  0.47000000000E+01 0.  1.
         -5    1    3    3    0  502  0.91355099721E+02  0.47511921029E+02 -0.39364232705E+02  0.11033933887E+03  0.47000000000E+01 0.  1.
        -11    1    1    2    0    0 -0.43566958844E+01 -0.28148988769E+02 -0.65639199160E+02  0.71553132944E+02  0.00000000000E+00 0.  1.
         11    1    1    2    0    0 -0.48761488914E+02 -0.64312617494E+02  0.27323927799E+02  0.85207937426E+02  0.00000000000E+00 0. -1.
<mgrwt>
<rscale>  0 0.16113835E+03</rscale>
<asrwt>0</asrwt>
<pdfrwt beam="1">  1        3 0.16830358E-01 0.16430263E+03</pdfrwt>
<pdfrwt beam="2">  1       -3 0.35699338E-01 0.16430263E+03</pdfrwt>
<totfact> 0.55948844E+02</totfact>
</mgrwt>
</event>
<event>
 7    1  0.8712071E-006  0.1664380E+03  0.7546771E-02  0.1189008E+00
         -1   -1    0    0    0  501 -0.00000000000E+00  0.00000000000E+00  0.11523126300E+03  0.11523126300E+03  0.00000000000E+00 0.  1.
          1   -1    0    0  501    0  0.00000000000E+00 -0.00000000000E+00 -0.24096876521E+03  0.24096876521E+03  0.00000000000E+00 0. -1.
         23    2    1    2    0    0 -0.10501468409E+03  0.32385494673E+02  0.10704531233E+01  0.16644142465E+03  0.12499879131E+03 0.  0.
          5    1    3    3  502    0 -0.10017836268E+03  0.30857610135E+02 -0.49063609780E+02  0.11583274260E+03  0.47000000000E+01 0.  1.
         -5    1    3    3    0  502 -0.48363214076E+01  0.15278845377E+01  0.50134062903E+02  0.50608682053E+02  0.47000000000E+01 0.  1.
        -11    1    1    2    0    0  0.89333277923E+02  0.29157044696E+01 -0.46749301472E+02  0.10086839478E+03  0.00000000000E+00 0.  1.
         11    1    1    2    0    0  0.15681406169E+02 -0.35301199142E+02 -0.80058653854E+02  0.88890208781E+02  0.00000000000E+00 0. -1.
<mgrwt>
<rscale>  0 0.15972485E+03</rscale>
<asrwt>0</asrwt>
<pdfrwt beam="2">  1        1 0.37072118E-01 0.16643798E+03</pdfrwt>
<pdfrwt beam="1">  1       -1 0.17727887E-01 0.16643798E+03</pdfrwt>
<totfact> 0.27792002E+03</totfact>
</mgrwt>
</event>
<event>
 7    1  0.8712071E-006  0.3859857E+03  0.7546771E-02  0.1049615E+00
          1   -1    0    0  501    0  0.00000000000E+00  0.00000000000E+00  0.10026198236E+04  0.10026198236E+04  0.00000000000E+00 0. -1.
         -1   -1    0    0    0  501 -0.00000000000E+00 -0.00000000000E+00 -0.14872696825E+03  0.14872696825E+03  0.00000000000E+00 0.  1.
         23    2    1    2    0    0  0.35950083099E+03  0.64187942586E+02  0.52370574397E+03  0.65057871518E+03  0.12499607562E+03 0.  0.
          5    1    3    3  502    0  0.32278601925E+03  0.74168959149E+02  0.51323351867E+03  0.61083760805E+03  0.47000000000E+01 0.  1.
         -5    1    3    3    0  502  0.36714811740E+02 -0.99810165625E+01  0.10472225297E+02  0.39741107124E+02  0.47000000000E+01 0.  1.
        -11    1    1    2    0    0 -0.23990495219E+03 -0.84536117542E+02  0.20792963058E+03  0.32853534441E+03  0.00000000000E+00 0.  1.
         11    1    1    2    0    0 -0.11959587880E+03  0.20348174955E+02  0.12225748078E+03  0.17223273224E+03  0.00000000000E+00 0. -1.
<mgrwt>
<rscale>  0 0.38358969E+03</rscale>
<asrwt>0</asrwt>
<pdfrwt beam="1">  1        1 0.15424920E+00 0.38598570E+03</pdfrwt>
<pdfrwt beam="2">  1       -1 0.22881073E-01 0.38598570E+03</pdfrwt>
<totfact> 0.25542853E+02</totfact>
</mgrwt>
</event>
<event>
 7    1  0.8712071E-006  0.1544464E+03  0.7546771E-02  0.1203352E+00
          2   -1    0    0  501    0  0.00000000000E+00  0.00000000000E+00  0.12501957765E+04  0.12501957765E+04  0.00000000000E+00 0. -1.
         -2   -1    0    0    0  501 -0.00000000000E+00 -0.00000000000E+00 -0.16643943517E+02  0.16643943517E+02  0.00000000000E+00 0.  1.
         23    2    1    2    0    0  0.29477818400E+02  0.85791723572E+02  0.78632385897E+03  0.80134818227E+03  0.12499814570E+03 0.  0.
          5    1    3    3  502    0  0.53365004403E+01 -0.21484325163E+02  0.32922849293E+02  0.39950700498E+02  0.47000000000E+01 0. -1.
         -5    1    3    3    0  502  0.24141317960E+02  0.10727604874E+03  0.75340100968E+03  0.76139748177E+03  0.47000000000E+01 0. -1.
        -11    1    1    2    0    0 -0.51036951924E+02 -0.21113244323E+02  0.13412547850E+03  0.14505234755E+03  0.00000000000E+00 0. -1.
         11    1    1    2    0    0  0.21559133524E+02 -0.64678479249E+02  0.31310249549E+03  0.32043919017E+03  0.00000000000E+00 0.  1.
<mgrwt>
<rscale>  0 0.14768070E+03</rscale>
<asrwt>0</asrwt>
<pdfrwt beam="1">  1        2 0.19233774E+00 0.15444642E+03</pdfrwt>
<pdfrwt beam="2">  1       -2 0.25606077E-02 0.15444642E+03</pdfrwt>
<totfact> 0.97967268E+03</totfact>
</mgrwt>
</event>
<event>
 7    1  0.8712071E-006  0.1211016E+03  0.7546771E-02  0.1246216E+00
         -1   -1    0    0    0  501 -0.00000000000E+00  0.00000000000E+00  0.83708328800E+02  0.83708328800E+02  0.00000000000E+00 0.  1.
          1   -1    0    0  501    0  0.00000000000E+00 -0.00000000000E+00 -0.36029265521E+03  0.36029265521E+03  0.00000000000E+00 0. -1.
         23    2    1    2    0    0  0.25432688360E+02 -0.34516226511E+02  0.24517300455E+02  0.12355844668E+03  0.11325811315E+03 0.  0.
          5    1    3    3  502    0 -0.35812761211E+02  0.84560146785E+01 -0.13535479544E+02  0.39488697830E+02  0.47000000000E+01 0. -1.
         -5    1    3    3    0  502  0.61245449571E+02 -0.42972241189E+02  0.38052779999E+02  0.84069748849E+02  0.47000000000E+01 0.  1.
        -11    1    1    2    0    0 -0.60414702223E+02  0.33938209721E+02 -0.14835835349E+03  0.16374351704E+03  0.00000000000E+00 0. -1.
         11    1    1    2    0    0  0.34982013863E+02  0.57801678979E+00 -0.15274327338E+03  0.15669902029E+03  0.00000000000E+00 0.  1.
<mgrwt>
<rscale>  0 0.11812885E+03</rscale>
<asrwt>0</asrwt>
<pdfrwt beam="2">  1        1 0.55429638E-01 0.12110158E+03</pdfrwt>
<pdfrwt beam="1">  1       -1 0.12878205E-01 0.12110158E+03</pdfrwt>
<totfact> 0.27499000E+03</totfact>
</mgrwt>
</event>
<event>
 7    1  0.8712071E-006  0.1826173E+03  0.7546771E-02  0.1170726E+00
         -1   -1    0    0    0  501 -0.00000000000E+00  0.00000000000E+00  0.45419545030E+02  0.45419545030E+02  0.00000000000E+00 0.  1.
          1   -1    0    0  501    0  0.00000000000E+00 -0.00000000000E+00 -0.65657965530E+03  0.65657965530E+03  0.00000000000E+00 0. -1.
         23    2    1    2    0    0 -0.10162667318E+03  0.85992937457E+02 -0.29127400283E+03  0.34378718184E+03  0.12500526259E+03 0.  0.
          5    1    3    3  502    0 -0.11088479764E+03  0.83197172665E+02 -0.15867753037E+03  0.21075544248E+03  0.47000000000E+01 0.  1.
         -5    1    3    3    0  502  0.92581244585E+01  0.27957647916E+01 -0.13259647246E+03  0.13303173936E+03  0.47000000000E+01 0.  1.
        -11    1    1    2    0    0  0.16062560623E+01 -0.39114942389E+02 -0.15411480752E+03  0.15900922198E+03  0.00000000000E+00 0. -1.
         11    1    1    2    0    0  0.10002041712E+03 -0.46877995067E+02 -0.16577129991E+03  0.19920279651E+03  0.00000000000E+00 0.  1.
<mgrwt>
<rscale>  0 0.17701276E+03</rscale>
<asrwt>0</asrwt>
<pdfrwt beam="2">  1        1 0.10101225E+00 0.18261731E+03</pdfrwt>
<pdfrwt beam="1">  1       -1 0.69876225E-02 0.18261731E+03</pdfrwt>
<totfact> 0.32333331E+03</totfact>
</mgrwt>
</event>
<event>
 7    1  0.8712071E-006  0.1883788E+03  0.7546771E-02  0.1169786E+00
         -1   -1    0    0    0  501 -0.00000000000E+00  0.00000000000E+00  0.93862158749E+02  0.93862158749E+02  0.00000000000E+00 0.  1.
          1   -1    0    0  501    0  0.00000000000E+00 -0.00000000000E+00 -0.33090547455E+03  0.33090547455E+03  0.00000000000E+00 0. -1.
         23    2    1    2    0    0 -0.52624113722E+02  0.13074440602E+03 -0.71899774779E+02  0.20163374482E+03  0.12499276933E+03 0.  0.
          5    1    3    3  502    0 -0.71418277405E+02  0.89647603827E+02  0.21755903621E+01  0.11473485265E+03  0.47000000000E+01 0. -1.
         -5    1    3    3    0  502  0.18794163682E+02  0.41096802194E+02 -0.74075365141E+02  0.86898892167E+02  0.47000000000E+01 0. -1.
        -11    1    1    2    0    0 -0.91964961500E+01 -0.33931758241E+02 -0.36786370790E+02  0.50883954589E+02  0.00000000000E+00 0.  1.
         11    1    1    2    0    0  0.61820609873E+02 -0.96812647781E+02 -0.12835717023E+03  0.17224993389E+03  0.00000000000E+00 0. -1.
<mgrwt>
<rscale>  0 0.17796571E+03</rscale>
<asrwt>0</asrwt>
<pdfrwt beam="2">  1        1 0.50908534E-01 0.18837885E+03</pdfrwt>
<pdfrwt beam="1">  1       -1 0.14440332E-01 0.18837885E+03</pdfrwt>
<totfact> 0.26017861E+03</totfact>
</mgrwt>
</event>
<event>
 7    1  0.8712071E-006  0.1530065E+03  0.7546771E-02  0.1201494E+00
         -1   -1    0    0    0  501 -0.00000000000E+00  0.00000000000E+00  0.28315948103E+03  0.28315948103E+03  0.00000000000E+00 0.  1.
          1   -1    0    0  501    0  0.00000000000E+00 -0.00000000000E+00 -0.79039181290E+02  0.79039181290E+02  0.00000000000E+00 0. -1.
         23    2    1    2    0    0  0.83947607271E+02 -0.27201788113E+02  0.14841210440E+03  0.21315992568E+03  0.12499545247E+03 0.  0.
          5    1    3    3  502    0 -0.21340804268E+02 -0.38323304788E+02  0.25845669057E+02  0.51129191522E+02  0.47000000000E+01 0.  1.
         -5    1    3    3    0  502  0.10528841154E+03  0.11121516674E+02  0.12256643534E+03  0.16203073415E+03  0.47000000000E+01 0.  1.
        -11    1    1    2    0    0 -0.69351342610E+02 -0.18956230803E+02 -0.41968446326E+01  0.72017781921E+02  0.00000000000E+00 0. -1.
         11    1    1    2    0    0 -0.14596264661E+02  0.46158018916E+02  0.59905039966E+02  0.77020954718E+02  0.00000000000E+00 0.  1.
<mgrwt>
<rscale>  0 0.14917211E+03</rscale>
<asrwt>0</asrwt>
<pdfrwt beam="2">  1        1 0.12159874E-01 0.15300654E+03</pdfrwt>
<pdfrwt beam="1">  1       -1 0.43562996E-01 0.15300654E+03</pdfrwt>
<totfact> 0.25400585E+03</totfact>
</mgrwt>
</event>
<event>
 7    1  0.8712071E-006  0.1838711E+03  0.7546771E-02  0.1169632E+00
          2   -1    0    0  501    0  0.00000000000E+00  0.00000000000E+00  0.84927497322E+03  0.84927497322E+03  0.00000000000E+00 0. -1.
         -2   -1    0    0    0  501 -0.00000000000E+00 -0.00000000000E+00 -0.40603349162E+02  0.40603349162E+02  0.00000000000E+00 0.  1.
         23    2    1    2    0    0 -0.10841366578E+03  0.80202157999E+02  0.26456161096E+03  0.32218226832E+03  0.12499063544E+03 0.  0.
          5    1    3    3  502    0  0.20687870039E+02 -0.12223429827E+02  0.44336428210E+02  0.50647893045E+02  0.47000000000E+01 0.  1.
         -5    1    3    3    0  502 -0.12910153582E+03  0.92425587826E+02  0.22022518275E+03  0.27153437527E+03  0.47000000000E+01 0.  1.
        -11    1    1    2    0    0  0.58541078069E+02 -0.86131822454E+02  0.27753594046E+03  0.29643202747E+03  0.00000000000E+00 0.  1.
         11    1    1    2    0    0  0.49872587710E+02  0.59296644548E+01  0.26657407263E+03  0.27126402660E+03  0.00000000000E+00 0. -1.
<mgrwt>
<rscale>  0 0.17812323E+03</rscale>
<asrwt>0</asrwt>
<pdfrwt beam="1">  1        2 0.13065767E+00 0.18387106E+03</pdfrwt>
<pdfrwt beam="2">  1       -2 0.62466697E-02 0.18387106E+03</pdfrwt>
<totfact> 0.44986282E+03</totfact>
</mgrwt>
</event>
<event>
 7    1  0.8712071E-006  0.1690861E+03  0.7546771E-02  0.1185674E+00
         -2   -1    0    0    0  501 -0.00000000000E+00  0.00000000000E+00  0.39764499556E+02  0.39764499556E+02  0.00000000000E+00 0.  1.
          2   -1    0    0  501    0  0.00000000000E+00 -0.00000000000E+00 -0.86914079969E+03  0.86914079969E+03  0.00000000000E+00 0. -1.
         23    2    1    2    0    0 -0.10258738043E+03  0.49411972920E+02 -0.19466063894E+03  0.25784273909E+03  0.12499760022E+03 0.  0.
          5    1    3    3  502    0 -0.12331542456E+03  0.98077329134E+01 -0.13534270997E+03  0.18341925935E+03  0.47000000000E+01 0. -1.
         -5    1    3    3    0  502  0.20728044130E+02  0.39604240007E+02 -0.59317928971E+02  0.74423479745E+02  0.47000000000E+01 0. -1.
        -11    1    1    2    0    0  0.96353487350E+02 -0.60647374011E+01 -0.50523436703E+03  0.51437587540E+03  0.00000000000E+00 0. -1.
         11    1    1    2    0    0  0.62338930770E+01 -0.43347235519E+02 -0.12948129417E+03  0.13668668476E+03  0.00000000000E+00 0.  1.
<mgrwt>
<rscale>  0 0.16270696E+03</rscale>
<asrwt>0</asrwt>
<pdfrwt beam="2">  1        2 0.13371396E+00 0.16908611E+03</pdfrwt>
<pdfrwt beam="1">  1       -2 0.61176159E-02 0.16908611E+03</pdfrwt>
<totfact> 0.44948306E+03</totfact>
</mgrwt>
</event>
<event>
 7    1  0.8712071E-006  0.2143955E+03  0.7546771E-02  0.1141560E+00
          2   -1    0    0  501    0  0.00000000000E+00  0.00000000000E+00  0.30245834200E+03  0.30245834200E+03  0.00000000000E+00 0. -1.
         -2   -1    0    0    0  501 -0.00000000000E+00 -0.00000000000E+00 -0.14552540534E+03  0.14552540534E+03  0.00000000000E+00 0.  1.
         23    2    1    2    0    0 -0.15097499716E+03  0.86873362651E+02  0.38567100320E+02  0.21783679618E+03  0.12500007055E+03 0.  0.
          5    1    3    3  502    0 -0.62355221505E+02 -0.16406119697E+02 -0.22701098837E+02  0.68518350103E+02  0.47000000000E+01 0.  1.
         -5    1    3    3    0  502 -0.88619775656E+02  0.10327948235E+03  0.61268199156E+02  0.14931844608E+03  0.47000000000E+01 0.  1.
        -11    1    1    2    0    0  0.48974374283E+02 -0.79660122112E+02  0.71234524517E+02  0.11755246435E+03  0.00000000000E+00 0. -1.
         11    1    1    2    0    0  0.10200062288E+03 -0.72132405386E+01  0.47131311823E+02  0.11259448681E+03  0.00000000000E+00 0.  1.
<mgrwt>
<rscale>  0 0.21000769E+03</rscale>
<asrwt>0</asrwt>
<pdfrwt beam="1">  1        2 0.46532053E-01 0.21439554E+03</pdfrwt>
<pdfrwt beam="2">  1       -2 0.22388524E-01 0.21439554E+03</pdfrwt>
<totfact> 0.18571818E+03</totfact>
</mgrwt>
</event>
<event>
 7    1  0.8712071E-006  0.3165121E+03  0.7546771E-02  0.1078678E+00
         -2   -1    0    0    0  501 -0.00000000000E+00  0.00000000000E+00  0.20043756269E+03  0.20043756269E+03  0.00000000000E+00 0.  1.
          2   -1    0    0  501    0  0.00000000000E+00 -0.00000000000E+00 -0.51735566744E+03  0.51735566744E+03  0.00000000000E+00 0. -1.
         23    2    1    2    0    0  0.25006052720E+03 -0.14841583456E+03 -0.66478589643E+02  0.32341816832E+03  0.12498952558E+03 0.  0.
          5    1    3    3  502    0  0.58614018657E+02 -0.86583881877E+02 -0.62975326026E+02  0.12214889878E+03  0.47000000000E+01 0.  1.
         -5    1    3    3    0  502  0.19144650854E+03 -0.61831952687E+02 -0.35032636172E+01  0.20126926954E+03  0.47000000000E+01 0.  1.
        -11    1    1    2    0    0 -0.19784817057E+03  0.92827470948E+02 -0.13784552503E+03  0.25838387476E+03  0.00000000000E+00 0. -1.
         11    1    1    2    0    0 -0.52212356628E+02  0.55588363617E+02 -0.11259399007E+03  0.13599118705E+03  0.00000000000E+00 0.  1.
<mgrwt>
<rscale>  0 0.31350401E+03</rscale>
<asrwt>0</asrwt>
<pdfrwt beam="2">  1        2 0.79593180E-01 0.31651210E+03</pdfrwt>
<pdfrwt beam="1">  1       -2 0.30836548E-01 0.31651210E+03</pdfrwt>
<totfact> 0.58424883E+02</totfact>
</mgrwt>
</event>
<event>
 7    1  0.8712071E-006  0.1466068E+03  0.7546771E-02  0.1214572E+00
         -2   -1    0    0    0  501 -0.00000000000E+00  0.00000000000E+00  0.77002432299E+02  0.77002432299E+02  0.00000000000E+00 0.  1.
          2   -1    0    0  501    0  0.00000000000E+00 -0.00000000000E+00 -0.25813614285E+03  0.25813614285E+03  0.00000000000E+00 0. -1.
         23    2    1    2    0    0  0.41043010037E+02  0.64681539769E+02 -0.42579534069E+02  0.15266485524E+03  0.12500124417E+03 0.  0.
          5    1    3    3  502    0  0.68639994344E+02  0.32862798550E+02 -0.68909034794E+02  0.10277138429E+03  0.47000000000E+01 0. -1.
         -5    1    3    3    0  502 -0.27596984308E+02  0.31818741219E+02  0.26329500725E+02  0.49893470956E+02  0.47000000000E+01 0. -1.
        -11    1    1    2    0    0 -0.58994188760E+02 -0.47500550211E+02 -0.50626516677E+02  0.91102473999E+02  0.00000000000E+00 0.  1.
         11    1    1    2    0    0  0.17951178723E+02 -0.17180989557E+02 -0.87927659809E+02  0.91371245911E+02  0.00000000000E+00 0. -1.
<mgrwt>
<rscale>  0 0.13908028E+03</rscale>
<asrwt>0</asrwt>
<pdfrwt beam="2">  1        2 0.39713253E-01 0.14660676E+03</pdfrwt>
<pdfrwt beam="1">  1       -2 0.11846528E-01 0.14660676E+03</pdfrwt>
<totfact> 0.62304158E+03</totfact>
</mgrwt>
</event>
<event>
 7    1  0.8712071E-006  0.1475845E+03  0.7546771E-02  0.1212673E+00
         -2   -1    0    0    0  501 -0.00000000000E+00  0.00000000000E+00  0.17634101389E+03  0.17634101389E+03  0.00000000000E+00 0.  1.
          2   -1    0    0  501    0  0.00000000000E+00 -0.00000000000E+00 -0.11130198027E+03  0.11130198027E+03  0.00000000000E+00 0. -1.
         23    2    1    2    0    0 -0.54858423559E+02  0.56096850019E+02  0.75931676527E+02  0.16597231815E+03  0.12499955070E+03 0.  0.
          5    1    3    3  502    0 -0.34663741889E+02 -0.31755139811E+02  0.56480114283E+02  0.73634619681E+02  0.47000000000E+01 0. -1.
         -5    1    3    3    0  502 -0.20194681670E+02  0.87851989830E+02  0.19451562245E+02  0.92337698470E+02  0.47000000000E+01 0. -1.
        -11    1    1    2    0    0 -0.10970900645E+02  0.18612910891E+02 -0.22224297452E+01  0.21719583485E+02  0.00000000000E+00 0. -1.
         11    1    1    2    0    0  0.65829324204E+02 -0.74709760910E+02 -0.86702131645E+01  0.99951092524E+02  0.00000000000E+00 0.  1.
<mgrwt>
<rscale>  0 0.14048833E+03</rscale>
<asrwt>0</asrwt>
<pdfrwt beam="2">  1        2 0.17123382E-01 0.14758452E+03</pdfrwt>
<pdfrwt beam="1">  1       -2 0.27129387E-01 0.14758452E+03</pdfrwt>
<totfact> 0.39350147E+03</totfact>
</mgrwt>
</event>
<event>
 7    1  0.8712071E-006  0.1678589E+03  0.7546771E-02  0.1186998E+00
          2   -1    0    0  501    0  0.00000000000E+00  0.00000000000E+00  0.44488961940E+03  0.44488961940E+03  0.00000000000E+00 0. -1.
         -2   -1    0    0    0  501 -0.00000000000E+00 -0.00000000000E+00 -0.60083523006E+02  0.60083523006E+02  0.00000000000E+00 0.  1.
         23    2    1    2    0    0 -0.10392282129E+03 -0.41828344117E+02  0.12985603052E+03  0.21222439063E+03  0.12500816037E+03 0.  0.
          5    1    3    3  502    0  0.18411965848E+02 -0.31602083828E+02  0.52603530884E+01  0.37248536928E+02  0.47000000000E+01 0. -1.
         -5    1    3    3    0  502 -0.12233478714E+03 -0.10226260289E+02  0.12459567743E+03  0.17497585370E+03  0.47000000000E+01 0. -1.
        -11    1    1    2    0    0  0.10184662885E+03  0.57899723923E+02  0.17121521408E+03  0.20746026938E+03  0.00000000000E+00 0.  1.
         11    1    1    2    0    0  0.20761924408E+01 -0.16071379806E+02  0.83734851795E+02  0.85288482393E+02  0.00000000000E+00 0. -1.
<mgrwt>
<rscale>  0 0.16151414E+03</rscale>
<asrwt>0</asrwt>
<pdfrwt beam="1">  1        2 0.68444555E-01 0.16785888E+03</pdfrwt>
<pdfrwt beam="2">  1       -2 0.92436192E-02 0.16785888E+03</pdfrwt>
<totfact> 0.51947271E+03</totfact>
</mgrwt>
</event>
<event>
 6    1  0.8712071E-006  0.1703559E+03  0.7546771E-02  0.1186223E+00
          2   -1    0    0  501    0  0.00000000000E+00  0.00000000000E+00  0.56877119335E+03  0.56877119335E+03  0.00000000000E+00 0. -1.
         -2   -1    0    0    0  501 -0.00000000000E+00 -0.00000000000E+00 -0.44493601899E+02  0.44493601899E+02  0.00000000000E+00 0.  1.
          5    1    1    2  502    0 -0.66937640706E+02 -0.33509122582E+02  0.23240624739E+03  0.24420946514E+03  0.47000000000E+01 0. -1.
         -5    1    1    2    0  502 -0.30354738918E+02 -0.44199921721E+01 -0.12933720393E+02  0.33620196739E+02  0.47000000000E+01 0.  1.
        -11    1    1    2    0    0  0.73980957046E+02 -0.32681417329E+01  0.95517425647E+02  0.12086124837E+03  0.00000000000E+00 0. -1.
         11    1    1    2    0    0  0.23311422577E+02  0.41197256487E+02  0.20928763881E+03  0.21457388500E+03  0.00000000000E+00 0.  1.
<mgrwt>
<rscale>  0 0.16221060E+03</rscale>
<asrwt>0</asrwt>
<pdfrwt beam="1">  1        2 0.87503255E-01 0.17035589E+03</pdfrwt>
<pdfrwt beam="2">  1       -2 0.68451699E-02 0.17035589E+03</pdfrwt>
<totfact> 0.63104204E+03</totfact>
</mgrwt>
</event>
<event>
 7    1  0.8712071E-006  0.1264791E+03  0.7546771E-02  0.1250763E+00
         -2   -1    0    0    0  501 -0.00000000000E+00  0.00000000000E+00  0.29191289733E+03  0.29191289733E+03  0.00000000000E+00 0.  1.
          2   -1    0    0  501    0  0.00000000000E+00 -0.00000000000E+00 -0.40592371653E+02  0.40592371653E+02  0.00000000000E+00 0. -1.
         23    2    1    2    0    0 -0.16270136920E+02  0.94961756118E+01  0.17625741550E+03  0.21694158195E+03  0.12506829636E+03 0.  0.
          5    1    3    3  502    0 -0.19668507828E+02 -0.43388765441E+02  0.15031138982E+03  0.15774992575E+03  0.47000000000E+01 0.  1.
         -5    1    3    3    0  502  0.33983709071E+01  0.52884941053E+02  0.25946025684E+02  0.59191656200E+02  0.47000000000E+01 0.  1.
        -11    1    1    2    0    0  0.34365679424E+02 -0.22074920064E+02  0.82702749645E+02  0.92239074241E+02  0.00000000000E+00 0.  1.
         11    1    1    2    0    0 -0.18095542503E+02  0.12578744452E+02 -0.76396394688E+01  0.23324612788E+02  0.00000000000E+00 0. -1.
<mgrwt>
<rscale>  0 0.11547018E+03</rscale>
<asrwt>0</asrwt>
<pdfrwt beam="2">  1        2 0.62449804E-02 0.12647914E+03</pdfrwt>
<pdfrwt beam="1">  1       -2 0.44909675E-01 0.12647914E+03</pdfrwt>
<totfact> 0.52567049E+03</totfact>
</mgrwt>
</event>
<event>
 7    1  0.8712071E-006  0.1667839E+03  0.7546771E-02  0.1187931E+00
         -2   -1    0    0    0  501 -0.00000000000E+00  0.00000000000E+00  0.10735001283E+03  0.10735001283E+03  0.00000000000E+00 0. -1.
          2   -1    0    0  501    0  0.00000000000E+00 -0.00000000000E+00 -0.25040917711E+03  0.25040917711E+03  0.00000000000E+00 0.  1.
         23    2    1    2    0    0 -0.85632885861E+02  0.69701472831E+02 -0.18867737166E+02  0.16784774816E+03  0.12500235438E+03 0.  0.
          5    1    3    3  502    0 -0.37842590554E+02  0.98866966490E+02  0.65782282105E+01  0.10617015498E+03  0.47000000000E+01 0. -1.
         -5    1    3    3    0  502 -0.47790295307E+02 -0.29165493658E+02 -0.25445965377E+02  0.61677593174E+02  0.47000000000E+01 0. -1.
        -11    1    1    2    0    0  0.51999672442E+02 -0.89734319572E+02 -0.98873623526E+02  0.14329063986E+03  0.00000000000E+00 0.  1.
         11    1    1    2    0    0  0.33633213419E+02  0.20032846741E+02 -0.25317803591E+02  0.46620801925E+02  0.00000000000E+00 0. -1.
<mgrwt>
<rscale>  0 0.16068000E+03</rscale>
<asrwt>0</asrwt>
<pdfrwt beam="2">  1        2 0.38524488E-01 0.16678392E+03</pdfrwt>
<pdfrwt beam="1">  1       -2 0.16515387E-01 0.16678392E+03</pdfrwt>
<totfact> 0.37747185E+03</totfact>
</mgrwt>
</event>
<event>
 7    1  0.8712071E-006  0.1733739E+03  0.7546771E-02  0.1177852E+00
         -2   -1    0    0    0  501 -0.00000000000E+00  0.00000000000E+00  0.46378417068E+02  0.46378417068E+02  0.00000000000E+00 0.  1.
          2   -1    0    0  501    0  0.00000000000E+00 -0.00000000000E+00 -0.69025707327E+03  0.69025707327E+03  0.00000000000E+00 0. -1.
         23    2    1    2    0    0 -0.10461998602E+03  0.79907766402E+02 -0.19984062084E+03  0.26456524330E+03  0.11281800220E+03 0.  0.
          5    1    3    3  502    0 -0.10388002361E+03  0.31319797983E+02 -0.18323075765E+03  0.21299668918E+03  0.47000000000E+01 0. -1.
         -5    1    3    3    0  502 -0.73996240954E+00  0.48587968418E+02 -0.16609863186E+02  0.51568554124E+02  0.47000000000E+01 0.  1.
        -11    1    1    2    0    0  0.90154472937E+02 -0.29170756714E+02 -0.36457280244E+03  0.37668566513E+03  0.00000000000E+00 0.  1.
         11    1    1    2    0    0  0.14465513085E+02 -0.50737009688E+02 -0.79465232926E+02  0.95384581903E+02  0.00000000000E+00 0. -1.
<mgrwt>
<rscale>  0 0.16999581E+03</rscale>
<asrwt>0</asrwt>
<pdfrwt beam="2">  1        2 0.10619338E+00 0.17337386E+03</pdfrwt>
<pdfrwt beam="1">  1       -2 0.71351419E-02 0.17337386E+03</pdfrwt>
<totfact> 0.47311678E+03</totfact>
</mgrwt>
</event>
<event>
 7    1  0.8712071E-006  0.1473629E+03  0.7546771E-02  0.1213549E+00
         -2   -1    0    0    0  501 -0.00000000000E+00  0.00000000000E+00  0.31890459153E+02  0.31890459153E+02  0.00000000000E+00 0.  1.
          2   -1    0    0  501    0  0.00000000000E+00 -0.00000000000E+00 -0.63082247525E+03  0.63082247525E+03  0.00000000000E+00 0. -1.
         23    2    1    2    0    0 -0.13909351170E+02  0.76797451589E+02 -0.21528532490E+03  0.26088999997E+03  0.12499800936E+03 0.  0.
          5    1    3    3  502    0  0.17356808431E+02  0.72003696322E+02 -0.43229447675E+02  0.85887520800E+02  0.47000000000E+01 0. -1.
         -5    1    3    3    0  502 -0.31266159602E+02  0.47937552676E+01 -0.17205587723E+03  0.17500247917E+03  0.47000000000E+01 0. -1.
        -11    1    1    2    0    0 -0.35120191803E+02 -0.56121321429E+02 -0.20580728651E+03  0.21619359328E+03  0.00000000000E+00 0. -1.
         11    1    1    2    0    0  0.49029542973E+02 -0.20676130160E+02 -0.17783940468E+03  0.18562934116E+03  0.00000000000E+00 0.  1.
<mgrwt>
<rscale>  0 0.13983642E+03</rscale>
<asrwt>0</asrwt>
<pdfrwt beam="2">  1        2 0.97049603E-01 0.14736289E+03</pdfrwt>
<pdfrwt beam="1">  1       -2 0.49062249E-02 0.14736289E+03</pdfrwt>
<totfact> 0.92221206E+03</totfact>
</mgrwt>
</event>
<event>
 6    1  0.8712071E-006  0.3158851E+03  0.7546771E-02  0.1109274E+00
         -2   -1    0    0    0  501 -0.00000000000E+00  0.00000000000E+00  0.12744023151E+03  0.12744023151E+03  0.00000000000E+00 0.  1.
          2   -1    0    0  501    0  0.00000000000E+00 -0.00000000000E+00 -0.40411520787E+03  0.40411520787E+03  0.00000000000E+00 0. -1.
          5    1    1    2  502    0 -0.84775733180E+02 -0.12804875240E+02 -0.16653720729E+03  0.18737027827E+03  0.47000000000E+01 0. -1.
         -5    1    1    2    0  502  0.17641879173E+03  0.57658220204E+02 -0.39638569726E+02  0.18984563899E+03  0.47000000000E+01 0.  1.
        -11    1    1    2    0    0 -0.32545601650E+02  0.18764867307E+02  0.66900301185E+01  0.38158785814E+02  0.00000000000E+00 0. -1.
         11    1    1    2    0    0 -0.59097456898E+02 -0.63618212272E+02 -0.77189229470E+02  0.11618073631E+03  0.00000000000E+00 0.  1.
<mgrwt>
<rscale>  0 0.25648523E+03</rscale>
<asrwt>0</asrwt>
<pdfrwt beam="2">  1        2 0.62171570E-01 0.31588510E+03</pdfrwt>
<pdfrwt beam="1">  1       -2 0.19606190E-01 0.31588510E+03</pdfrwt>
<totfact> 0.17194194E+03</totfact>
</mgrwt>
</event>
<event>
 7    1  0.8712071E-006  0.1803737E+03  0.7546771E-02  0.1173081E+00
          1   -1    0    0  501    0  0.00000000000E+00  0.00000000000E+00  0.40933240815E+03  0.40933240815E+03  0.00000000000E+00 0. -1.
         -1   -1    0    0    0  501 -0.00000000000E+00 -0.00000000000E+00 -0.70339790438E+02  0.70339790438E+02  0.00000000000E+00 0.  1.
         23    2    1    2    0    0  0.12687282644E+03  0.28512100429E+02  0.16823845141E+03  0.24665529887E+03  0.12500002388E+03 0.  0.
          5    1    3    3  502    0  0.45563842252E+02 -0.45323960682E+02  0.94140478804E+02  0.11408262305E+03  0.47000000000E+01 0. -1.
         -5    1    3    3    0  502  0.81308984192E+02  0.73836061111E+02  0.74097972601E+02  0.13257267582E+03  0.47000000000E+01 0. -1.
        -11    1    1    2    0    0 -0.85220298665E+02 -0.61710564690E+02  0.10997388874E+03  0.15220035908E+03  0.00000000000E+00 0. -1.
         11    1    1    2    0    0 -0.41652527778E+02  0.33198464262E+02  0.60780277565E+02  0.80816540637E+02  0.00000000000E+00 0.  1.
<mgrwt>
<rscale>  0 0.17465269E+03</rscale>
<asrwt>0</asrwt>
<pdfrwt beam="1">  1        1 0.62974215E-01 0.18037367E+03</pdfrwt>
<pdfrwt beam="2">  1       -1 0.10821506E-01 0.18037367E+03</pdfrwt>
<totfact> 0.31124441E+03</totfact>
</mgrwt>
</event>
<event>
 7    1  0.8712071E-006  0.1376933E+03  0.7546771E-02  0.1228353E+00
         -4   -1    0    0    0  501 -0.00000000000E+00  0.00000000000E+00  0.76431291165E+02  0.76431291165E+02  0.00000000000E+00 0.  1.
          4   -1    0    0  501    0  0.00000000000E+00 -0.00000000000E+00 -0.23883771835E+03  0.23883771835E+03  0.00000000000E+00 0. -1.
         23    2    1    2    0    0 -0.92472276793E+01 -0.56995602917E+02 -0.23488820762E+02  0.13968242859E+03  0.12500178473E+03 0.  0.
          5    1    3    3  502    0 -0.24944971293E+02  0.35554726933E+02 -0.64197190593E+01  0.44155328024E+02  0.47000000000E+01 0.  1.
         -5    1    3    3    0  502  0.15697743613E+02 -0.92550329850E+02 -0.17069101702E+02  0.95527100567E+02  0.47000000000E+01 0.  1.
        -11    1    1    2    0    0  0.30836792633E+02 -0.13231980417E+02 -0.50421344149E+02  0.60566533923E+02  0.00000000000E+00 0.  1.
         11    1    1    2    0    0 -0.21589564953E+02  0.70227583334E+02 -0.88496262276E+02  0.11502004700E+03  0.00000000000E+00 0. -1.
<mgrwt>
<rscale>  0 0.12939734E+03</rscale>
<asrwt>0</asrwt>
<pdfrwt beam="2">  1        4 0.36744263E-01 0.13769334E+03</pdfrwt>
<pdfrwt beam="1">  1       -4 0.11758661E-01 0.13769334E+03</pdfrwt>
<totfact> 0.68684577E+02</totfact>
</mgrwt>
</event>
<event>
 7    1  0.8712071E-006  0.1401230E+03  0.7546771E-02  0.1224531E+00
          2   -1    0    0  501    0  0.00000000000E+00  0.00000000000E+00  0.60317234853E+03  0.60317234853E+03  0.00000000000E+00 0. -1.
         -2   -1    0    0    0  501 -0.00000000000E+00 -0.00000000000E+00 -0.32183035428E+02  0.32183035428E+02  0.00000000000E+00 0.  1.
         23    2    1    2    0    0 -0.38068812489E+02  0.50610213605E+02  0.17445407274E+03  0.22376030120E+03  0.12499528269E+03 0.  0.
          5    1    3    3  502    0  0.26525902115E+02  0.65367963208E+02  0.66830671423E+02  0.97288348428E+02  0.47000000000E+01 0.  1.
         -5    1    3    3    0  502 -0.64594714604E+02 -0.14757749602E+02  0.10762340131E+03  0.12647195277E+03  0.47000000000E+01 0.  1.
        -11    1    1    2    0    0  0.39187563708E+02  0.16039754754E+02  0.12416639780E+03  0.13118777849E+03  0.00000000000E+00 0.  1.
         11    1    1    2    0    0 -0.11187512193E+01 -0.66649968359E+02  0.27236884257E+03  0.28040730427E+03  0.00000000000E+00 0. -1.
<mgrwt>
<rscale>  0 0.13199113E+03</rscale>
<asrwt>0</asrwt>
<pdfrwt beam="1">  1        2 0.92795737E-01 0.14012298E+03</pdfrwt>
<pdfrwt beam="2">  1       -2 0.49512367E-02 0.14012298E+03</pdfrwt>
<totfact> 0.95468700E+03</totfact>
</mgrwt>
</event>
<event>
 7    1  0.8712071E-006  0.1268450E+03  0.7546771E-02  0.1250734E+00
          1   -1    0    0  501    0  0.00000000000E+00  0.00000000000E+00  0.61812733235E+02  0.61812733235E+02  0.00000000000E+00 0. -1.
         -1   -1    0    0    0  501 -0.00000000000E+00 -0.00000000000E+00 -0.19535695680E+03  0.19535695680E+03  0.00000000000E+00 0.  1.
         23    2    1    2    0    0 -0.81111656697E+01  0.19973656438E+02 -0.10731168462E+03  0.16614891333E+03  0.12499970314E+03 0.  0.
          5    1    3    3  502    0 -0.30619942174E+02  0.36362767163E+02 -0.12432221547E+03  0.13318383894E+03  0.47000000000E+01 0. -1.
         -5    1    3    3    0  502  0.22508776504E+02 -0.16389110725E+02  0.17010530852E+02  0.32965074396E+02  0.47000000000E+01 0. -1.
        -11    1    1    2    0    0 -0.22374624526E+02  0.15713389292E+02  0.12598839685E+02  0.30104238691E+02  0.00000000000E+00 0. -1.
         11    1    1    2    0    0  0.30485790196E+02 -0.35687045730E+02 -0.38831378632E+02  0.60916538012E+02  0.00000000000E+00 0.  1.
<mgrwt>
<rscale>  0 0.11548691E+03</rscale>
<asrwt>0</asrwt>
<pdfrwt beam="1">  1        1 0.95096514E-02 0.12684504E+03</pdfrwt>
<pdfrwt beam="2">  1       -1 0.30054916E-01 0.12684504E+03</pdfrwt>
<totfact> 0.65994441E+03</totfact>
</mgrwt>
</event>
<event>
 7    1  0.8712071E-006  0.1492945E+03  0.7546771E-02  0.1211587E+00
         -2   -1    0    0    0  501 -0.00000000000E+00  0.00000000000E+00  0.48577848067E+03  0.48577848067E+03  0.00000000000E+00 0.  1.
          2   -1    0    0  501    0  0.00000000000E+00 -0.00000000000E+00 -0.38282161000E+02  0.38282161000E+02  0.00000000000E+00 0. -1.
         23    2    1    2    0    0 -0.81611724042E+02  0.18205720525E+01  0.20519624200E+03  0.25376043660E+03  0.12500029387E+03 0.  0.
          5    1    3    3  502    0  0.75020688133E+01 -0.42531762262E+02  0.32053822633E+02  0.53988604195E+02  0.47000000000E+01 0. -1.
         -5    1    3    3    0  502 -0.89113792855E+02  0.44352334314E+02  0.17314241937E+03  0.19977183240E+03  0.47000000000E+01 0. -1.
        -11    1    1    2    0    0  0.14146579827E+02 -0.29800900326E+02  0.14461430988E+03  0.14832908684E+03  0.00000000000E+00 0.  1.
         11    1    1    2    0    0  0.67465144215E+02  0.27980328273E+02  0.97685767789E+02  0.12197111823E+03  0.00000000000E+00 0. -1.
<mgrwt>
<rscale>  0 0.14130265E+03</rscale>
<asrwt>0</asrwt>
<pdfrwt beam="2">  1        2 0.58895636E-02 0.14929455E+03</pdfrwt>
<pdfrwt beam="1">  1       -2 0.74735147E-01 0.14929455E+03</pdfrwt>
<totfact> 0.20268064E+03</totfact>
</mgrwt>
</event>
<event>
 7    1  0.8712071E-006  0.1682330E+03  0.7546771E-02  0.1188720E+00
          2   -1    0    0  501    0  0.00000000000E+00  0.00000000000E+00  0.28075441813E+03  0.28075441813E+03  0.00000000000E+00 0.  1.
         -2   -1    0    0    0  501 -0.00000000000E+00 -0.00000000000E+00 -0.84258608351E+02  0.84258608351E+02  0.00000000000E+00 0. -1.
         23    2    1    2    0    0 -0.38924773097E+02  0.10564229212E+03  0.88332176544E+02  0.19001291306E+03  0.12500760726E+03 0.  0.
          5    1    3    3  502    0 -0.46477737169E+02  0.12867986402E+03  0.92152302638E+02  0.16502370841E+03  0.47000000000E+01 0.  1.
         -5    1    3    3    0  502  0.75529640723E+01 -0.23037571904E+02 -0.38201260945E+01  0.24989204647E+02  0.47000000000E+01 0.  1.
        -11    1    1    2    0    0  0.36985791328E+02 -0.43813430567E+02  0.88779184223E+01  0.58020538551E+02  0.00000000000E+00 0.  1.
         11    1    1    2    0    0  0.19389817692E+01 -0.61828861551E+02  0.99285714811E+02  0.11697957487E+03  0.00000000000E+00 0. -1.
<mgrwt>
<rscale>  0 0.15997965E+03</rscale>
<asrwt>0</asrwt>
<pdfrwt beam="1">  1        2 0.43192987E-01 0.16823297E+03</pdfrwt>
<pdfrwt beam="2">  1       -2 0.12962863E-01 0.16823297E+03</pdfrwt>
<totfact> 0.49686433E+03</totfact>
</mgrwt>
</event>
<event>
 7    1  0.8712071E-006  0.1725662E+03  0.7546771E-02  0.1181527E+00
         -4   -1    0    0    0  501 -0.00000000000E+00  0.00000000000E+00  0.70155019343E+03  0.70155019343E+03  0.00000000000E+00 0.  1.
          4   -1    0    0  501    0  0.00000000000E+00 -0.00000000000E+00 -0.37190405053E+02  0.37190405053E+02  0.00000000000E+00 0. -1.
         23    2    1    2    0    0  0.22488197348E+02 -0.11682497991E+03  0.38266539968E+03  0.41977601562E+03  0.12500120088E+03 0.  0.
          5    1    3    3  502    0 -0.28730937346E+02  0.13183591835E+02  0.88001382503E+02  0.93624821372E+02  0.47000000000E+01 0. -1.
         -5    1    3    3    0  502  0.51219134694E+02 -0.13000857175E+03  0.29466401718E+03  0.32615119424E+03  0.47000000000E+01 0. -1.
        -11    1    1    2    0    0  0.32197357157E+02  0.19146946072E+02  0.63382367998E+02  0.73624723597E+02  0.00000000000E+00 0. -1.
         11    1    1    2    0    0 -0.54685554505E+02  0.97678033838E+02  0.21831202070E+03  0.24533985927E+03  0.00000000000E+00 0.  1.
<mgrwt>
<rscale>  0 0.16651966E+03</rscale>
<asrwt>0</asrwt>
<pdfrwt beam="2">  1        4 0.57216013E-02 0.17256621E+03</pdfrwt>
<pdfrwt beam="1">  1       -4 0.10793079E+00 0.17256621E+03</pdfrwt>
<totfact> 0.23852165E+02</totfact>
</mgrwt>
</event>
<event>
 7    1  0.8712071E-006  0.2291084E+03  0.7546771E-02  0.1130240E+00
         -1   -1    0    0    0  501 -0.00000000000E+00  0.00000000000E+00  0.22689843784E+03  0.22689843784E+03  0.00000000000E+00 0.  1.
          1   -1    0    0  501    0  0.00000000000E+00 -0.00000000000E+00 -0.29830277471E+03  0.29830277471E+03  0.00000000000E+00 0. -1.
         23    2    1    2    0    0  0.17095005733E+03  0.87425537640E+02  0.10179722545E+03  0.25070569384E+03  0.12499409220E+03 0.  0.
          5    1    3    3  502    0  0.29921147212E+02  0.32331134880E+02  0.88093112406E+02  0.98605597136E+02  0.47000000000E+01 0. -1.
         -5    1    3    3    0  502  0.14102891012E+03  0.55094402760E+02  0.13704113045E+02  0.15210009671E+03  0.47000000000E+01 0. -1.
        -11    1    1    2    0    0 -0.13017932569E+03 -0.71337444406E+02 -0.73625000946E+02  0.16569951290E+03  0.00000000000E+00 0.  1.
         11    1    1    2    0    0 -0.40770731639E+02 -0.16088093233E+02 -0.99576561380E+02  0.10879600580E+03  0.00000000000E+00 0. -1.
<mgrwt>
<rscale>  0 0.22495817E+03</rscale>
<asrwt>0</asrwt>
<pdfrwt beam="2">  1        1 0.45892735E-01 0.22910842E+03</pdfrwt>
<pdfrwt beam="1">  1       -1 0.34907452E-01 0.22910842E+03</pdfrwt>
<totfact> 0.69563041E+02</totfact>
</mgrwt>
</event>
<event>
 7    1  0.8712071E-006  0.1649931E+03  0.7546771E-02  0.1189924E+00
         -1   -1    0    0    0  501 -0.00000000000E+00  0.00000000000E+00  0.11274123848E+03  0.11274123848E+03  0.00000000000E+00 0.  1.
          1   -1    0    0  501    0  0.00000000000E+00 -0.00000000000E+00 -0.26020418880E+03  0.26020418880E+03  0.00000000000E+00 0. -1.
         23    2    1    2    0    0 -0.10260218989E+03  0.32718603110E+02  0.43773707012E+01  0.16505116888E+03  0.12500004246E+03 0.  0.
          5    1    3    3  502    0 -0.10837127848E+03  0.23033697004E+01 -0.35674515164E+02  0.11421208581E+03  0.47000000000E+01 0. -1.
         -5    1    3    3    0  502  0.57690885942E+01  0.30415233409E+02  0.40051885865E+02  0.50839083075E+02  0.47000000000E+01 0. -1.
        -11    1    1    2    0    0  0.85310375924E+02 -0.40377804121E+02 -0.16119562164E+03  0.18679468874E+03  0.00000000000E+00 0. -1.
         11    1    1    2    0    0  0.17291813963E+02  0.76592010117E+01  0.93553006133E+01  0.21099569660E+02  0.00000000000E+00 0.  1.
<mgrwt>
<rscale>  0 0.15891793E+03</rscale>
<asrwt>0</asrwt>
<pdfrwt beam="2">  1        1 0.40031413E-01 0.16499311E+03</pdfrwt>
<pdfrwt beam="1">  1       -1 0.17344806E-01 0.16499311E+03</pdfrwt>
<totfact> 0.26146000E+03</totfact>
</mgrwt>
</event>
<event>
 7    1  0.8712071E-006  0.1426540E+03  0.7546771E-02  0.1219758E+00
         -1   -1    0    0    0  501 -0.00000000000E+00  0.00000000000E+00  0.86276288110E+02  0.86276288110E+02  0.00000000000E+00 0.  1.
          1   -1    0    0  501    0  0.00000000000E+00 -0.00000000000E+00 -0.20610198086E+03  0.20610198086E+03  0.00000000000E+00 0. -1.
         23    2    1    2    0    0 -0.62790755445E+02  0.27977860790E+02 -0.29361412750E+02  0.14564425945E+03  0.12499887235E+03 0.  0.
          5    1    3    3  502    0 -0.76043339787E+02  0.43590153433E+02 -0.61549166059E+02  0.10720578737E+03  0.47000000000E+01 0.  1.
         -5    1    3    3    0  502  0.13252584343E+02 -0.15612292643E+02  0.32187753310E+02  0.38438472088E+02  0.47000000000E+01 0.  1.
        -11    1    1    2    0    0  0.73100794651E+02  0.10535982098E+02 -0.45989263459E+02  0.87004284095E+02  0.00000000000E+00 0.  1.
         11    1    1    2    0    0 -0.10310039206E+02 -0.38513842888E+02 -0.44475016539E+02  0.59729725419E+02  0.00000000000E+00 0. -1.
<mgrwt>
<rscale>  0 0.13532755E+03</rscale>
<asrwt>0</asrwt>
<pdfrwt beam="2">  1        1 0.31707997E-01 0.14265398E+03</pdfrwt>
<pdfrwt beam="1">  1       -1 0.13273275E-01 0.14265398E+03</pdfrwt>
<totfact> 0.52836717E+03</totfact>
</mgrwt>
</event>
<event>
 7    1  0.8712071E-006  0.2619783E+03  0.7546771E-02  0.1108126E+00
          2   -1    0    0  501    0  0.00000000000E+00  0.00000000000E+00  0.51992839534E+03  0.51992839534E+03  0.00000000000E+00 0. -1.
         -2   -1    0    0    0  501 -0.00000000000E+00 -0.00000000000E+00 -0.13455292878E+03  0.13455292878E+03  0.00000000000E+00 0.  1.
         23    2    1    2    0    0 -0.62487177413E+02 -0.22159168430E+03  0.11038473558E+03  0.28428406773E+03  0.12500047770E+03 0.  0.
          5    1    3    3  502    0  0.19053298319E+02 -0.74353682694E+01 -0.12287094370E+02  0.24318214700E+02  0.47000000000E+01 0.  1.
         -5    1    3    3    0  502 -0.81540475732E+02 -0.21415631603E+03  0.12267182995E+03  0.25996585303E+03  0.47000000000E+01 0.  1.
        -11    1    1    2    0    0  0.46665003325E+02  0.67111047637E+02  0.46830821808E+02  0.94205313659E+02  0.00000000000E+00 0.  1.
         11    1    1    2    0    0  0.15822174088E+02  0.15448063666E+03  0.22815990917E+03  0.27599194273E+03  0.00000000000E+00 0. -1.
<mgrwt>
<rscale>  0 0.25837063E+03</rscale>
<asrwt>0</asrwt>
<pdfrwt beam="1">  1        2 0.79988983E-01 0.26197832E+03</pdfrwt>
<pdfrwt beam="2">  1       -2 0.20700451E-01 0.26197832E+03</pdfrwt>
<totfact> 0.11800305E+03</totfact>
</mgrwt>
</event>
<event>
 7    1  0.8712071E-006  0.1504156E+03  0.7546771E-02  0.1208810E+00
          1   -1    0    0  501    0  0.00000000000E+00  0.00000000000E+00  0.34298253465E+02  0.34298253465E+02  0.00000000000E+00 0. -1.
         -1   -1    0    0    0  501 -0.00000000000E+00 -0.00000000000E+00 -0.59350566102E+03  0.59350566102E+03  0.00000000000E+00 0.  1.
         23    2    1    2    0    0  0.81482298639E+02  0.18969299921E+02 -0.38879396664E+03  0.41687601375E+03  0.12500265203E+03 0.  0.
          5    1    3    3  502    0  0.30019489554E+02  0.22678065192E+02 -0.17107384722E+02  0.41595877272E+02  0.47000000000E+01 0.  1.
         -5    1    3    3    0  502  0.51462809084E+02 -0.37087652713E+01 -0.37168658192E+03  0.37528013648E+03  0.47000000000E+01 0.  1.
        -11    1    1    2    0    0 -0.36385122433E+02  0.18060590395E+02 -0.12379939808E+02  0.42465573934E+02  0.00000000000E+00 0. -1.
         11    1    1    2    0    0 -0.45097176205E+02 -0.37029890316E+02 -0.15803350111E+03  0.16846232680E+03  0.00000000000E+00 0.  1.
<mgrwt>
<rscale>  0 0.14341191E+03</rscale>
<asrwt>0</asrwt>
<pdfrwt beam="1">  1        1 0.52766550E-02 0.15041563E+03</pdfrwt>
<pdfrwt beam="2">  1       -1 0.91308553E-01 0.15041563E+03</pdfrwt>
<totfact> 0.18578298E+03</totfact>
</mgrwt>
</event>
<event>
 7    1  0.8712071E-006  0.1321149E+03  0.7546771E-02  0.1239232E+00
          1   -1    0    0  501    0  0.00000000000E+00  0.00000000000E+00  0.12188984772E+03  0.12188984772E+03  0.00000000000E+00 0. -1.
         -1   -1    0    0    0  501 -0.00000000000E+00 -0.00000000000E+00 -0.17070668200E+03  0.17070668200E+03  0.00000000000E+00 0.  1.
         23    2    1    2    0    0 -0.32259687349E+02 -0.28193960695E+02 -0.11484146784E+03  0.17505119386E+03  0.12497508107E+03 0.  0.
          5    1    3    3  502    0 -0.16538489524E+02 -0.56389356496E+02 -0.12717557956E+03  0.14017488790E+03  0.47000000000E+01 0.  1.
         -5    1    3    3    0  502 -0.15721197826E+02  0.28195395801E+02  0.12334111721E+02  0.34876305960E+02  0.47000000000E+01 0.  1.
        -11    1    1    2    0    0  0.27022885474E+02  0.54948238816E+02  0.20670471041E+02  0.64628272926E+02  0.00000000000E+00 0.  1.
         11    1    1    2    0    0  0.52368018755E+01 -0.26754278121E+02  0.45354162516E+02  0.52917062931E+02  0.00000000000E+00 0. -1.
<mgrwt>
<rscale>  0 0.12237336E+03</rscale>
<asrwt>0</asrwt>
<pdfrwt beam="1">  1        1 0.18752284E-01 0.13211494E+03</pdfrwt>
<pdfrwt beam="2">  1       -1 0.26262566E-01 0.13211494E+03</pdfrwt>
<totfact> 0.34221788E+03</totfact>
</mgrwt>
</event>
<event>
 7    1  0.8712071E-006  0.1361910E+03  0.7546771E-02  0.1227338E+00
          2   -1    0    0  501    0  0.00000000000E+00  0.00000000000E+00  0.58256724835E+02  0.58256724835E+02  0.00000000000E+00 0. -1.
         -2   -1    0    0    0  501 -0.00000000000E+00 -0.00000000000E+00 -0.28963177825E+03  0.28963177825E+03  0.00000000000E+00 0.  1.
         23    2    1    2    0    0 -0.16892698993E+02 -0.65789886942E+02 -0.17367120079E+03  0.22070270622E+03  0.11804374633E+03 0.  0.
          5    1    3    3  502    0 -0.11208301094E+02 -0.69414207716E+01  0.16418990679E+02  0.21575045554E+02  0.47000000000E+01 0. -1.
         -5    1    3    3    0  502 -0.56843978986E+01 -0.58848466170E+02 -0.19009019147E+03  0.19912766067E+03  0.47000000000E+01 0.  1.
        -11    1    1    2    0    0  0.46306460748E+02  0.35333133781E+02 -0.34278642301E+01  0.58347826891E+02  0.00000000000E+00 0. -1.
         11    1    1    2    0    0 -0.29413761755E+02  0.30456753161E+02 -0.54275988388E+02  0.68837969967E+02  0.00000000000E+00 0.  1.
<mgrwt>
<rscale>  0 0.13007968E+03</rscale>
<asrwt>0</asrwt>
<pdfrwt beam="1">  1        2 0.89625731E-02 0.13619104E+03</pdfrwt>
<pdfrwt beam="2">  1       -2 0.44558735E-01 0.13619104E+03</pdfrwt>
<totfact> 0.34011949E+03</totfact>
</mgrwt>
</event>
<event>
 7    1  0.8712071E-006  0.1669878E+03  0.7546771E-02  0.1187790E+00
         -3   -1    0    0    0  501 -0.00000000000E+00  0.00000000000E+00  0.11700550174E+03  0.11700550174E+03  0.00000000000E+00 0.  1.
          3   -1    0    0  501    0  0.00000000000E+00 -0.00000000000E+00 -0.24820337492E+03  0.24820337492E+03  0.00000000000E+00 0. -1.
         23    2    1    2    0    0  0.75227883792E+02  0.81157297367E+02  0.53194309014E+01  0.16707254875E+03  0.12505678224E+03 0.  0.
          5    1    3    3  502    0  0.35910302620E+02 -0.30080257867E+02  0.12714534072E+02  0.48765983270E+02  0.47000000000E+01 0. -1.
         -5    1    3    3    0  502  0.39317581172E+02  0.11123755523E+03 -0.73951031704E+01  0.11830656548E+03  0.47000000000E+01 0. -1.
        -11    1    1    2    0    0  0.10863610962E+02 -0.10320770572E+02  0.68881792015E+01  0.16491918052E+02  0.00000000000E+00 0.  1.
         11    1    1    2    0    0 -0.86091494755E+02 -0.70836526796E+02 -0.14340548329E+03  0.18164440986E+03  0.00000000000E+00 0. -1.
<mgrwt>
<rscale>  0 0.16080607E+03</rscale>
<asrwt>0</asrwt>
<pdfrwt beam="2">  1        3 0.38185135E-01 0.16698784E+03</pdfrwt>
<pdfrwt beam="1">  1       -3 0.18000846E-01 0.16698784E+03</pdfrwt>
<totfact> 0.43858122E+02</totfact>
</mgrwt>
</event>
<event>
 6    1  0.8712071E-006  0.1829804E+03  0.7546771E-02  0.1178406E+00
         -1   -1    0    0    0  501 -0.00000000000E+00  0.00000000000E+00  0.12665851725E+03  0.12665851725E+03  0.00000000000E+00 0.  1.
          1   -1    0    0  501    0  0.00000000000E+00 -0.00000000000E+00 -0.25528649102E+03  0.25528649102E+03  0.00000000000E+00 0. -1.
          5    1    1    2  502    0 -0.48601210694E+01  0.10245401905E+03 -0.21183340265E+02  0.10483926126E+03  0.47000000000E+01 0. -1.
         -5    1    1    2    0  502 -0.62374776503E+02 -0.29493189550E+02  0.38009585292E+02  0.78913113915E+02  0.47000000000E+01 0.  1.
        -11    1    1    2    0    0 -0.10642754180E+02 -0.68632034680E+01 -0.70162872207E+02  0.71296566641E+02  0.00000000000E+00 0.  1.
         11    1    1    2    0    0  0.77877651753E+02 -0.66097626031E+02 -0.75291346593E+02  0.12689606645E+03  0.00000000000E+00 0. -1.
<mgrwt>
<rscale>  0 0.16946628E+03</rscale>
<asrwt>0</asrwt>
<pdfrwt beam="2">  1        1 0.39274844E-01 0.18298036E+03</pdfrwt>
<pdfrwt beam="1">  1       -1 0.19485926E-01 0.18298036E+03</pdfrwt>
<totfact> 0.22297938E+03</totfact>
</mgrwt>
</event>
<event>
 7    1  0.8712071E-006  0.1312531E+03  0.7546771E-02  0.1238380E+00
          2   -1    0    0  501    0  0.00000000000E+00  0.00000000000E+00  0.97725474350E+03  0.97725474350E+03  0.00000000000E+00 0. -1.
         -2   -1    0    0    0  501 -0.00000000000E+00 -0.00000000000E+00 -0.13788992128E+02  0.13788992128E+02  0.00000000000E+00 0.  1.
         23    2    1    2    0    0  0.14312819117E+02 -0.37384577261E+02  0.54469772214E+03  0.56028830706E+03  0.12499966044E+03 0.  0.
          5    1    3    3  502    0  0.65153778740E+01 -0.44888722797E+02  0.54645963706E+03  0.54835907262E+03  0.47000000000E+01 0. -1.
         -5    1    3    3    0  502  0.77974412435E+01  0.75041455361E+01 -0.17619149185E+01  0.11929234441E+02  0.47000000000E+01 0. -1.
        -11    1    1    2    0    0 -0.24711871989E+02  0.65990453865E+02  0.28956657045E+03  0.29801713934E+03  0.00000000000E+00 0.  1.
         11    1    1    2    0    0  0.10399052872E+02 -0.28605876604E+02  0.12920145877E+03  0.13273828922E+03  0.00000000000E+00 0. -1.
<mgrwt>
<rscale>  0 0.12290505E+03</rscale>
<asrwt>0</asrwt>
<pdfrwt beam="1">  1        2 0.15034683E+00 0.13125311E+03</pdfrwt>
<pdfrwt beam="2">  1       -2 0.21213842E-02 0.13125311E+03</pdfrwt>
<totfact> 0.18301970E+04</totfact>
</mgrwt>
</event>
<event>
 7    1  0.8712071E-006  0.1386050E+03  0.7546771E-02  0.1226585E+00
          1   -1    0    0  501    0  0.00000000000E+00  0.00000000000E+00  0.17109248798E+03  0.17109248798E+03  0.00000000000E+00 0. -1.
         -1   -1    0    0    0  501 -0.00000000000E+00 -0.00000000000E+00 -0.92619292001E+02  0.92619292001E+02  0.00000000000E+00 0.  1.
         23    2    1    2    0    0  0.22749886813E+02  0.55398127516E+02  0.66833833044E+02  0.15387696006E+03  0.12499939086E+03 0.  0.
          5    1    3    3  502    0  0.64748638931E+00  0.55718915576E+02  0.99510707235E+02  0.11414678115E+03  0.47000000000E+01 0.  1.
         -5    1    3    3    0  502  0.22102400423E+02 -0.32078806034E+00 -0.32676874191E+02  0.39730178912E+02  0.47000000000E+01 0.  1.
        -11    1    1    2    0    0 -0.85296341193E+01 -0.72269778862E+02 -0.15958388385E+02  0.74500642647E+02  0.00000000000E+00 0.  1.
         11    1    1    2    0    0 -0.14220252693E+02  0.16871651346E+02  0.27597751322E+02  0.35334177277E+02  0.00000000000E+00 0. -1.
<mgrwt>
<rscale>  0 0.13058888E+03</rscale>
<asrwt>0</asrwt>
<pdfrwt beam="1">  1        1 0.26321921E-01 0.13860504E+03</pdfrwt>
<pdfrwt beam="2">  1       -1 0.14249122E-01 0.13860504E+03</pdfrwt>
<totfact> 0.59564122E+03</totfact>
</mgrwt>
</event>
<event>
 7    1  0.8712071E-006  0.2043812E+03  0.7546771E-02  0.1149948E+00
         -4   -1    0    0    0  501 -0.00000000000E+00  0.00000000000E+00  0.41112207244E+03  0.41112207244E+03  0.00000000000E+00 0.  1.
          4   -1    0    0  501    0  0.00000000000E+00 -0.00000000000E+00 -0.11518976897E+03  0.11518976897E+03  0.00000000000E+00 0. -1.
         23    2    1    2    0    0  0.33975356213E+02 -0.15811251299E+03  0.26908310149E+03  0.33790146165E+03  0.12497115941E+03 0.  0.
          5    1    3    3  502    0  0.55368863541E+02 -0.10439428189E+03  0.25045406551E+03  0.27697148964E+03  0.47000000000E+01 0. -1.
         -5    1    3    3    0  502 -0.21393507328E+02 -0.53718231097E+02  0.18629035981E+02  0.60929972013E+02  0.47000000000E+01 0. -1.
        -11    1    1    2    0    0 -0.25149546536E+02  0.21144881086E+02  0.38559478541E+02  0.50660034272E+02  0.00000000000E+00 0.  1.
         11    1    1    2    0    0 -0.88258096764E+01  0.13696763190E+03 -0.11710276555E+02  0.13775034549E+03  0.00000000000E+00 0. -1.
<mgrwt>
<rscale>  0 0.19975294E+03</rscale>
<asrwt>0</asrwt>
<pdfrwt beam="2">  1        4 0.17721503E-01 0.20438122E+03</pdfrwt>
<pdfrwt beam="1">  1       -4 0.63249549E-01 0.20438122E+03</pdfrwt>
<totfact> 0.11858314E+02</totfact>
</mgrwt>
</event>
<event>
 7    1  0.8712071E-006  0.1818163E+03  0.7546771E-02  0.1171318E+00
          1   -1    0    0  501    0  0.00000000000E+00  0.00000000000E+00  0.25312533544E+03  0.25312533544E+03  0.00000000000E+00 0. -1.
         -1   -1    0    0    0  501 -0.00000000000E+00 -0.00000000000E+00 -0.12364157571E+03  0.12364157571E+03  0.00000000000E+00 0.  1.
         23    2    1    2    0    0 -0.12950119257E+03  0.25917357061E+02  0.22202522012E+02  0.18316695151E+03  0.12495964095E+03 0.  0.
          5    1    3    3  502    0 -0.63706963272E+02  0.74371524694E+02  0.25337250636E+02  0.10126088645E+03  0.47000000000E+01 0.  1.
         -5    1    3    3    0  502 -0.65794229303E+02 -0.48454167633E+02 -0.31347286239E+01  0.81906065063E+02  0.47000000000E+01 0.  1.
        -11    1    1    2    0    0  0.10162239556E+03 -0.28369152325E+02  0.12255680755E+03  0.16171608195E+03  0.00000000000E+00 0. -1.
         11    1    1    2    0    0  0.27878797013E+02  0.24517952639E+01 -0.15275569828E+02  0.31883877689E+02  0.00000000000E+00 0.  1.
<mgrwt>
<rscale>  0 0.17641568E+03</rscale>
<asrwt>0</asrwt>
<pdfrwt beam="1">  1        1 0.38942359E-01 0.18181634E+03</pdfrwt>
<pdfrwt beam="2">  1       -1 0.19021781E-01 0.18181634E+03</pdfrwt>
<totfact> 0.23423608E+03</totfact>
</mgrwt>
</event>
<event>
 7    1  0.8712071E-006  0.3647394E+03  0.7546771E-02  0.1057170E+00
          1   -1    0    0  501    0  0.00000000000E+00  0.00000000000E+00  0.54734914924E+03  0.54734914924E+03  0.00000000000E+00 0. -1.
         -1   -1    0    0    0  501 -0.00000000000E+00 -0.00000000000E+00 -0.54247623201E+03  0.54247623201E+03  0.00000000000E+00 0.  1.
         23    2    1    2    0    0  0.22376868274E+03 -0.26547103115E+03 -0.40443384633E+03  0.54461137654E+03  0.11174758897E+03 0.  0.
          5    1    3    3  502    0  0.88018959783E+02 -0.18949724460E+03 -0.23842338832E+03  0.31705574445E+03  0.47000000000E+01 0. -1.
         -5    1    3    3    0  502  0.13574972295E+03 -0.75973786556E+02 -0.16601045801E+03  0.22755563209E+03  0.47000000000E+01 0.  1.
        -11    1    1    2    0    0 -0.11882176231E+01  0.10848085163E+02  0.52405625545E+02  0.53529827214E+02  0.00000000000E+00 0.  1.
         11    1    1    2    0    0 -0.22258046511E+03  0.25462294599E+03  0.35690113803E+03  0.49168417750E+03  0.00000000000E+00 0. -1.
<mgrwt>
<rscale>  0 0.36359298E+03</rscale>
<asrwt>0</asrwt>
<pdfrwt beam="1">  1        1 0.84207562E-01 0.36473938E+03</pdfrwt>
<pdfrwt beam="2">  1       -1 0.83457882E-01 0.36473938E+03</pdfrwt>
<totfact> 0.59379608E+01</totfact>
</mgrwt>
</event>
<event>
 7    1  0.8712071E-006  0.1456671E+03  0.7546771E-02  0.1215101E+00
         -1   -1    0    0    0  501 -0.00000000000E+00  0.00000000000E+00  0.10474301226E+03  0.10474301226E+03  0.00000000000E+00 0.  1.
          1   -1    0    0  501    0  0.00000000000E+00 -0.00000000000E+00 -0.18089106137E+03  0.18089106137E+03  0.00000000000E+00 0. -1.
         23    2    1    2    0    0 -0.48048074064E+02  0.57320851693E+02 -0.37017886720E+01  0.14571417573E+03  0.12499848122E+03 0.  0.
          5    1    3    3  502    0 -0.26144035362E+01  0.80450356744E+02 -0.32544752689E+02  0.86950249762E+02  0.47000000000E+01 0.  1.
         -5    1    3    3    0  502 -0.45433670527E+02 -0.23129505050E+02  0.28842964017E+02  0.58763925964E+02  0.47000000000E+01 0.  1.
        -11    1    1    2    0    0  0.43235377462E+02 -0.10885510063E+02 -0.80999031951E+02  0.92458830679E+02  0.00000000000E+00 0. -1.
         11    1    1    2    0    0  0.48126966014E+01 -0.46435341631E+02  0.85527715172E+01  0.47461067219E+02  0.00000000000E+00 0.  1.
<mgrwt>
<rscale>  0 0.13869112E+03</rscale>
<asrwt>0</asrwt>
<pdfrwt beam="2">  1        1 0.27829394E-01 0.14566715E+03</pdfrwt>
<pdfrwt beam="1">  1       -1 0.16114310E-01 0.14566715E+03</pdfrwt>
<totfact> 0.45934608E+03</totfact>
</mgrwt>
</event>
<event>
 7    1  0.8712071E-006  0.5630714E+03  0.7546771E-02  0.9993362E-01
         -2   -1    0    0    0  501 -0.00000000000E+00  0.00000000000E+00  0.26742137947E+03  0.26742137947E+03  0.00000000000E+00 0.  1.
          2   -1    0    0  501    0  0.00000000000E+00 -0.00000000000E+00 -0.11553556003E+04  0.11553556003E+04  0.00000000000E+00 0. -1.
         23    2    1    2    0    0  0.37049165922E+03  0.38908567881E+03 -0.43566659674E+03  0.70056136805E+03  0.11103653396E+03 0.  0.
          5    1    3    3  502    0  0.23825438914E+03  0.30188564380E+03 -0.35195957045E+03  0.52134223415E+03  0.47000000000E+01 0. -1.
         -5    1    3    3    0  502  0.13223727007E+03  0.87200035013E+02 -0.83707026291E+02  0.17921913389E+03  0.47000000000E+01 0.  1.
        -11    1    1    2    0    0 -0.26061049133E+03 -0.25532677529E+03 -0.39999093120E+03  0.54138926422E+03  0.00000000000E+00 0.  1.
         11    1    1    2    0    0 -0.10988116789E+03 -0.13375890352E+03 -0.52276692872E+02  0.18082634749E+03  0.00000000000E+00 0. -1.
<mgrwt>
<rscale>  0 0.55942253E+03</rscale>
<asrwt>0</asrwt>
<pdfrwt beam="2">  1        2 0.17774702E+00 0.56307139E+03</pdfrwt>
<pdfrwt beam="1">  1       -2 0.41141750E-01 0.56307139E+03</pdfrwt>
<totfact> 0.11623499E+02</totfact>
</mgrwt>
</event>
<event>
 7    1  0.8712071E-006  0.1357429E+03  0.7546771E-02  0.1231573E+00
          1   -1    0    0  501    0  0.00000000000E+00  0.00000000000E+00  0.34564070133E+02  0.34564070133E+02  0.00000000000E+00 0. -1.
         -1   -1    0    0    0  501 -0.00000000000E+00 -0.00000000000E+00 -0.41903168208E+03  0.41903168208E+03  0.00000000000E+00 0.  1.
         23    2    1    2    0    0  0.28911977422E+02 -0.44330642470E+02 -0.21115851790E+03  0.25102602930E+03  0.12500015761E+03 0.  0.
          5    1    3    3  502    0  0.42432025447E+01  0.14808495042E+02  0.11170025241E+02  0.19599891763E+02  0.47000000000E+01 0.  1.
         -5    1    3    3    0  502  0.24668774877E+02 -0.59139137512E+02 -0.22232854314E+03  0.23142613754E+03  0.47000000000E+01 0.  1.
        -11    1    1    2    0    0  0.26255114332E+02 -0.92147358467E+01 -0.51258192694E+02  0.58323620460E+02  0.00000000000E+00 0.  1.
         11    1    1    2    0    0 -0.55167091755E+02  0.53545378316E+02 -0.12205090135E+03  0.14424610245E+03  0.00000000000E+00 0. -1.
<mgrwt>
<rscale>  0 0.12726366E+03</rscale>
<asrwt>0</asrwt>
<pdfrwt beam="1">  1        1 0.53175498E-02 0.13574295E+03</pdfrwt>
<pdfrwt beam="2">  1       -1 0.64466405E-01 0.13574295E+03</pdfrwt>
<totfact> 0.37045334E+03</totfact>
</mgrwt>
</event>
<event>
 7    1  0.8712071E-006  0.1263307E+03  0.7546771E-02  0.1267856E+00
         -2   -1    0    0    0  501 -0.00000000000E+00  0.00000000000E+00  0.53441056528E+02  0.53441056528E+02  0.00000000000E+00 0.  1.
          2   -1    0    0  501    0  0.00000000000E+00 -0.00000000000E+00 -0.18554899405E+03  0.18554899405E+03  0.00000000000E+00 0. -1.
         23    2    1    2    0    0  0.12580588116E+02 -0.13243839401E+02 -0.50859143775E+02  0.13618405472E+03  0.12500309506E+03 0.  0.
          5    1    3    3  502    0  0.33974568425E+02  0.10200822740E+02 -0.83236369374E+02  0.90601938560E+02  0.47000000000E+01 0. -1.
         -5    1    3    3    0  502 -0.21393980309E+02 -0.23444662141E+02  0.32377225598E+02  0.45582116162E+02  0.47000000000E+01 0. -1.
        -11    1    1    2    0    0  0.17066102611E+02  0.25799658205E+01 -0.18187617019E+01  0.17355574784E+02  0.00000000000E+00 0.  1.
         11    1    1    2    0    0 -0.29646690727E+02  0.10663873580E+02 -0.79430032048E+02  0.85450421075E+02  0.00000000000E+00 0. -1.
<mgrwt>
<rscale>  0 0.10615711E+03</rscale>
<asrwt>0</asrwt>
<pdfrwt beam="2">  1        2 0.28545999E-01 0.12633069E+03</pdfrwt>
<pdfrwt beam="1">  1       -2 0.82217009E-02 0.12633069E+03</pdfrwt>
<totfact> 0.15585084E+04</totfact>
</mgrwt>
</event>
<event>
 7    1  0.8712071E-006  0.1284723E+03  0.7546771E-02  0.1243216E+00
          1   -1    0    0  501    0  0.00000000000E+00  0.00000000000E+00  0.19056965364E+03  0.19056965364E+03  0.00000000000E+00 0. -1.
         -1   -1    0    0    0  501 -0.00000000000E+00 -0.00000000000E+00 -0.68294631306E+02  0.68294631306E+02  0.00000000000E+00 0.  1.
         23    2    1    2    0    0  0.29106174154E+02  0.16535091695E+02  0.51828943992E+02  0.13853293939E+03  0.12403450016E+03 0.  0.
          5    1    3    3  502    0  0.56395619046E+02  0.45013385198E+02  0.64440371542E+02  0.96857225745E+02  0.47000000000E+01 0. -1.
         -5    1    3    3    0  502 -0.27289444892E+02 -0.28478293503E+02 -0.12611427550E+02  0.41675713649E+02  0.47000000000E+01 0.  1.
        -11    1    1    2    0    0 -0.58033916791E+02 -0.29468218921E+02  0.54323799517E+02  0.84778456098E+02  0.00000000000E+00 0.  1.
         11    1    1    2    0    0  0.28927742637E+02  0.12933127226E+02  0.16122278823E+02  0.35552889452E+02  0.00000000000E+00 0. -1.
<mgrwt>
<rscale>  0 0.11992772E+03</rscale>
<asrwt>0</asrwt>
<pdfrwt beam="1">  1        1 0.29318408E-01 0.12847232E+03</pdfrwt>
<pdfrwt beam="2">  1       -1 0.10506866E-01 0.12847232E+03</pdfrwt>
<totfact> 0.82914216E+03</totfact>
</mgrwt>
</event>
<event>
 7    1  0.8712071E-006  0.2008886E+03  0.7546771E-02  0.1152918E+00
         -2   -1    0    0    0  501 -0.00000000000E+00  0.00000000000E+00  0.38376817554E+02  0.38376817554E+02  0.00000000000E+00 0.  1.
          2   -1    0    0  501    0  0.00000000000E+00 -0.00000000000E+00 -0.97371655927E+03  0.97371655927E+03  0.00000000000E+00 0. -1.
         23    2    1    2    0    0  0.56729610735E+02  0.14667222192E+03 -0.42990635863E+03  0.47452682982E+03  0.12500098242E+03 0.  0.
          5    1    3    3  502    0  0.45538368405E+02  0.37454948781E+02 -0.29331022719E+03  0.29921496547E+03  0.47000000000E+01 0.  1.
         -5    1    3    3    0  502  0.11191242330E+02  0.10921727314E+03 -0.13659613145E+03  0.17531186435E+03  0.47000000000E+01 0.  1.
        -11    1    1    2    0    0  0.22239075363E+02 -0.67425815146E+02 -0.18420308472E+03  0.19741224238E+03  0.00000000000E+00 0.  1.
         11    1    1    2    0    0 -0.78968686097E+02 -0.79246406772E+02 -0.32123029836E+03  0.34015430463E+03  0.00000000000E+00 0. -1.
<mgrwt>
<rscale>  0 0.19627781E+03</rscale>
<asrwt>0</asrwt>
<pdfrwt beam="2">  1        2 0.14980253E+00 0.20088861E+03</pdfrwt>
<pdfrwt beam="1">  1       -2 0.59041265E-02 0.20088861E+03</pdfrwt>
<totfact> 0.40975464E+03</totfact>
</mgrwt>
</event>
<event>
 7    1  0.8712071E-006  0.1416430E+03  0.7546771E-02  0.1220636E+00
         -1   -1    0    0    0  501 -0.00000000000E+00  0.00000000000E+00  0.51947634353E+02  0.51947634353E+02  0.00000000000E+00 0.  1.
          1   -1    0    0  501    0  0.00000000000E+00 -0.00000000000E+00 -0.41762215831E+03  0.41762215831E+03  0.00000000000E+00 0. -1.
         23    2    1    2    0    0 -0.26139066819E+02  0.61010782511E+02 -0.83237385339E+02  0.16428999288E+03  0.12512862601E+03 0.  0.
          5    1    3    3  502    0 -0.70271208576E+02  0.65250242989E+02 -0.65920416794E+02  0.11646127389E+03  0.47000000000E+01 0. -1.
         -5    1    3    3    0  502  0.44132141756E+02 -0.42394604784E+01 -0.17316968544E+02  0.47828718995E+02  0.47000000000E+01 0. -1.
        -11    1    1    2    0    0  0.21461503082E+02 -0.85815677075E+02 -0.24144391166E+03  0.25713826830E+03  0.00000000000E+00 0.  1.
         11    1    1    2    0    0  0.46775637375E+01  0.24804894565E+02 -0.40993226956E+02  0.48141531479E+02  0.00000000000E+00 0. -1.
<mgrwt>
<rscale>  0 0.13470562E+03</rscale>
<asrwt>0</asrwt>
<pdfrwt beam="2">  1        1 0.64249563E-01 0.14164300E+03</pdfrwt>
<pdfrwt beam="1">  1       -1 0.79919437E-02 0.14164300E+03</pdfrwt>
<totfact> 0.47678744E+03</totfact>
</mgrwt>
</event>
<event>
 7    1  0.8712071E-006  0.1331356E+03  0.7546771E-02  0.1236513E+00
         -1   -1    0    0    0  501 -0.00000000000E+00  0.00000000000E+00  0.29857918184E+03  0.29857918184E+03  0.00000000000E+00 0.  1.
          1   -1    0    0  501    0  0.00000000000E+00 -0.00000000000E+00 -0.48178506228E+02  0.48178506228E+02  0.00000000000E+00 0. -1.
         23    2    1    2    0    0 -0.30686760227E+00 -0.45820784935E+02  0.18090367525E+03  0.22461352699E+03  0.12500183314E+03 0.  0.
          5    1    3    3  502    0 -0.12899658234E+01 -0.81583930369E+02  0.16703139105E+03  0.18595477220E+03  0.47000000000E+01 0.  1.
         -5    1    3    3    0  502  0.98309822114E+00  0.35763145434E+02  0.13872284204E+02  0.38658754798E+02  0.47000000000E+01 0.  1.
        -11    1    1    2    0    0 -0.30816365330E+02 -0.11352734895E+02  0.11022593496E+02  0.34641456798E+02  0.00000000000E+00 0. -1.
         11    1    1    2    0    0  0.31123232932E+02  0.57173519830E+02  0.58474406861E+02  0.87502704276E+02  0.00000000000E+00 0.  1.
<mgrwt>
<rscale>  0 0.12408055E+03</rscale>
<asrwt>0</asrwt>
<pdfrwt beam="2">  1        1 0.74120781E-02 0.13313563E+03</pdfrwt>
<pdfrwt beam="1">  1       -1 0.45935258E-01 0.13313563E+03</pdfrwt>
<totfact> 0.44310113E+03</totfact>
</mgrwt>
</event>
<event>
 7    1  0.8712071E-006  0.1955312E+03  0.7546771E-02  0.1157953E+00
         -4   -1    0    0    0  501 -0.00000000000E+00  0.00000000000E+00  0.16070870046E+04  0.16070870046E+04  0.00000000000E+00 0. -1.
          4   -1    0    0  501    0  0.00000000000E+00 -0.00000000000E+00 -0.28584112217E+02  0.28584112217E+02  0.00000000000E+00 0.  1.
         23    2    1    2    0    0  0.14027888461E+03 -0.54130343814E+02  0.12259597802E+04  0.12414547261E+04  0.12499677922E+03 0.  0.
          5    1    3    3  502    0 -0.40777473139E+01  0.58037972663E+01  0.44039353417E+03  0.44047572808E+03  0.47000000000E+01 0. -1.
         -5    1    3    3    0  502  0.14435663192E+03 -0.59934141080E+02  0.78556624601E+03  0.80097899805E+03  0.47000000000E+01 0. -1.
        -11    1    1    2    0    0 -0.90594839436E+02  0.69485012747E+02  0.17288152373E+03  0.20718014667E+03  0.00000000000E+00 0.  1.
         11    1    1    2    0    0 -0.49684045174E+02 -0.15354668933E+02  0.17966158847E+03  0.18703624402E+03  0.00000000000E+00 0. -1.
<mgrwt>
<rscale>  0 0.19056444E+03</rscale>
<asrwt>0</asrwt>
<pdfrwt beam="2">  1        4 0.43975570E-02 0.19553121E+03</pdfrwt>
<pdfrwt beam="1">  1       -4 0.24724408E+00 0.19553121E+03</pdfrwt>
<totfact> 0.39242031E+01</totfact>
</mgrwt>
</event>
<event>
 7    1  0.8712071E-006  0.1599924E+03  0.7546771E-02  0.1196065E+00
          3   -1    0    0  501    0  0.00000000000E+00  0.00000000000E+00  0.13452088849E+02  0.13452088849E+02  0.00000000000E+00 0. -1.
         -3   -1    0    0    0  501 -0.00000000000E+00 -0.00000000000E+00 -0.18820035795E+04  0.18820035795E+04  0.00000000000E+00 0.  1.
         23    2    1    2    0    0  0.79208010427E+02 -0.60808839021E+02 -0.13461021159E+04  0.13555768029E+04  0.12500375272E+03 0.  0.
          5    1    3    3  502    0  0.69537447655E+02 -0.95757079377E+02 -0.86238622128E+03  0.87048087832E+03  0.47000000000E+01 0.  1.
         -5    1    3    3    0  502  0.96705627721E+01  0.34948240356E+02 -0.48371589463E+03  0.48509592454E+03  0.47000000000E+01 0.  1.
        -11    1    1    2    0    0 -0.92834480766E+02  0.23332288424E+02 -0.34752356873E+03  0.36046534830E+03  0.00000000000E+00 0.  1.
         11    1    1    2    0    0  0.13626470338E+02  0.37476550597E+02 -0.17492580597E+03  0.17941351714E+03  0.00000000000E+00 0. -1.
<mgrwt>
<rscale>  0 0.15364464E+03</rscale>
<asrwt>0</asrwt>
<pdfrwt beam="1">  1        3 0.20695529E-02 0.15999238E+03</pdfrwt>
<pdfrwt beam="2">  1       -3 0.28953891E+00 0.15999238E+03</pdfrwt>
<totfact> 0.11008155E+02</totfact>
</mgrwt>
</event>
<event>
 7    1  0.8712071E-006  0.1412505E+03  0.7546771E-02  0.1222283E+00
          2   -1    0    0  501    0  0.00000000000E+00  0.00000000000E+00  0.13106470674E+03  0.13106470674E+03  0.00000000000E+00 0. -1.
         -2   -1    0    0    0  501 -0.00000000000E+00 -0.00000000000E+00 -0.24800961745E+03  0.24800961745E+03  0.00000000000E+00 0.  1.
         23    2    1    2    0    0 -0.46230488504E+02 -0.46800227706E+02 -0.19576563928E+03  0.24140401312E+03  0.12499677055E+03 0.  0.
          5    1    3    3  502    0 -0.42316573375E+02 -0.51997833317E+02 -0.26965836560E+02  0.72413489029E+02  0.47000000000E+01 0. -1.
         -5    1    3    3    0  502 -0.39139151285E+01  0.51976056111E+01 -0.16879980271E+03  0.16899052409E+03  0.47000000000E+01 0. -1.
        -11    1    1    2    0    0  0.23140237230E+02 -0.17820127861E+02 -0.46917431309E+01  0.29581074856E+02  0.00000000000E+00 0.  1.
         11    1    1    2    0    0  0.23090251273E+02  0.64620355566E+02  0.83512471694E+02  0.10808923622E+03  0.00000000000E+00 0. -1.
<mgrwt>
<rscale>  0 0.13354895E+03</rscale>
<asrwt>0</asrwt>
<pdfrwt beam="1">  1        2 0.20163801E-01 0.14125053E+03</pdfrwt>
<pdfrwt beam="2">  1       -2 0.38155325E-01 0.14125053E+03</pdfrwt>
<totfact> 0.17494574E+03</totfact>
</mgrwt>
</event>
<event>
 7    1  0.8712071E-006  0.1294527E+03  0.7546771E-02  0.1242876E+00
         -2   -1    0    0    0  501 -0.00000000000E+00  0.00000000000E+00  0.22597256513E+02  0.22597256513E+02  0.00000000000E+00 0.  1.
          2   -1    0    0  501    0  0.00000000000E+00 -0.00000000000E+00 -0.64931899214E+03  0.64931899214E+03  0.00000000000E+00 0. -1.
         23    2    1    2    0    0  0.33521726000E+02 -0.28323406684E+01 -0.23187562056E+03  0.26556411751E+03  0.12500507524E+03 0.  0.
          5    1    3    3  502    0  0.64013261178E+02  0.25249386085E+02 -0.69504639957E+02  0.97919426469E+02  0.47000000000E+01 0. -1.
         -5    1    3    3    0  502 -0.30491535179E+02 -0.28081726754E+02 -0.16237098060E+03  0.16764469104E+03  0.47000000000E+01 0. -1.
        -11    1    1    2    0    0 -0.27371857201E+01  0.41266774391E+02 -0.24915057220E+03  0.25255978794E+03  0.00000000000E+00 0.  1.
         11    1    1    2    0    0 -0.30784540279E+02 -0.38434433722E+02 -0.14569554287E+03  0.15379234320E+03  0.00000000000E+00 0. -1.
<mgrwt>
<rscale>  0 0.12013413E+03</rscale>
<asrwt>0</asrwt>
<pdfrwt beam="2">  1        2 0.99895241E-01 0.12945268E+03</pdfrwt>
<pdfrwt beam="1">  1       -2 0.34765006E-02 0.12945268E+03</pdfrwt>
<totfact> 0.14764812E+04</totfact>
</mgrwt>
</event>
<event>
 7    1  0.8712071E-006  0.1545570E+03  0.7546771E-02  0.1203549E+00
          2   -1    0    0  501    0  0.00000000000E+00  0.00000000000E+00  0.94238815808E+03  0.94238815808E+03  0.00000000000E+00 0. -1.
         -2   -1    0    0    0  501 -0.00000000000E+00 -0.00000000000E+00 -0.21293528874E+02  0.21293528874E+02  0.00000000000E+00 0.  1.
         23    2    1    2    0    0 -0.20553932631E+02 -0.88553016719E+02  0.47556186008E+03  0.50004696076E+03  0.12499511706E+03 0.  0.
          5    1    3    3  502    0 -0.18050781338E+02 -0.10800233869E+03  0.24254031642E+03  0.26615452458E+03  0.47000000000E+01 0. -1.
         -5    1    3    3    0  502 -0.25031512930E+01  0.19449321966E+02  0.23302154366E+03  0.23389243618E+03  0.47000000000E+01 0. -1.
        -11    1    1    2    0    0  0.48317344965E+02  0.40716303209E+02  0.14673397065E+03  0.15975994903E+03  0.00000000000E+00 0.  1.
         11    1    1    2    0    0 -0.27763412334E+02  0.47836713511E+02  0.29879879847E+03  0.30387477716E+03  0.00000000000E+00 0. -1.
<mgrwt>
<rscale>  0 0.14752404E+03</rscale>
<asrwt>0</asrwt>
<pdfrwt beam="1">  1        2 0.14498276E+00 0.15455705E+03</pdfrwt>
<pdfrwt beam="2">  1       -2 0.32759283E-02 0.15455705E+03</pdfrwt>
<totfact> 0.10273308E+04</totfact>
</mgrwt>
</event>
<event>
 7    1  0.8712071E-006  0.1641890E+03  0.7546771E-02  0.1190536E+00
          2   -1    0    0  501    0  0.00000000000E+00  0.00000000000E+00  0.29145271292E+03  0.29145271292E+03  0.00000000000E+00 0. -1.
         -2   -1    0    0    0  501 -0.00000000000E+00 -0.00000000000E+00 -0.98435633515E+02  0.98435633515E+02  0.00000000000E+00 0.  1.
         23    2    1    2    0    0 -0.42770693440E+02  0.97727584273E+02  0.19154682959E+02  0.16530256313E+03  0.12481194875E+03 0.  0.
          5    1    3    3  502    0 -0.87793895636E+01  0.10125406413E+03  0.54914617656E+02  0.11561647122E+03  0.47000000000E+01 0.  1.
         -5    1    3    3    0  502 -0.33991303877E+02 -0.35264798613E+01 -0.35759934697E+02  0.49686091907E+02  0.47000000000E+01 0.  1.
        -11    1    1    2    0    0  0.13979480796E+02 -0.15533215681E+02  0.12081907453E+03  0.12261303129E+03  0.00000000000E+00 0. -1.
         11    1    1    2    0    0  0.28791212645E+02 -0.82194368593E+02  0.53043321916E+02  0.10197275202E+03  0.00000000000E+00 0.  1.
<mgrwt>
<rscale>  0 0.15838192E+03</rscale>
<asrwt>0</asrwt>
<pdfrwt beam="1">  1        2 0.44838879E-01 0.16418902E+03</pdfrwt>
<pdfrwt beam="2">  1       -2 0.15143944E-01 0.16418902E+03</pdfrwt>
<totfact> 0.37009871E+03</totfact>
</mgrwt>
</event>
<event>
 7    1  0.8712071E-006  0.1480906E+03  0.7546771E-02  0.1209948E+00
          4   -1    0    0  501    0  0.00000000000E+00  0.00000000000E+00  0.88211908753E+02  0.88211908753E+02  0.00000000000E+00 0. -1.
         -4   -1    0    0    0  501 -0.00000000000E+00 -0.00000000000E+00 -0.22974050962E+03  0.22974050962E+03  0.00000000000E+00 0.  1.
         23    2    1    2    0    0  0.23047548810E+02  0.91539946194E+02 -0.11643883021E+03  0.18838478539E+03  0.11410554296E+03 0.  0.
          5    1    3    3  502    0  0.19693313414E+02  0.37681312559E+02  0.15706493579E+02  0.45568540134E+02  0.47000000000E+01 0. -1.
         -5    1    3    3    0  502  0.33542353963E+01  0.53858633635E+02 -0.13214532378E+03  0.14281624526E+03  0.47000000000E+01 0.  1.
        -11    1    1    2    0    0 -0.46747244658E+02 -0.33448424021E+02 -0.33080947911E+02  0.66320819260E+02  0.00000000000E+00 0. -1.
         11    1    1    2    0    0  0.23699695848E+02 -0.58091522173E+02  0.79911772498E+01  0.63246813718E+02  0.00000000000E+00 0.  1.
<mgrwt>
<rscale>  0 0.14254271E+03</rscale>
<asrwt>0</asrwt>
<pdfrwt beam="1">  1        4 0.13571063E-01 0.14809060E+03</pdfrwt>
<pdfrwt beam="2">  1       -4 0.35344694E-01 0.14809060E+03</pdfrwt>
<totfact> 0.58700701E+02</totfact>
</mgrwt>
</event>
<event>
 7    1  0.8712071E-006  0.1703833E+03  0.7546771E-02  0.1183132E+00
          2   -1    0    0  501    0  0.00000000000E+00  0.00000000000E+00  0.78879371021E+03  0.78879371021E+03  0.00000000000E+00 0. -1.
         -2   -1    0    0    0  501 -0.00000000000E+00 -0.00000000000E+00 -0.33241567011E+02  0.33241567011E+02  0.00000000000E+00 0.  1.
         23    2    1    2    0    0  0.11316422383E+03 -0.24498388741E+02  0.34108427205E+03  0.38127280727E+03  0.12499664121E+03 0.  0.
          5    1    3    3  502    0  0.10356007330E+02 -0.14028997317E+02  0.22524078936E+03  0.22596363169E+03  0.47000000000E+01 0. -1.
         -5    1    3    3    0  502  0.10280821650E+03 -0.10469391424E+02  0.11584348269E+03  0.15530917558E+03  0.47000000000E+01 0. -1.
        -11    1    1    2    0    0 -0.73856106716E+02 -0.22986889945E+02  0.30961955389E+03  0.31913537842E+03  0.00000000000E+00 0. -1.
         11    1    1    2    0    0 -0.39308117118E+02  0.47485278686E+02  0.10484831726E+03  0.12162709153E+03  0.00000000000E+00 0.  1.
<mgrwt>
<rscale>  0 0.16503042E+03</rscale>
<asrwt>0</asrwt>
<pdfrwt beam="1">  1        2 0.12135286E+00 0.17038331E+03</pdfrwt>
<pdfrwt beam="2">  1       -2 0.51140879E-02 0.17038331E+03</pdfrwt>
<totfact> 0.66779785E+03</totfact>
</mgrwt>
</event>
<event>
 7    1  0.1146932E-005  0.2095856E+03  0.7546771E-02  0.1145728E+00
         -3   -1    0    0    0  501 -0.00000000000E+00  0.00000000000E+00  0.59484729139E+03  0.59484729139E+03  0.00000000000E+00 0.  1.
          3   -1    0    0  501    0  0.00000000000E+00 -0.00000000000E+00 -0.68932014190E+02  0.68932014190E+02  0.00000000000E+00 0. -1.
         23    2    1    2    0    0  0.14945678648E+03  0.77224446001E+02  0.22710756189E+03  0.30903713041E+03  0.12500062888E+03 0.  0.
          5    1    3    3  502    0  0.17348276080E+02  0.62487708620E+02  0.12660532127E+03  0.14232594207E+03  0.47000000000E+01 0. -1.
         -5    1    3    3    0  502  0.13210851040E+03  0.14736737381E+02  0.10050224061E+03  0.16671118834E+03  0.47000000000E+01 0. -1.
        -11    1    1    2    0    0 -0.65876415950E+02 -0.72237871546E+02  0.10418187969E+03  0.14287013795E+03  0.00000000000E+00 0.  1.
         11    1    1    2    0    0 -0.83580370526E+02 -0.49865744550E+01  0.19462583563E+03  0.21187203722E+03  0.00000000000E+00 0. -1.
<mgrwt>
<rscale>  0 0.20482869E+03</rscale>
<asrwt>0</asrwt>
<pdfrwt beam="2">  1        3 0.10604926E-01 0.20958555E+03</pdfrwt>
<pdfrwt beam="1">  1       -3 0.91514965E-01 0.20958555E+03</pdfrwt>
<totfact> 0.18158600E+02</totfact>
</mgrwt>
</event>
<event>
 7    1  0.8712071E-006  0.2362106E+03  0.7546771E-02  0.1125356E+00
         -2   -1    0    0    0  501 -0.00000000000E+00  0.00000000000E+00  0.17733565888E+03  0.17733565888E+03  0.00000000000E+00 0. -1.
          2   -1    0    0  501    0  0.00000000000E+00 -0.00000000000E+00 -0.29985665355E+03  0.29985665355E+03  0.00000000000E+00 0.  1.
         23    2    1    2    0    0  0.11125610297E+03  0.16671055281E+03 -0.25792006328E+02  0.23761454279E+03  0.12500045794E+03 0.  0.
          5    1    3    3  502    0  0.13736522619E+03  0.13110097766E+03 -0.90548004969E+01  0.19015980417E+03  0.47000000000E+01 0.  1.
         -5    1    3    3    0  502 -0.26109123221E+02  0.35609575152E+02 -0.16737205831E+02  0.47454738614E+02  0.47000000000E+01 0.  1.
        -11    1    1    2    0    0 -0.10352391327E+03 -0.84159692940E+02 -0.78111783930E+02  0.15460111683E+03  0.00000000000E+00 0. -1.
         11    1    1    2    0    0 -0.77321896969E+01 -0.82550859875E+02 -0.18617204411E+02  0.84976652815E+02  0.00000000000E+00 0.  1.
<mgrwt>
<rscale>  0 0.23183342E+03</rscale>
<asrwt>0</asrwt>
<pdfrwt beam="2">  1        2 0.46131793E-01 0.23621059E+03</pdfrwt>
<pdfrwt beam="1">  1       -2 0.27282409E-01 0.23621059E+03</pdfrwt>
<totfact> 0.13260376E+03</totfact>
</mgrwt>
</event>
<event>
 7    1  0.8712071E-006  0.1318080E+03  0.7546771E-02  0.1237162E+00
          3   -1    0    0  501    0  0.00000000000E+00  0.00000000000E+00  0.19587723432E+03  0.19587723432E+03  0.00000000000E+00 0. -1.
         -3   -1    0    0    0  501 -0.00000000000E+00 -0.00000000000E+00 -0.31122139491E+03  0.31122139491E+03  0.00000000000E+00 0.  1.
         23    2    1    2    0    0 -0.18828391062E+02  0.37333140364E+02 -0.28219613828E+03  0.31146109290E+03  0.12500032100E+03 0.  0.
          5    1    3    3  502    0 -0.33082846985E+02  0.20046507871E+01 -0.77720472418E+01  0.34365507529E+02  0.47000000000E+01 0.  1.
         -5    1    3    3    0  502  0.14254455923E+02  0.35328489577E+02 -0.27442409104E+03  0.27709558537E+03  0.47000000000E+01 0.  1.
        -11    1    1    2    0    0 -0.28455343822E+02 -0.30389430717E+02  0.31825678324E+02  0.52403224062E+02  0.00000000000E+00 0.  1.
         11    1    1    2    0    0  0.47283734884E+02 -0.69437096465E+01  0.13502629937E+03  0.14323431227E+03  0.00000000000E+00 0. -1.
<mgrwt>
<rscale>  0 0.12367022E+03</rscale>
<asrwt>0</asrwt>
<pdfrwt beam="1">  1        3 0.30134959E-01 0.13180801E+03</pdfrwt>
<pdfrwt beam="2">  1       -3 0.47880215E-01 0.13180801E+03</pdfrwt>
<totfact> 0.10867940E+02</totfact>
</mgrwt>
</event>
<event>
 7    1  0.8712071E-006  0.1651172E+03  0.7546771E-02  0.1190073E+00
          1   -1    0    0  501    0  0.00000000000E+00  0.00000000000E+00  0.54897441220E+03  0.54897441220E+03  0.00000000000E+00 0. -1.
         -1   -1    0    0    0  501 -0.00000000000E+00 -0.00000000000E+00 -0.56594991539E+02  0.56594991539E+02  0.00000000000E+00 0.  1.
         23    2    1    2    0    0  0.35932405273E+01  0.10782413574E+03  0.11119433313E+03  0.19906748669E+03  0.12499891565E+03 0.  0.
          5    1    3    3  502    0  0.23420699117E+02 -0.14624777572E+02  0.57221275019E+02  0.63708536170E+02  0.47000000000E+01 0.  1.
         -5    1    3    3    0  502 -0.19827458590E+02  0.12244891331E+03  0.53973058111E+02  0.13535895052E+03  0.47000000000E+01 0.  1.
        -11    1    1    2    0    0 -0.41170003209E+02 -0.62636742999E+02  0.14639588928E+03  0.16446910693E+03  0.00000000000E+00 0.  1.
         11    1    1    2    0    0  0.37576762681E+02 -0.45187392736E+02  0.23478919826E+03  0.24203281012E+03  0.00000000000E+00 0. -1.
<mgrwt>
<rscale>  0 0.15878687E+03</rscale>
<asrwt>0</asrwt>
<pdfrwt beam="1">  1        1 0.84457599E-01 0.16511718E+03</pdfrwt>
<pdfrwt beam="2">  1       -1 0.87069221E-02 0.16511718E+03</pdfrwt>
<totfact> 0.29530251E+03</totfact>
</mgrwt>
</event>
<event>
 7    1  0.8712071E-006  0.1442127E+03  0.7546771E-02  0.1218815E+00
          2   -1    0    0  501    0  0.00000000000E+00  0.00000000000E+00  0.75185158428E+03  0.75185158428E+03  0.00000000000E+00 0. -1.
         -2   -1    0    0    0  501 -0.00000000000E+00 -0.00000000000E+00 -0.22963598575E+02  0.22963598575E+02  0.00000000000E+00 0.  1.
         23    2    1    2    0    0 -0.69458959184E+02  0.18698818097E+02  0.33447836861E+03  0.36424317539E+03  0.12499247552E+03 0.  0.
          5    1    3    3  502    0 -0.81383886708E+02  0.59474175013E+02  0.24911966142E+03  0.26878097071E+03  0.47000000000E+01 0. -1.
         -5    1    3    3    0  502  0.11924927524E+02 -0.40775356917E+02  0.85358707198E+02  0.95462204681E+02  0.47000000000E+01 0. -1.
        -11    1    1    2    0    0  0.11654313138E+02 -0.47457478971E+02  0.14883852220E+03  0.15665548511E+03  0.00000000000E+00 0.  1.
         11    1    1    2    0    0  0.57804646046E+02  0.28758660874E+02  0.24557109489E+03  0.25391652236E+03  0.00000000000E+00 0. -1.
<mgrwt>
<rscale>  0 0.13600007E+03</rscale>
<asrwt>0</asrwt>
<pdfrwt beam="1">  1        2 0.11566946E+00 0.14421273E+03</pdfrwt>
<pdfrwt beam="2">  1       -2 0.35328619E-02 0.14421273E+03</pdfrwt>
<totfact> 0.12206429E+04</totfact>
</mgrwt>
</event>
<event>
 7    1  0.8712071E-006  0.2456495E+03  0.7546771E-02  0.1118531E+00
         -1   -1    0    0    0  501 -0.00000000000E+00  0.00000000000E+00  0.55639252391E+03  0.55639252391E+03  0.00000000000E+00 0.  1.
          1   -1    0    0  501    0  0.00000000000E+00 -0.00000000000E+00 -0.10235974960E+03  0.10235974960E+03  0.00000000000E+00 0. -1.
         23    2    1    2    0    0 -0.23965722086E+01  0.21146194167E+03  0.21696888329E+03  0.32774867715E+03  0.12498721026E+03 0.  0.
          5    1    3    3  502    0  0.37110837075E+02  0.19028586443E+03  0.20257257718E+03  0.28043477576E+03  0.47000000000E+01 0.  1.
         -5    1    3    3    0  502 -0.39507409284E+02  0.21176077240E+02  0.14396306106E+02  0.47313901394E+02  0.47000000000E+01 0.  1.
        -11    1    1    2    0    0 -0.37413533731E+02 -0.16776713378E+03  0.17757321298E+03  0.24713929200E+03  0.00000000000E+00 0.  1.
         11    1    1    2    0    0  0.39810105940E+02 -0.43694807890E+02  0.59490678038E+02  0.83864304355E+02  0.00000000000E+00 0. -1.
<mgrwt>
<rscale>  0 0.24190404E+03</rscale>
<asrwt>0</asrwt>
<pdfrwt beam="2">  1        1 0.15747654E-01 0.24564955E+03</pdfrwt>
<pdfrwt beam="1">  1       -1 0.85598848E-01 0.24564955E+03</pdfrwt>
<totfact> 0.49534172E+02</totfact>
</mgrwt>
</event>
<event>
 7    1  0.8712071E-006  0.2197114E+03  0.7546771E-02  0.1135888E+00
          2   -1    0    0  501    0  0.00000000000E+00  0.00000000000E+00  0.14655211229E+04  0.14655211229E+04  0.00000000000E+00 0. -1.
         -2   -1    0    0    0  501 -0.00000000000E+00 -0.00000000000E+00 -0.34268816212E+02  0.34268816212E+02  0.00000000000E+00 0.  1.
         23    2    1    2    0    0 -0.16241514943E+03  0.79178232619E+02  0.51880084802E+03  0.56340696313E+03  0.12500085164E+03 0.  0.
          5    1    3    3  502    0 -0.65416101559E+02  0.13957159613E+01  0.33558612307E+03  0.34193764104E+03  0.47000000000E+01 0.  1.
         -5    1    3    3    0  502 -0.96999047874E+02  0.77782516658E+02  0.18321472495E+03  0.22146932208E+03  0.47000000000E+01 0.  1.
        -11    1    1    2    0    0  0.10846773179E+03 -0.62740109412E+01  0.64203002337E+03  0.65115832404E+03  0.00000000000E+00 0. -1.
         11    1    1    2    0    0  0.53947417644E+02 -0.72904221678E+02  0.27042143527E+03  0.28522465192E+03  0.00000000000E+00 0.  1.
<mgrwt>
<rscale>  0 0.21733163E+03</rscale>
<asrwt>0</asrwt>
<pdfrwt beam="1">  1        2 0.22546474E+00 0.21971137E+03</pdfrwt>
<pdfrwt beam="2">  1       -2 0.52721267E-02 0.21971137E+03</pdfrwt>
<totfact> 0.25704329E+03</totfact>
</mgrwt>
</event>
<event>
 7    1  0.8712071E-006  0.1405663E+03  0.7546771E-02  0.1223081E+00
          1   -1    0    0  501    0  0.00000000000E+00  0.00000000000E+00  0.90993817231E+02  0.90993817231E+02  0.00000000000E+00 0. -1.
         -1   -1    0    0    0  501 -0.00000000000E+00 -0.00000000000E+00 -0.25778668444E+03  0.25778668444E+03  0.00000000000E+00 0.  1.
         23    2    1    2    0    0  0.31536589172E+02 -0.56040506834E+02 -0.18741633156E+03  0.23427285223E+03  0.12499517228E+03 0.  0.
          5    1    3    3  502    0  0.72592677650E+02 -0.11143756436E+02 -0.68141990711E+02  0.10029606699E+03  0.47000000000E+01 0. -1.
         -5    1    3    3    0  502 -0.41056088478E+02 -0.44896750398E+02 -0.11927434085E+03  0.13397678524E+03  0.47000000000E+01 0. -1.
        -11    1    1    2    0    0  0.24523523715E+02 -0.70219877412E+01 -0.56630224520E+01  0.26130085161E+02  0.00000000000E+00 0.  1.
         11    1    1    2    0    0 -0.56060112887E+02  0.63062494576E+02  0.26286486807E+02  0.88377564278E+02  0.00000000000E+00 0. -1.
<mgrwt>
<rscale>  0 0.13299319E+03</rscale>
<asrwt>0</asrwt>
<pdfrwt beam="1">  1        1 0.13999049E-01 0.14056631E+03</pdfrwt>
<pdfrwt beam="2">  1       -1 0.39659490E-01 0.14056631E+03</pdfrwt>
<totfact> 0.24843702E+03</totfact>
</mgrwt>
</event>
<event>
 7    1  0.8712071E-006  0.1508928E+03  0.7546771E-02  0.1208281E+00
         -2   -1    0    0    0  501 -0.00000000000E+00  0.00000000000E+00  0.21235484297E+02  0.21235484297E+02  0.00000000000E+00 0.  1.
          2   -1    0    0  501    0  0.00000000000E+00 -0.00000000000E+00 -0.90331439850E+03  0.90331439850E+03  0.00000000000E+00 0. -1.
         23    2    1    2    0    0 -0.83873112888E+02 -0.10876896661E+02 -0.43366131509E+03  0.45916310789E+03  0.12496246436E+03 0.  0.
          5    1    3    3  502    0 -0.11571454718E+03  0.21674361305E+01 -0.34597409546E+03  0.36484889878E+03  0.47000000000E+01 0.  1.
         -5    1    3    3    0  502  0.31841434287E+02 -0.13044332791E+02 -0.87687219621E+02  0.94314209111E+02  0.47000000000E+01 0.  1.
        -11    1    1    2    0    0  0.26012870431E+02  0.48021413587E+02 -0.16758219164E+03  0.17625696169E+03  0.00000000000E+00 0.  1.
         11    1    1    2    0    0  0.57860242458E+02 -0.37144516927E+02 -0.28083540748E+03  0.28912981322E+03  0.00000000000E+00 0. -1.
<mgrwt>
<rscale>  0 0.14381876E+03</rscale>
<asrwt>0</asrwt>
<pdfrwt beam="2">  1        2 0.13897142E+00 0.15089275E+03</pdfrwt>
<pdfrwt beam="1">  1       -2 0.32669981E-02 0.15089275E+03</pdfrwt>
<totfact> 0.10897100E+04</totfact>
</mgrwt>
</event>
<event>
 7    1  0.8712071E-006  0.1278913E+03  0.7546771E-02  0.1245446E+00
         -1   -1    0    0    0  501 -0.00000000000E+00  0.00000000000E+00  0.51072175611E+03  0.51072175611E+03  0.00000000000E+00 0.  1.
          1   -1    0    0  501    0  0.00000000000E+00 -0.00000000000E+00 -0.24234560161E+02  0.24234560161E+02  0.00000000000E+00 0. -1.
         23    2    1    2    0    0 -0.26869585209E+02 -0.31678686462E+01  0.28638267740E+03  0.31364187681E+03  0.12499671586E+03 0.  0.
          5    1    3    3  502    0 -0.54379318751E+02  0.59867050857E+01  0.46458551979E+02  0.71926615363E+02  0.47000000000E+01 0. -1.
         -5    1    3    3    0  502  0.27509733541E+02 -0.91545737319E+01  0.23992412542E+03  0.24171526145E+03  0.47000000000E+01 0. -1.
        -11    1    1    2    0    0  0.55871287356E+02  0.21859135555E+02  0.12376227491E+03  0.13753735220E+03  0.00000000000E+00 0.  1.
         11    1    1    2    0    0 -0.29001702147E+02 -0.18691266909E+02  0.76342243640E+02  0.83777087262E+02  0.00000000000E+00 0. -1.
<mgrwt>
<rscale>  0 0.11858710E+03</rscale>
<asrwt>0</asrwt>
<pdfrwt beam="2">  1        1 0.37283942E-02 0.12789132E+03</pdfrwt>
<pdfrwt beam="1">  1       -1 0.78572570E-01 0.12789132E+03</pdfrwt>
<totfact> 0.40564480E+03</totfact>
</mgrwt>
</event>
<event>
 7    1  0.8712071E-006  0.1294971E+03  0.7546771E-02  0.1242124E+00
          2   -1    0    0  501    0  0.00000000000E+00  0.00000000000E+00  0.92885154115E+02  0.92885154115E+02  0.00000000000E+00 0. -1.
         -2   -1    0    0    0  501 -0.00000000000E+00 -0.00000000000E+00 -0.15915504962E+03  0.15915504962E+03  0.00000000000E+00 0.  1.
         23    2    1    2    0    0  0.18976810079E+00  0.33959312393E+02 -0.82167748603E+02  0.15336573626E+03  0.12496495204E+03 0.  0.
          5    1    3    3  502    0 -0.35793114445E+02  0.69496923800E+02 -0.55613189600E+02  0.96051477432E+02  0.47000000000E+01 0. -1.
         -5    1    3    3    0  502  0.35982882546E+02 -0.35537611408E+02 -0.26554559003E+02  0.57314258826E+02  0.47000000000E+01 0. -1.
        -11    1    1    2    0    0 -0.17515149922E+02  0.18069888965E+02  0.32753099550E+02  0.41304562631E+02  0.00000000000E+00 0. -1.
         11    1    1    2    0    0  0.17325381821E+02 -0.52029201358E+02 -0.16855246451E+02  0.57369904847E+02  0.00000000000E+00 0.  1.
<mgrwt>
<rscale>  0 0.12059202E+03</rscale>
<asrwt>0</asrwt>
<pdfrwt beam="1">  1        2 0.14290024E-01 0.12949714E+03</pdfrwt>
<pdfrwt beam="2">  1       -2 0.24485392E-01 0.12949714E+03</pdfrwt>
<totfact> 0.57676528E+03</totfact>
</mgrwt>
</event>
<event>
 7    1  0.8712071E-006  0.1271323E+03  0.7546771E-02  0.1246545E+00
         -2   -1    0    0    0  501 -0.00000000000E+00  0.00000000000E+00  0.66775089372E+02  0.66775089372E+02  0.00000000000E+00 0. -1.
          2   -1    0    0  501    0  0.00000000000E+00 -0.00000000000E+00 -0.18753029814E+03  0.18753029814E+03  0.00000000000E+00 0.  1.
         23    2    1    2    0    0 -0.54809457374E+01  0.22577799778E+02 -0.50315835640E+02  0.13672709240E+03  0.12499126638E+03 0.  0.
          5    1    3    3  502    0  0.56390674503E+02 -0.35222713078E+01 -0.81060159120E+01  0.57272262572E+02  0.47000000000E+01 0.  1.
         -5    1    3    3    0  502 -0.61871620241E+02  0.26100071086E+02 -0.42209819728E+02  0.79454829830E+02  0.47000000000E+01 0.  1.
        -11    1    1    2    0    0  0.17384548464E+02 -0.55931876154E+02 -0.40574658010E+02  0.71252369561E+02  0.00000000000E+00 0. -1.
         11    1    1    2    0    0 -0.11903602727E+02  0.33354076376E+02 -0.29864715114E+02  0.46325925546E+02  0.00000000000E+00 0.  1.
<mgrwt>
<rscale>  0 0.11793403E+03</rscale>
<asrwt>0</asrwt>
<pdfrwt beam="2">  1        2 0.28850815E-01 0.12713227E+03</pdfrwt>
<pdfrwt beam="1">  1       -2 0.10273091E-01 0.12713227E+03</pdfrwt>
<totfact> 0.10894926E+04</totfact>
</mgrwt>
</event>
<event>
 7    1  0.8712071E-006  0.2243791E+03  0.7546771E-02  0.1133522E+00
          2   -1    0    0  501    0  0.00000000000E+00  0.00000000000E+00  0.84645292829E+02  0.84645292829E+02  0.00000000000E+00 0. -1.
         -2   -1    0    0    0  501 -0.00000000000E+00 -0.00000000000E+00 -0.57406649159E+03  0.57406649159E+03  0.00000000000E+00 0.  1.
         23    2    1    2    0    0  0.16320681545E+03 -0.89909375736E+02 -0.19339264302E+03  0.29622070543E+03  0.12500332593E+03 0.  0.
          5    1    3    3  502    0  0.15169861050E+03 -0.80929056048E+02 -0.21142315978E+03  0.27255058802E+03  0.47000000000E+01 0. -1.
         -5    1    3    3    0  502  0.11508204957E+02 -0.89803196880E+01  0.18030516765E+02  0.23670117402E+02  0.47000000000E+01 0. -1.
        -11    1    1    2    0    0 -0.57017667804E+02  0.43271498200E+02 -0.19831242232E+03  0.21083465997E+03  0.00000000000E+00 0. -1.
         11    1    1    2    0    0 -0.10618914765E+03  0.46637877535E+02 -0.97716133417E+02  0.15165641902E+03  0.00000000000E+00 0.  1.
<mgrwt>
<rscale>  0 0.22048550E+03</rscale>
<asrwt>0</asrwt>
<pdfrwt beam="1">  1        2 0.13022353E-01 0.22437913E+03</pdfrwt>
<pdfrwt beam="2">  1       -2 0.88317923E-01 0.22437913E+03</pdfrwt>
<totfact> 0.52647116E+02</totfact>
</mgrwt>
</event>
<event>
 7    1  0.8712071E-006  0.1342836E+03  0.7546771E-02  0.1234207E+00
         -2   -1    0    0    0  501 -0.00000000000E+00  0.00000000000E+00  0.89424300587E+02  0.89424300587E+02  0.00000000000E+00 0.  1.
          2   -1    0    0  501    0  0.00000000000E+00 -0.00000000000E+00 -0.21065249307E+03  0.21065249307E+03  0.00000000000E+00 0. -1.
         23    2    1    2    0    0  0.14916147673E+00 -0.49059011240E+02  0.86330224613E+01  0.13456082779E+03  0.12500111386E+03 0.  0.
          5    1    3    3  502    0  0.42358424005E+02 -0.52612320000E+02 -0.32700231242E+02  0.75191006266E+02  0.47000000000E+01 0. -1.
         -5    1    3    3    0  502 -0.42209262528E+02  0.35533087595E+01  0.41333253703E+02  0.59369821526E+02  0.47000000000E+01 0. -1.
        -11    1    1    2    0    0 -0.27916372396E+02  0.55918270911E+02 -0.48008231247E+02  0.78809689359E+02  0.00000000000E+00 0.  1.
         11    1    1    2    0    0  0.27767210920E+02 -0.68592596702E+01 -0.81852983699E+02  0.86706276508E+02  0.00000000000E+00 0. -1.
<mgrwt>
<rscale>  0 0.12555356E+03</rscale>
<asrwt>0</asrwt>
<pdfrwt beam="2">  1        2 0.32408076E-01 0.13428361E+03</pdfrwt>
<pdfrwt beam="1">  1       -2 0.13757585E-01 0.13428361E+03</pdfrwt>
<totfact> 0.60565374E+03</totfact>
</mgrwt>
</event>
<event>
 7    1  0.8712071E-006  0.1333632E+03  0.7546771E-02  0.1235842E+00
          1   -1    0    0  501    0  0.00000000000E+00  0.00000000000E+00  0.28114496730E+03  0.28114496730E+03  0.00000000000E+00 0. -1.
         -1   -1    0    0    0  501 -0.00000000000E+00 -0.00000000000E+00 -0.49773386424E+02  0.49773386424E+02  0.00000000000E+00 0.  1.
         23    2    1    2    0    0 -0.37254361302E+02  0.27775954789E+02  0.15202792063E+03  0.20223313822E+03  0.12500544966E+03 0.  0.
          5    1    3    3  502    0  0.33837973684E+01 -0.39298645718E+02  0.10105164518E+03  0.10857881301E+03  0.47000000000E+01 0.  1.
         -5    1    3    3    0  502 -0.40638158671E+02  0.67074600507E+02  0.50976275447E+02  0.93654325217E+02  0.47000000000E+01 0.  1.
        -11    1    1    2    0    0  0.30043598033E+02 -0.51615939326E+02  0.84278730890E+02  0.10329437282E+03  0.00000000000E+00 0. -1.
         11    1    1    2    0    0  0.72107632689E+01  0.23839984537E+02 -0.49350706469E+01  0.25390842679E+02  0.00000000000E+00 0.  1.
<mgrwt>
<rscale>  0 0.12450711E+03</rscale>
<asrwt>0</asrwt>
<pdfrwt beam="1">  1        1 0.43253071E-01 0.13336324E+03</pdfrwt>
<pdfrwt beam="2">  1       -1 0.76574443E-02 0.13336324E+03</pdfrwt>
<totfact> 0.83019619E+03</totfact>
</mgrwt>
</event>
<event>
 7    1  0.8712071E-006  0.1520569E+03  0.7546771E-02  0.1207861E+00
         -1   -1    0    0    0  501 -0.00000000000E+00  0.00000000000E+00  0.40551009547E+02  0.40551009547E+02  0.00000000000E+00 0.  1.
          1   -1    0    0  501    0  0.00000000000E+00 -0.00000000000E+00 -0.46809262424E+03  0.46809262424E+03  0.00000000000E+00 0. -1.
         23    2    1    2    0    0 -0.83819996815E+02 -0.21620013151E+02 -0.25447370010E+03  0.29644250541E+03  0.12501231194E+03 0.  0.
          5    1    3    3  502    0 -0.51309510955E+02 -0.72066982103E+02 -0.18050515694E+03  0.20107341322E+03  0.47000000000E+01 0. -1.
         -5    1    3    3    0  502 -0.32510485860E+02  0.50446968951E+02 -0.73968543169E+02  0.95369092193E+02  0.47000000000E+01 0. -1.
        -11    1    1    2    0    0  0.83142963733E+02 -0.95179088969E+01 -0.15512082269E+03  0.17625496487E+03  0.00000000000E+00 0.  1.
         11    1    1    2    0    0  0.67703308170E+00  0.31137922048E+02 -0.17947091901E+02  0.35946163508E+02  0.00000000000E+00 0. -1.
<mgrwt>
<rscale>  0 0.14414290E+03</rscale>
<asrwt>0</asrwt>
<pdfrwt beam="2">  1        1 0.72014247E-01 0.15205688E+03</pdfrwt>
<pdfrwt beam="1">  1       -1 0.62386171E-02 0.15205688E+03</pdfrwt>
<totfact> 0.60005131E+03</totfact>
</mgrwt>
</event>
<event>
 7    1  0.8712071E-006  0.2282349E+03  0.7546771E-02  0.1130738E+00
         -2   -1    0    0    0  501 -0.00000000000E+00  0.00000000000E+00  0.20862195072E+04  0.20862195072E+04  0.00000000000E+00 0.  1.
          2   -1    0    0  501    0  0.00000000000E+00 -0.00000000000E+00 -0.23710217262E+02  0.23710217262E+02  0.00000000000E+00 0. -1.
         23    2    1    2    0    0 -0.14779746964E+03 -0.12092948403E+03  0.12040748300E+04  0.12255151480E+04  0.12499259836E+03 0.  0.
          5    1    3    3  502    0 -0.11265348156E+03 -0.87448648129E+02  0.50585489274E+03  0.52559426888E+03  0.47000000000E+01 0. -1.
         -5    1    3    3    0  502 -0.35143988071E+02 -0.33480835904E+02  0.69821993724E+03  0.69992087912E+03  0.47000000000E+01 0. -1.
        -11    1    1    2    0    0  0.15133842370E+03  0.80173183344E+02  0.66480034113E+03  0.68650604613E+03  0.00000000000E+00 0. -1.
         11    1    1    2    0    0 -0.35409540680E+01  0.40756300689E+02  0.19363411884E+03  0.19790853034E+03  0.00000000000E+00 0.  1.
<mgrwt>
<rscale>  0 0.22427155E+03</rscale>
<asrwt>0</asrwt>
<pdfrwt beam="2">  1        2 0.36477274E-02 0.22823493E+03</pdfrwt>
<pdfrwt beam="1">  1       -2 0.32095670E+00 0.22823493E+03</pdfrwt>
<totfact> 0.66372331E+01</totfact>
</mgrwt>
</event>
<event>
 7    1  0.8712071E-006  0.2702000E+03  0.7546771E-02  0.1103753E+00
          1   -1    0    0  501    0  0.00000000000E+00  0.00000000000E+00  0.17044470147E+04  0.17044470147E+04  0.00000000000E+00 0. -1.
         -1   -1    0    0    0  501 -0.00000000000E+00 -0.00000000000E+00 -0.40136643064E+02  0.40136643064E+02  0.00000000000E+00 0.  1.
         23    2    1    2    0    0  0.20525272185E+03 -0.12262400016E+03  0.83710680543E+03  0.87963391833E+03  0.12586779307E+03 0.  0.
          5    1    3    3  502    0  0.80713804679E+02  0.15585612350E+02  0.30512759906E+03  0.31604204037E+03  0.47000000000E+01 0. -1.
         -5    1    3    3    0  502  0.12453891717E+03 -0.13820961251E+03  0.53197920637E+03  0.56359187795E+03  0.47000000000E+01 0. -1.
        -11    1    1    2    0    0 -0.83440416021E+02  0.97389252657E+02  0.43113000437E+03  0.44980001137E+03  0.00000000000E+00 0.  1.
         11    1    1    2    0    0 -0.12181230583E+03  0.25234747499E+02  0.39607356187E+03  0.41514972810E+03  0.00000000000E+00 0. -1.
<mgrwt>
<rscale>  0 0.26572233E+03</rscale>
<asrwt>0</asrwt>
<pdfrwt beam="1">  1        1 0.26222256E+00 0.27019998E+03</pdfrwt>
<pdfrwt beam="2">  1       -1 0.61748695E-02 0.27019998E+03</pdfrwt>
<totfact> 0.67200430E+02</totfact>
</mgrwt>
</event>
<event>
 7    1  0.8712071E-006  0.2148358E+03  0.7546771E-02  0.1141323E+00
          2   -1    0    0  501    0  0.00000000000E+00  0.00000000000E+00  0.44907049278E+03  0.44907049278E+03  0.00000000000E+00 0.  1.
         -2   -1    0    0    0  501 -0.00000000000E+00 -0.00000000000E+00 -0.97756615647E+02  0.97756615647E+02  0.00000000000E+00 0. -1.
         23    2    1    2    0    0  0.16914312718E+03 -0.43825355460E+02  0.13344007301E+03  0.25290448896E+03  0.12499747277E+03 0.  0.
          5    1    3    3  502    0  0.11144916240E+03 -0.68183693182E+02  0.33650210787E+02  0.13499762406E+03  0.47000000000E+01 0. -1.
         -5    1    3    3    0  502  0.57693964779E+02  0.24358337721E+02  0.99789862225E+02  0.11790686490E+03  0.47000000000E+01 0. -1.
        -11    1    1    2    0    0 -0.82418794379E+02  0.54780097965E+02  0.66853163450E+02  0.11942806313E+03  0.00000000000E+00 0.  1.
         11    1    1    2    0    0 -0.86724332798E+02 -0.10954742504E+02  0.15102064067E+03  0.17449455634E+03  0.00000000000E+00 0. -1.
<mgrwt>
<rscale>  0 0.21030700E+03</rscale>
<asrwt>0</asrwt>
<pdfrwt beam="1">  1        2 0.69087767E-01 0.21483582E+03</pdfrwt>
<pdfrwt beam="2">  1       -2 0.15039480E-01 0.21483582E+03</pdfrwt>
<totfact> 0.23729816E+03</totfact>
</mgrwt>
</event>
<event>
 7    1  0.8712071E-006  0.1352230E+03  0.7546771E-02  0.1232012E+00
          2   -1    0    0  501    0  0.00000000000E+00  0.00000000000E+00  0.14302238027E+03  0.14302238027E+03  0.00000000000E+00 0. -1.
         -2   -1    0    0    0  501 -0.00000000000E+00 -0.00000000000E+00 -0.10421839324E+03  0.10421839324E+03  0.00000000000E+00 0.  1.
         23    2    1    2    0    0 -0.28420141182E+02  0.43039948628E+02  0.43370036655E+02  0.14200778585E+03  0.12500043824E+03 0.  0.
          5    1    3    3  502    0 -0.50402144993E+02  0.77436637253E+02  0.39961649484E+02  0.10077615015E+03  0.47000000000E+01 0. -1.
         -5    1    3    3    0  502  0.21982003812E+02 -0.34396688625E+02  0.34083871711E+01  0.41231635707E+02  0.47000000000E+01 0. -1.
        -11    1    1    2    0    0 -0.83372087830E+01 -0.34514694308E+02 -0.39989092304E+02  0.53478039201E+02  0.00000000000E+00 0.  1.
         11    1    1    2    0    0  0.36757349965E+02 -0.85252543205E+01  0.35423042678E+02  0.51754948461E+02  0.00000000000E+00 0. -1.
<mgrwt>
<rscale>  0 0.12697655E+03</rscale>
<asrwt>0</asrwt>
<pdfrwt beam="1">  1        2 0.22003443E-01 0.13522297E+03</pdfrwt>
<pdfrwt beam="2">  1       -2 0.16033599E-01 0.13522297E+03</pdfrwt>
<totfact> 0.72141854E+03</totfact>
</mgrwt>
</event>
<event>
 7    1  0.8712071E-006  0.1551372E+03  0.7546771E-02  0.1203791E+00
         -1   -1    0    0    0  501 -0.00000000000E+00  0.00000000000E+00  0.39184918772E+02  0.39184918772E+02  0.00000000000E+00 0.  1.
          1   -1    0    0  501    0  0.00000000000E+00 -0.00000000000E+00 -0.63967204400E+03  0.63967204400E+03  0.00000000000E+00 0. -1.
         23    2    1    2    0    0 -0.65697891668E+02 -0.64196747123E+02 -0.16951214243E+03  0.22978667036E+03  0.12502044686E+03 0.  0.
          5    1    3    3  502    0  0.68122971598E+01  0.31077564178E+02 -0.18816574439E+02  0.37260916003E+02  0.47000000000E+01 0. -1.
         -5    1    3    3    0  502 -0.72510188828E+02 -0.95274311300E+02 -0.15069556799E+03  0.19252575435E+03  0.47000000000E+01 0. -1.
        -11    1    1    2    0    0  0.62081803262E+02  0.84323532126E+02 -0.33686598559E+03  0.35276522024E+03  0.00000000000E+00 0. -1.
         11    1    1    2    0    0  0.36160884063E+01 -0.20126785004E+02 -0.94108997210E+02  0.96305072170E+02  0.00000000000E+00 0.  1.
<mgrwt>
<rscale>  0 0.14733157E+03</rscale>
<asrwt>0</asrwt>
<pdfrwt beam="2">  1        1 0.98411072E-01 0.15513719E+03</pdfrwt>
<pdfrwt beam="1">  1       -1 0.60284498E-02 0.15513719E+03</pdfrwt>
<totfact> 0.41626230E+03</totfact>
</mgrwt>
</event>
<event>
 7    1  0.8712071E-006  0.1458196E+03  0.7546771E-02  0.1214868E+00
          2   -1    0    0  501    0  0.00000000000E+00  0.00000000000E+00  0.23361259078E+03  0.23361259078E+03  0.00000000000E+00 0. -1.
         -2   -1    0    0    0  501 -0.00000000000E+00 -0.00000000000E+00 -0.76368978179E+02  0.76368978179E+02  0.00000000000E+00 0.  1.
         23    2    1    2    0    0 -0.54050954645E+02 -0.52126650894E+02  0.70430392471E+02  0.16193762316E+03  0.12499864072E+03 0.  0.
          5    1    3    3  502    0 -0.37396987114E+02  0.20719158521E+02  0.75501715760E+02  0.86893137000E+02  0.47000000000E+01 0.  1.
         -5    1    3    3    0  502 -0.16653967531E+02 -0.72845809414E+02 -0.50713232889E+01  0.75044486164E+02  0.47000000000E+01 0.  1.
        -11    1    1    2    0    0 -0.22207778775E+02  0.31349959177E+02  0.43043988055E+02  0.57695669562E+02  0.00000000000E+00 0.  1.
         11    1    1    2    0    0  0.76258733420E+02  0.20776691717E+02  0.43769232073E+02  0.90348276231E+02  0.00000000000E+00 0. -1.
<mgrwt>
<rscale>  0 0.13886205E+03</rscale>
<asrwt>0</asrwt>
<pdfrwt beam="1">  1        2 0.35940398E-01 0.14581959E+03</pdfrwt>
<pdfrwt beam="2">  1       -2 0.11749074E-01 0.14581959E+03</pdfrwt>
<totfact> 0.70217760E+03</totfact>
</mgrwt>
</event>
<event>
 7    1  0.8712071E-006  0.1386405E+03  0.7546771E-02  0.1227713E+00
          2   -1    0    0  501    0  0.00000000000E+00  0.00000000000E+00  0.33047488437E+03  0.33047488437E+03  0.00000000000E+00 0. -1.
         -2   -1    0    0    0  501 -0.00000000000E+00 -0.00000000000E+00 -0.51102442407E+02  0.51102442407E+02  0.00000000000E+00 0.  1.
         23    2    1    2    0    0  0.15900378039E+02  0.57814604930E+02  0.93242088253E+02  0.16707865883E+03  0.12500336256E+03 0.  0.
          5    1    3    3  502    0  0.44366099627E+02  0.85917393997E+02  0.76808399489E+02  0.12357900153E+03  0.47000000000E+01 0. -1.
         -5    1    3    3    0  502 -0.28465721587E+02 -0.28102789067E+02  0.16433688764E+02  0.43499657300E+02  0.47000000000E+01 0. -1.
        -11    1    1    2    0    0  0.19050681415E+02 -0.64083784261E+02  0.14797326609E+03  0.16237532862E+03  0.00000000000E+00 0. -1.
         11    1    1    2    0    0 -0.34951059454E+02  0.62691793310E+01  0.38157087613E+02  0.52123339317E+02  0.00000000000E+00 0.  1.
<mgrwt>
<rscale>  0 0.12982688E+03</rscale>
<asrwt>0</asrwt>
<pdfrwt beam="1">  1        2 0.50842288E-01 0.13864051E+03</pdfrwt>
<pdfrwt beam="2">  1       -2 0.78619144E-02 0.13864051E+03</pdfrwt>
<totfact> 0.90863249E+03</totfact>
</mgrwt>
</event>
<event>
 7    1  0.8712071E-006  0.1439138E+03  0.7546771E-02  0.1219678E+00
         -3   -1    0    0    0  501 -0.00000000000E+00  0.00000000000E+00  0.64225345575E+02  0.64225345575E+02  0.00000000000E+00 0.  1.
          3   -1    0    0  501    0  0.00000000000E+00 -0.00000000000E+00 -0.29580621329E+03  0.29580621329E+03  0.00000000000E+00 0. -1.
         23    2    1    2    0    0 -0.63923091449E+00  0.71312197814E+02 -0.62668660459E+02  0.15696670171E+03  0.12500138507E+03 0.  0.
          5    1    3    3  502    0 -0.39738230720E+02 -0.18622868652E+02 -0.30508756869E+02  0.53654566099E+02  0.47000000000E+01 0. -1.
         -5    1    3    3    0  502  0.39098999806E+02  0.89935066466E+02 -0.32159903590E+02  0.10331213561E+03  0.47000000000E+01 0. -1.
        -11    1    1    2    0    0  0.37700640604E+02 -0.64954904435E+02 -0.11355943461E+03  0.13614779874E+03  0.00000000000E+00 0. -1.
         11    1    1    2    0    0 -0.37061409689E+02 -0.63572933791E+01 -0.55352772639E+02  0.66917058409E+02  0.00000000000E+00 0.  1.
<mgrwt>
<rscale>  0 0.13538465E+03</rscale>
<asrwt>0</asrwt>
<pdfrwt beam="2">  1        3 0.45508649E-01 0.14391381E+03</pdfrwt>
<pdfrwt beam="1">  1       -3 0.98808222E-02 0.14391381E+03</pdfrwt>
<totfact> 0.84591167E+02</totfact>
</mgrwt>
</event>
<event>
 7    1  0.8712071E-006  0.1618217E+03  0.7546771E-02  0.1194467E+00
         -2   -1    0    0    0  501 -0.00000000000E+00  0.00000000000E+00  0.18890355143E+02  0.18890355143E+02  0.00000000000E+00 0.  1.
          2   -1    0    0  501    0  0.00000000000E+00 -0.00000000000E+00 -0.11857205110E+04  0.11857205110E+04  0.00000000000E+00 0. -1.
         23    2    1    2    0    0  0.19658388223E+02  0.10086647663E+03 -0.57709355397E+03  0.59935234377E+03  0.12500305443E+03 0.  0.
          5    1    3    3  502    0  0.41370135816E+02  0.11428202931E+03 -0.54327554057E+03  0.55672459380E+03  0.47000000000E+01 0.  1.
         -5    1    3    3    0  502 -0.21711747593E+02 -0.13415552683E+02 -0.33818013406E+02  0.42627749977E+02  0.47000000000E+01 0.  1.
        -11    1    1    2    0    0 -0.52488614086E+02 -0.36938468020E+02 -0.29217833809E+03  0.29914492520E+03  0.00000000000E+00 0.  1.
         11    1    1    2    0    0  0.32830225862E+02 -0.63928008609E+02 -0.29755826382E+03  0.30611359719E+03  0.00000000000E+00 0. -1.
<mgrwt>
<rscale>  0 0.15499458E+03</rscale>
<asrwt>0</asrwt>
<pdfrwt beam="2">  1        2 0.18241849E+00 0.16182170E+03</pdfrwt>
<pdfrwt beam="1">  1       -2 0.29062093E-02 0.16182170E+03</pdfrwt>
<totfact> 0.88484984E+03</totfact>
</mgrwt>
</event>
<event>
 7    1  0.8712071E-006  0.1333419E+03  0.7546771E-02  0.1234347E+00
         -2   -1    0    0    0  501 -0.00000000000E+00  0.00000000000E+00  0.16234544360E+02  0.16234544360E+02  0.00000000000E+00 0. -1.
          2   -1    0    0  501    0  0.00000000000E+00 -0.00000000000E+00 -0.87198403219E+03  0.87198403219E+03  0.00000000000E+00 0.  1.
         23    2    1    2    0    0 -0.66739004104E+01  0.45961220002E+02 -0.46656429719E+03  0.48524459594E+03  0.12499239889E+03 0.  0.
          5    1    3    3  502    0  0.31545410007E+01  0.87578809219E+02 -0.26547960975E+03  0.27960957091E+03  0.47000000000E+01 0. -1.
         -5    1    3    3    0  502 -0.98284414111E+01 -0.41617589216E+02 -0.20108468744E+03  0.20563502502E+03  0.47000000000E+01 0. -1.
        -11    1    1    2    0    0  0.46560991702E+02 -0.43763313157E+02 -0.21680566080E+03  0.22602621105E+03  0.00000000000E+00 0. -1.
         11    1    1    2    0    0 -0.39887091292E+02 -0.21979068453E+01 -0.17237952983E+03  0.17694776956E+03  0.00000000000E+00 0.  1.
<mgrwt>
<rscale>  0 0.12546351E+03</rscale>
<asrwt>0</asrwt>
<pdfrwt beam="2">  1        2 0.13415139E+00 0.13334195E+03</pdfrwt>
<pdfrwt beam="1">  1       -2 0.24976222E-02 0.13334195E+03</pdfrwt>
<totfact> 0.16792299E+04</totfact>
</mgrwt>
</event>
<event>
 7    1  0.8712071E-006  0.1250743E+03  0.7546771E-02  0.1252191E+00
         -2   -1    0    0    0  501 -0.00000000000E+00  0.00000000000E+00  0.61384728216E+02  0.61384728216E+02  0.00000000000E+00 0.  1.
          2   -1    0    0  501    0  0.00000000000E+00 -0.00000000000E+00 -0.26809483784E+03  0.26809483784E+03  0.00000000000E+00 0. -1.
         23    2    1    2    0    0  0.38665207065E+01 -0.23752146031E+01 -0.25144972949E+02  0.12757682141E+03  0.12499193601E+03 0.  0.
          5    1    3    3  502    0  0.57484101770E+02 -0.29520840414E+02 -0.12747438899E+02  0.66034000133E+02  0.47000000000E+01 0. -1.
         -5    1    3    3    0  502 -0.53617581064E+02  0.27145625811E+02 -0.12397534049E+02  0.61542821273E+02  0.47000000000E+01 0. -1.
        -11    1    1    2    0    0 -0.75980481545E+01 -0.41806053133E+02 -0.10732448415E+03  0.11542972456E+03  0.00000000000E+00 0. -1.
         11    1    1    2    0    0  0.37315274480E+01  0.44181267736E+02 -0.74240652527E+02  0.86473020090E+02  0.00000000000E+00 0.  1.
<mgrwt>
<rscale>  0 0.11465147E+03</rscale>
<asrwt>0</asrwt>
<pdfrwt beam="2">  1        2 0.41245360E-01 0.12507428E+03</pdfrwt>
<pdfrwt beam="1">  1       -2 0.94438042E-02 0.12507428E+03</pdfrwt>
<totfact> 0.84684796E+03</totfact>
</mgrwt>
</event>
<event>
 7    1  0.8712071E-006  0.1318049E+03  0.7546771E-02  0.1238427E+00
         -2   -1    0    0    0  501 -0.00000000000E+00  0.00000000000E+00  0.57964368105E+02  0.57964368105E+02  0.00000000000E+00 0.  1.
          2   -1    0    0  501    0  0.00000000000E+00 -0.00000000000E+00 -0.27755805229E+03  0.27755805229E+03  0.00000000000E+00 0. -1.
         23    2    1    2    0    0 -0.31404196091E+02 -0.27581043103E+02 -0.54278048559E+02  0.14254342726E+03  0.12500233850E+03 0.  0.
          5    1    3    3  502    0  0.33256435652E+02  0.69461651557E+01  0.18646578324E+02  0.39038757739E+02  0.47000000000E+01 0. -1.
         -5    1    3    3    0  502 -0.64660631743E+02 -0.34527208259E+02 -0.72924626883E+02  0.10350466953E+03  0.47000000000E+01 0. -1.
        -11    1    1    2    0    0  0.59394767887E+02  0.11722589048E+02 -0.70888078108E+02  0.93221656090E+02  0.00000000000E+00 0.  1.
         11    1    1    2    0    0 -0.27990571796E+02  0.15858454055E+02 -0.94427557521E+02  0.99757337043E+02  0.00000000000E+00 0. -1.
<mgrwt>
<rscale>  0 0.12287590E+03</rscale>
<asrwt>0</asrwt>
<pdfrwt beam="2">  1        2 0.42701239E-01 0.13180486E+03</pdfrwt>
<pdfrwt beam="1">  1       -2 0.89175951E-02 0.13180486E+03</pdfrwt>
<totfact> 0.89609916E+03</totfact>
</mgrwt>
</event>
<event>
 7    1  0.8712071E-006  0.1261993E+03  0.7546771E-02  0.1251372E+00
          2   -1    0    0  501    0  0.00000000000E+00  0.00000000000E+00  0.58981204027E+03  0.58981204027E+03  0.00000000000E+00 0. -1.
         -2   -1    0    0    0  501 -0.00000000000E+00 -0.00000000000E+00 -0.19378309308E+02  0.19378309308E+02  0.00000000000E+00 0.  1.
         23    2    1    2    0    0  0.13140372036E+02 -0.11356065626E+02  0.32291275995E+03  0.34669714641E+03  0.12499852475E+03 0.  0.
          5    1    3    3  502    0  0.35432801419E+01 -0.11280922046E+02 -0.83776215253E+01  0.15234453676E+02  0.47000000000E+01 0.  1.
         -5    1    3    3    0  502  0.95970918946E+01 -0.75143580072E-01  0.33129038147E+03  0.33146269274E+03  0.47000000000E+01 0.  1.
        -11    1    1    2    0    0 -0.34325116268E+02  0.30696719448E+02  0.78131115751E+02  0.90691639307E+02  0.00000000000E+00 0.  1.
         11    1    1    2    0    0  0.21184744231E+02 -0.19340653821E+02  0.16938985526E+03  0.17180156386E+03  0.00000000000E+00 0. -1.
<mgrwt>
<rscale>  0 0.11512013E+03</rscale>
<asrwt>0</asrwt>
<pdfrwt beam="1">  1        2 0.90740300E-01 0.12619929E+03</pdfrwt>
<pdfrwt beam="2">  1       -2 0.29812788E-02 0.12619929E+03</pdfrwt>
<totfact> 0.20618882E+04</totfact>
</mgrwt>
</event>
<event>
 6    1  0.8712071E-006  0.2346427E+03  0.7546771E-02  0.1147495E+00
         -2   -1    0    0    0  501 -0.00000000000E+00  0.00000000000E+00  0.10663780767E+03  0.10663780767E+03  0.00000000000E+00 0.  1.
          2   -1    0    0  501    0  0.00000000000E+00 -0.00000000000E+00 -0.55333693598E+03  0.55333693598E+03  0.00000000000E+00 0. -1.
          5    1    1    2  502    0 -0.93539177933E+02  0.90223612212E+02 -0.32059934094E+02  0.13393956616E+03  0.47000000000E+01 0. -1.
         -5    1    1    2    0  502  0.10409367030E+03  0.42682566516E+01 -0.14719588543E+02  0.10532077904E+03  0.47000000000E+01 0.  1.
        -11    1    1    2    0    0  0.30701757525E+02 -0.46777885652E+02 -0.10348506428E+03  0.11764321923E+03  0.00000000000E+00 0.  1.
         11    1    1    2    0    0 -0.41256249888E+02 -0.47713983211E+02 -0.29643454139E+03  0.30307117923E+03  0.00000000000E+00 0. -1.
<mgrwt>
<rscale>  0 0.20268344E+03</rscale>
<asrwt>0</asrwt>
<pdfrwt beam="2">  1        2 0.85128759E-01 0.23464268E+03</pdfrwt>
<pdfrwt beam="1">  1       -2 0.16405817E-01 0.23464268E+03</pdfrwt>
<totfact> 0.16291934E+03</totfact>
</mgrwt>
</event>
<event>
 7    1  0.8712071E-006  0.1250375E+03  0.7546771E-02  0.1250689E+00
         -2   -1    0    0    0  501 -0.00000000000E+00  0.00000000000E+00  0.34477905544E+02  0.34477905544E+02  0.00000000000E+00 0.  1.
          2   -1    0    0  501    0  0.00000000000E+00 -0.00000000000E+00 -0.38494994759E+03  0.38494994759E+03  0.00000000000E+00 0. -1.
         23    2    1    2    0    0 -0.24082967605E+01  0.18444349792E+01 -0.12753014185E+03  0.17860099085E+03  0.12500070006E+03 0.  0.
          5    1    3    3  502    0 -0.15805155455E+02 -0.57333704876E+02 -0.39376898513E+02  0.71481373730E+02  0.47000000000E+01 0.  1.
         -5    1    3    3    0  502  0.13396858694E+02  0.59178139856E+02 -0.88153243341E+02  0.10711961712E+03  0.47000000000E+01 0.  1.
        -11    1    1    2    0    0 -0.28974621077E+02 -0.17366872961E+02 -0.18923527514E+03  0.19222675750E+03  0.00000000000E+00 0. -1.
         11    1    1    2    0    0  0.31382917837E+02  0.15522437982E+02 -0.33706625057E+02  0.48600104790E+02  0.00000000000E+00 0.  1.
<mgrwt>
<rscale>  0 0.11551248E+03</rscale>
<asrwt>0</asrwt>
<pdfrwt beam="2">  1        2 0.59223066E-01 0.12503750E+03</pdfrwt>
<pdfrwt beam="1">  1       -2 0.53042934E-02 0.12503750E+03</pdfrwt>
<totfact> 0.13953993E+04</totfact>
</mgrwt>
</event>
<event>
 7    1  0.1178385E-005  0.1837080E+03  0.7546771E-02  0.1169364E+00
          1   -1    0    0  501    0  0.00000000000E+00  0.00000000000E+00  0.66282043809E+03  0.66282043809E+03  0.00000000000E+00 0. -1.
         -1   -1    0    0    0  501 -0.00000000000E+00 -0.00000000000E+00 -0.46492232719E+02  0.46492232719E+02  0.00000000000E+00 0.  1.
         23    2    1    2    0    0 -0.10058995827E+03  0.89470929155E+02  0.27241797340E+03  0.32857292350E+03  0.12500090781E+03 0.  0.
          5    1    3    3  502    0 -0.21630199960E+01 -0.25227920403E+02  0.78809480889E+02  0.82910499343E+02  0.47000000000E+01 0. -1.
         -5    1    3    3    0  502 -0.98426938274E+02  0.11469884956E+03  0.19360849251E+03  0.24566242415E+03  0.47000000000E+01 0. -1.
        -11    1    1    2    0    0  0.93986058518E+02 -0.44013379624E+02  0.29899862477E+03  0.31649760567E+03  0.00000000000E+00 0. -1.
         11    1    1    2    0    0  0.66038997521E+01 -0.45457549531E+02  0.44911607198E+02  0.64242141639E+02  0.00000000000E+00 0.  1.
<mgrwt>
<rscale>  0 0.17839658E+03</rscale>
<asrwt>0</asrwt>
<pdfrwt beam="1">  1        1 0.10197237E+00 0.18370796E+03</pdfrwt>
<pdfrwt beam="2">  1       -1 0.71526517E-02 0.18370796E+03</pdfrwt>
<totfact> 0.30802724E+03</totfact>
</mgrwt>
</event>
<event>
 7    1  0.8712071E-006  0.2525091E+03  0.7546771E-02  0.1114071E+00
         -1   -1    0    0    0  501 -0.00000000000E+00  0.00000000000E+00  0.83301445105E+02  0.83301445105E+02  0.00000000000E+00 0.  1.
          1   -1    0    0  501    0  0.00000000000E+00 -0.00000000000E+00 -0.73365036842E+03  0.73365036842E+03  0.00000000000E+00 0. -1.
         23    2    1    2    0    0 -0.17451882146E+03 -0.13296207733E+03 -0.38618825491E+03  0.46141328854E+03  0.12500048623E+03 0.  0.
          5    1    3    3  502    0 -0.63619683615E+02 -0.55180332982E+01 -0.38211041663E+02  0.74565987820E+02  0.47000000000E+01 0. -1.
         -5    1    3    3    0  502 -0.11089913785E+03 -0.12744404404E+03 -0.34797721324E+03  0.38684730072E+03  0.47000000000E+01 0. -1.
        -11    1    1    2    0    0  0.79469159708E+02  0.39535385084E+02 -0.17183621480E+03  0.19340651162E+03  0.00000000000E+00 0. -1.
         11    1    1    2    0    0  0.95049661757E+02  0.93426692250E+02 -0.92324453604E+02  0.16213201337E+03  0.00000000000E+00 0.  1.
<mgrwt>
<rscale>  0 0.24879150E+03</rscale>
<asrwt>0</asrwt>
<pdfrwt beam="2">  1        1 0.11286929E+00 0.25250912E+03</pdfrwt>
<pdfrwt beam="1">  1       -1 0.12815607E-01 0.25250912E+03</pdfrwt>
<totfact> 0.10871802E+03</totfact>
</mgrwt>
</event>
<event>
 7    1  0.8712071E-006  0.1283846E+03  0.7546771E-02  0.1244540E+00
         -1   -1    0    0    0  501 -0.00000000000E+00  0.00000000000E+00  0.18170442327E+02  0.18170442327E+02  0.00000000000E+00 0.  1.
          1   -1    0    0  501    0  0.00000000000E+00 -0.00000000000E+00 -0.69214181554E+03  0.69214181554E+03  0.00000000000E+00 0. -1.
         23    2    1    2    0    0  0.27364401671E+02 -0.10403743915E+02 -0.35846938363E+03  0.38076619571E+03  0.12500219370E+03 0.  0.
          5    1    3    3  502    0 -0.32787914511E+02 -0.11752460585E+02 -0.27782988365E+03  0.28004410709E+03  0.47000000000E+01 0. -1.
         -5    1    3    3    0  502  0.60152316182E+02  0.13487166701E+01 -0.80639499974E+02  0.10072208861E+03  0.47000000000E+01 0. -1.
        -11    1    1    2    0    0  0.16075099113E+02  0.36475078954E+02 -0.90144884874E+02  0.98564397554E+02  0.00000000000E+00 0.  1.
         11    1    1    2    0    0 -0.43439500785E+02 -0.26071335039E+02 -0.22535710471E+03  0.23098166460E+03  0.00000000000E+00 0. -1.
<mgrwt>
<rscale>  0 0.11912976E+03</rscale>
<asrwt>0</asrwt>
<pdfrwt beam="2">  1        1 0.10648334E+00 0.12838457E+03</pdfrwt>
<pdfrwt beam="1">  1       -1 0.27954532E-02 0.12838457E+03</pdfrwt>
<totfact> 0.11424089E+04</totfact>
</mgrwt>
</event>
<event>
 7    1  0.8712071E-006  0.1483043E+03  0.7546771E-02  0.1211711E+00
          1   -1    0    0  501    0  0.00000000000E+00  0.00000000000E+00  0.27687275367E+02  0.27687275367E+02  0.00000000000E+00 0. -1.
         -1   -1    0    0    0  501 -0.00000000000E+00 -0.00000000000E+00 -0.67555433180E+03  0.67555433180E+03  0.00000000000E+00 0.  1.
         23    2    1    2    0    0  0.79789951295E+02  0.16027749571E+01 -0.40922861317E+03  0.43527258200E+03  0.12500063034E+03 0.  0.
          5    1    3    3  502    0  0.35177361377E+02 -0.40670980258E+02 -0.60254991536E+02  0.80897029572E+02  0.47000000000E+01 0.  1.
         -5    1    3    3    0  502  0.44612589918E+02  0.42273755215E+02 -0.34897362163E+03  0.35437555242E+03  0.47000000000E+01 0.  1.
        -11    1    1    2    0    0  0.13849732837E+02  0.20912112015E+02 -0.39983615579E+02  0.47199799188E+02  0.00000000000E+00 0. -1.
         11    1    1    2    0    0 -0.93639684132E+02 -0.22514886973E+02 -0.19865482769E+03  0.22076922599E+03  0.00000000000E+00 0.  1.
<mgrwt>
<rscale>  0 0.14120963E+03</rscale>
<asrwt>0</asrwt>
<pdfrwt beam="1">  1        1 0.42595810E-02 0.14830429E+03</pdfrwt>
<pdfrwt beam="2">  1       -1 0.10393143E+00 0.14830429E+03</pdfrwt>
<totfact> 0.18774243E+03</totfact>
</mgrwt>
</event>
<event>
 6    1  0.8712071E-006  0.1450218E+03  0.7546771E-02  0.1228203E+00
          2   -1    0    0  501    0  0.00000000000E+00  0.00000000000E+00  0.22989978720E+03  0.22989978720E+03  0.00000000000E+00 0. -1.
         -2   -1    0    0    0  501 -0.00000000000E+00 -0.00000000000E+00 -0.12124356346E+03  0.12124356346E+03  0.00000000000E+00 0.  1.
          5    1    1    2  502    0 -0.37334684548E+02  0.67969882660E+02 -0.14913761764E+02  0.79109379399E+02  0.47000000000E+01 0. -1.
         -5    1    1    2    0  502  0.33768043217E+02 -0.53045838371E+02 -0.46655826346E+02  0.78441046928E+02  0.47000000000E+01 0.  1.
        -11    1    1    2    0    0  0.36267409302E+02  0.22330196330E+02  0.75759250215E+02  0.86910451838E+02  0.00000000000E+00 0. -1.
         11    1    1    2    0    0 -0.32700767971E+02 -0.37254240619E+02  0.94466561633E+02  0.10668247249E+03  0.00000000000E+00 0.  1.
<mgrwt>
<rscale>  0 0.12949746E+03</rscale>
<asrwt>0</asrwt>
<pdfrwt beam="1">  1        2 0.35369198E-01 0.14502180E+03</pdfrwt>
<pdfrwt beam="2">  1       -2 0.18652856E-01 0.14502180E+03</pdfrwt>
<totfact> 0.33535585E+03</totfact>
</mgrwt>
</event>
<event>
 7    1  0.8712071E-006  0.1970773E+03  0.7546771E-02  0.1156665E+00
         -2   -1    0    0    0  501 -0.00000000000E+00  0.00000000000E+00  0.10043514328E+03  0.10043514328E+03  0.00000000000E+00 0.  1.
          2   -1    0    0  501    0  0.00000000000E+00 -0.00000000000E+00 -0.37088771984E+03  0.37088771984E+03  0.00000000000E+00 0. -1.
         23    2    1    2    0    0  0.10936183875E+03  0.10608315378E+03 -0.85158182148E+02  0.21468898987E+03  0.12500319633E+03 0.  0.
          5    1    3    3  502    0 -0.12114607153E+02  0.26103641979E+02 -0.60413845374E+02  0.67082684382E+02  0.47000000000E+01 0.  1.
         -5    1    3    3    0  502  0.12147644590E+03  0.79979511802E+02 -0.24744336774E+02  0.14760630549E+03  0.47000000000E+01 0.  1.
        -11    1    1    2    0    0 -0.79498651319E+02 -0.77494950881E+02 -0.63240833656E+02  0.12776895560E+03  0.00000000000E+00 0.  1.
         11    1    1    2    0    0 -0.29863187428E+02 -0.28588202900E+02 -0.12205356075E+03  0.12886491765E+03  0.00000000000E+00 0. -1.
<mgrwt>
<rscale>  0 0.19200503E+03</rscale>
<asrwt>0</asrwt>
<pdfrwt beam="2">  1        2 0.57059650E-01 0.19707726E+03</pdfrwt>
<pdfrwt beam="1">  1       -2 0.15451560E-01 0.19707726E+03</pdfrwt>
<totfact> 0.27863663E+03</totfact>
</mgrwt>
</event>
<event>
 7    1  0.9454341E-006  0.2292303E+03  0.7546771E-02  0.1130243E+00
          2   -1    0    0  501    0  0.00000000000E+00  0.00000000000E+00  0.14045746267E+04  0.14045746267E+04  0.00000000000E+00 0. -1.
         -2   -1    0    0    0  501 -0.00000000000E+00 -0.00000000000E+00 -0.35662743488E+02  0.35662743488E+02  0.00000000000E+00 0.  1.
         23    2    1    2    0    0  0.19117161632E+03 -0.19357821679E+02  0.59415904121E+03  0.63684494589E+03  0.12500082683E+03 0.  0.
          5    1    3    3  502    0  0.78649624209E+02  0.19207234311E+02  0.10103567558E+03  0.12955685616E+03  0.47000000000E+01 0. -1.
         -5    1    3    3    0  502  0.11252199211E+03 -0.38565055990E+02  0.49312336562E+03  0.50728808972E+03  0.47000000000E+01 0. -1.
        -11    1    1    2    0    0 -0.90221060289E+01  0.25601884077E+02  0.61544349219E+02  0.67264862939E+02  0.00000000000E+00 0.  1.
         11    1    1    2    0    0 -0.18214951029E+03 -0.62440623979E+01  0.71320849275E+03  0.73612756132E+03  0.00000000000E+00 0. -1.
<mgrwt>
<rscale>  0 0.22495372E+03</rscale>
<asrwt>0</asrwt>
<pdfrwt beam="1">  1        2 0.21608836E+00 0.22923027E+03</pdfrwt>
<pdfrwt beam="2">  1       -2 0.54865770E-02 0.22923027E+03</pdfrwt>
<totfact> 0.26084519E+03</totfact>
</mgrwt>
</event>
<event>
 7    1  0.8712071E-006  0.1227340E+03  0.7546771E-02  0.1245860E+00
          1   -1    0    0  501    0  0.00000000000E+00  0.00000000000E+00  0.24723709042E+03  0.24723709042E+03  0.00000000000E+00 0. -1.
         -1   -1    0    0    0  501 -0.00000000000E+00 -0.00000000000E+00 -0.91137060717E+02  0.91137060717E+02  0.00000000000E+00 0.  1.
         23    2    1    2    0    0 -0.66558202581E+01 -0.50084618024E+02 -0.28010203937E+02  0.12588962963E+03  0.11185194865E+03 0.  0.
          5    1    3    3  502    0  0.24223399753E+02 -0.20826288401E+02  0.36336362453E+02  0.48609964210E+02  0.47000000000E+01 0. -1.
         -5    1    3    3    0  502 -0.30879220011E+02 -0.29258329623E+02 -0.64346566390E+02  0.77279665417E+02  0.47000000000E+01 0.  1.
        -11    1    1    2    0    0 -0.11926920405E+02  0.73481347478E+02  0.11260115066E+03  0.13498436571E+03  0.00000000000E+00 0. -1.
         11    1    1    2    0    0  0.18582740663E+02 -0.23396729453E+02  0.71509082981E+02  0.77500155796E+02  0.00000000000E+00 0.  1.
<mgrwt>
<rscale>  0 0.11834028E+03</rscale>
<asrwt>0</asrwt>
<pdfrwt beam="1">  1        1 0.38036475E-01 0.12273397E+03</pdfrwt>
<pdfrwt beam="2">  1       -1 0.14021086E-01 0.12273397E+03</pdfrwt>
<totfact> 0.38401163E+03</totfact>
</mgrwt>
</event>
<event>
 7    1  0.8712071E-006  0.3559568E+03  0.7546771E-02  0.1060196E+00
          1   -1    0    0  501    0  0.00000000000E+00  0.00000000000E+00  0.34255374541E+03  0.34255374541E+03  0.00000000000E+00 0. -1.
         -1   -1    0    0    0  501 -0.00000000000E+00 -0.00000000000E+00 -0.92471049721E+02  0.92471049721E+02  0.00000000000E+00 0.  1.
         23    2    1    2    0    0  0.68820128494E+02 -0.31121659877E+02  0.45267172528E+02  0.14603876463E+03  0.11650509030E+03 0.  0.
          5    1    3    3  502    0  0.22959908994E+02 -0.66174523802E+02  0.52519199532E+02  0.87673150627E+02  0.47000000000E+01 0. -1.
         -5    1    3    3    0  502  0.45860219500E+02  0.35052863925E+02 -0.72520270033E+01  0.58365614000E+02  0.47000000000E+01 0.  1.
        -11    1    1    2    0    0 -0.57715604001E+01  0.10096097955E+03  0.14742663330E+03  0.17877651554E+03  0.00000000000E+00 0.  1.
         11    1    1    2    0    0 -0.63048568094E+02 -0.69839319669E+02  0.57388889862E+02  0.11020951497E+03  0.00000000000E+00 0. -1.
<mgrwt>
<rscale>  0 0.35595676E+03</rscale>
<asrwt>0</asrwt>
<pdfrwt beam="1">  1        1 0.52700576E-01 0.35595676E+03</pdfrwt>
<pdfrwt beam="2">  1       -1 0.14226316E-01 0.35595676E+03</pdfrwt>
<totfact> 0.25962211E+03</totfact>
</mgrwt>
</event>
<event>
 7    1  0.8712071E-006  0.1707705E+03  0.7546771E-02  0.1183618E+00
         -3   -1    0    0    0  501 -0.00000000000E+00  0.00000000000E+00  0.62373774929E+03  0.62373774929E+03  0.00000000000E+00 0.  1.
          3   -1    0    0  501    0  0.00000000000E+00 -0.00000000000E+00 -0.74674075346E+02  0.74674075346E+02  0.00000000000E+00 0. -1.
         23    2    1    2    0    0 -0.93115231641E+01 -0.11597772134E+03  0.52120472650E+03  0.54846780064E+03  0.12500010042E+03 0.  0.
          5    1    3    3  502    0  0.57427748063E+02 -0.63385280304E+02  0.25865437657E+03  0.27246984517E+03  0.47000000000E+01 0.  1.
         -5    1    3    3    0  502 -0.66739271227E+02 -0.52592441038E+02  0.26255034993E+03  0.27599795547E+03  0.47000000000E+01 0.  1.
        -11    1    1    2    0    0 -0.22149201360E+01  0.10055094087E+03 -0.16189512875E+02  0.10187000494E+03  0.00000000000E+00 0. -1.
         11    1    1    2    0    0  0.11526443300E+02  0.15426780476E+02  0.44048460320E+02  0.48074019049E+02  0.00000000000E+00 0.  1.
<mgrwt>
<rscale>  0 0.16458294E+03</rscale>
<asrwt>0</asrwt>
<pdfrwt beam="2">  1        3 0.11488320E-01 0.17077049E+03</pdfrwt>
<pdfrwt beam="1">  1       -3 0.95959650E-01 0.17077049E+03</pdfrwt>
<totfact> 0.13975119E+02</totfact>
</mgrwt>
</event>
<event>
 7    1  0.8712071E-006  0.1588086E+03  0.7546771E-02  0.1197852E+00
          2   -1    0    0  501    0  0.00000000000E+00  0.00000000000E+00  0.48784078181E+03  0.48784078181E+03  0.00000000000E+00 0. -1.
         -2   -1    0    0    0  501 -0.00000000000E+00 -0.00000000000E+00 -0.45692010272E+02  0.45692010272E+02  0.00000000000E+00 0.  1.
         23    2    1    2    0    0  0.85591597955E+02 -0.47634950529E+02  0.18628480641E+03  0.24479012478E+03  0.12500066375E+03 0.  0.
          5    1    3    3  502    0  0.84024603569E+02 -0.46411766714E+02  0.20445539684E+03  0.22591654519E+03  0.47000000000E+01 0.  1.
         -5    1    3    3    0  502  0.15669943854E+01 -0.12231838149E+01 -0.18170590427E+02  0.18873579589E+02  0.47000000000E+01 0.  1.
        -11    1    1    2    0    0 -0.54933776239E+02  0.57906690989E+02  0.92352484140E+02  0.12206508903E+03  0.00000000000E+00 0.  1.
         11    1    1    2    0    0 -0.30657821715E+02 -0.10271740461E+02  0.16351148099E+03  0.16667757827E+03  0.00000000000E+00 0. -1.
<mgrwt>
<rscale>  0 0.15215290E+03</rscale>
<asrwt>0</asrwt>
<pdfrwt beam="1">  1        2 0.75052424E-01 0.15880861E+03</pdfrwt>
<pdfrwt beam="2">  1       -2 0.70295404E-02 0.15880861E+03</pdfrwt>
<totfact> 0.71632009E+03</totfact>
</mgrwt>
</event>
<event>
 7    1  0.8712071E-006  0.2719011E+03  0.7546771E-02  0.1102146E+00
         -1   -1    0    0    0  501 -0.00000000000E+00  0.00000000000E+00  0.25857136908E+03  0.25857136908E+03  0.00000000000E+00 0.  1.
          1   -1    0    0  501    0  0.00000000000E+00 -0.00000000000E+00 -0.27407444242E+03  0.27407444242E+03  0.00000000000E+00 0. -1.
         23    2    1    2    0    0 -0.13822010423E+03  0.19798986688E+03  0.15123467397E+02  0.27232135986E+03  0.12500167667E+03 0.  0.
          5    1    3    3  502    0 -0.83711938716E+02  0.15889779999E+03 -0.41525340148E+02  0.18439805693E+03  0.47000000000E+01 0. -1.
         -5    1    3    3    0  502 -0.54508165516E+02  0.39092066885E+02  0.56648807545E+02  0.87923302927E+02  0.47000000000E+01 0. -1.
        -11    1    1    2    0    0  0.11722307338E+03 -0.20434173859E+03 -0.21471824201E+02  0.23655408324E+03  0.00000000000E+00 0.  1.
         11    1    1    2    0    0  0.20997030856E+02  0.63518717117E+01 -0.91547165373E+01  0.23770368400E+02  0.00000000000E+00 0. -1.
<mgrwt>
<rscale>  0 0.26849137E+03</rscale>
<asrwt>0</asrwt>
<pdfrwt beam="2">  1        1 0.42165299E-01 0.27190109E+03</pdfrwt>
<pdfrwt beam="1">  1       -1 0.39780211E-01 0.27190109E+03</pdfrwt>
<totfact> 0.61497784E+02</totfact>
</mgrwt>
</event>
<event>
 7    1  0.8712071E-006  0.1828324E+03  0.7546771E-02  0.1169988E+00
          1   -1    0    0  501    0  0.00000000000E+00  0.00000000000E+00  0.34228015223E+02  0.34228015223E+02  0.00000000000E+00 0. -1.
         -1   -1    0    0    0  501 -0.00000000000E+00 -0.00000000000E+00 -0.10766479967E+04  0.10766479967E+04  0.00000000000E+00 0.  1.
         23    2    1    2    0    0 -0.74491544245E+02 -0.11069835306E+03 -0.78483682438E+03  0.80585141983E+03  0.12499821761E+03 0.  0.
          5    1    3    3  502    0 -0.32399537028E+02 -0.95060198101E+02 -0.25515122201E+03  0.27424515922E+03  0.47000000000E+01 0.  1.
         -5    1    3    3    0  502 -0.42092007217E+02 -0.15638154962E+02 -0.52968560237E+03  0.53160626061E+03  0.47000000000E+01 0.  1.
        -11    1    1    2    0    0  0.15548432129E+02  0.29793624697E+02 -0.58399596129E+01  0.34110393468E+02  0.00000000000E+00 0. -1.
         11    1    1    2    0    0  0.58943112116E+02  0.80904728366E+02 -0.25174319751E+03  0.27091419865E+03  0.00000000000E+00 0.  1.
<mgrwt>
<rscale>  0 0.17776049E+03</rscale>
<asrwt>0</asrwt>
<pdfrwt beam="1">  1        1 0.52658479E-02 0.18283235E+03</pdfrwt>
<pdfrwt beam="2">  1       -1 0.16563817E+00 0.18283235E+03</pdfrwt>
<totfact> 0.44760401E+02</totfact>
</mgrwt>
</event>
<event>
 7    1  0.8712071E-006  0.1650222E+03  0.7546771E-02  0.1189922E+00
          2   -1    0    0  501    0  0.00000000000E+00  0.00000000000E+00  0.45281747261E+03  0.45281747261E+03  0.00000000000E+00 0. -1.
         -2   -1    0    0    0  501 -0.00000000000E+00 -0.00000000000E+00 -0.62817064416E+02  0.62817064416E+02  0.00000000000E+00 0.  1.
         23    2    1    2    0    0  0.10653181827E+03 -0.16012708068E+02  0.10050920952E+03  0.19322117401E+03  0.12500754283E+03 0.  0.
          5    1    3    3  502    0  0.67838387475E+02 -0.54057903996E+02  0.98075816757E+01  0.87421864873E+02  0.47000000000E+01 0. -1.
         -5    1    3    3    0  502  0.38693430796E+02  0.38045195928E+02  0.90701627847E+02  0.10579930914E+03  0.47000000000E+01 0. -1.
        -11    1    1    2    0    0 -0.61989695377E+02 -0.33058866723E+02  0.10459469415E+03  0.12599865494E+03  0.00000000000E+00 0. -1.
         11    1    1    2    0    0 -0.44542122895E+02  0.49071574791E+02  0.18489650452E+03  0.19641470807E+03  0.00000000000E+00 0.  1.
<mgrwt>
<rscale>  0 0.15891989E+03</rscale>
<asrwt>0</asrwt>
<pdfrwt beam="1">  1        2 0.69664225E-01 0.16502218E+03</pdfrwt>
<pdfrwt beam="2">  1       -2 0.96641640E-02 0.16502218E+03</pdfrwt>
<totfact> 0.47476865E+03</totfact>
</mgrwt>
</event>
<event>
 7    1  0.8712071E-006  0.1283150E+03  0.7546771E-02  0.1233998E+00
         -1   -1    0    0    0  501 -0.00000000000E+00  0.00000000000E+00  0.13512452997E+03  0.13512452997E+03  0.00000000000E+00 0.  1.
          1   -1    0    0  501    0  0.00000000000E+00 -0.00000000000E+00 -0.11321459681E+03  0.11321459681E+03  0.00000000000E+00 0. -1.
         23    2    1    2    0    0  0.26030899392E+02  0.12750151191E+02  0.22150815509E+02  0.13021293224E+03  0.12499830005E+03 0.  0.
          5    1    3    3  502    0 -0.28401693925E+02 -0.36032303036E+02 -0.14452643730E+02  0.48331687231E+02  0.47000000000E+01 0.  1.
         -5    1    3    3    0  502  0.54432593316E+02  0.48782454227E+02  0.36603459239E+02  0.81881245006E+02  0.47000000000E+01 0.  1.
        -11    1    1    2    0    0 -0.47073396449E+02 -0.44493155558E+02  0.28148565196E+02  0.70624976228E+02  0.00000000000E+00 0.  1.
         11    1    1    2    0    0  0.21042497057E+02  0.31743004366E+02 -0.28389447548E+02  0.47501218307E+02  0.00000000000E+00 0. -1.
<mgrwt>
<rscale>  0 0.12568820E+03</rscale>
<asrwt>0</asrwt>
<pdfrwt beam="2">  1        1 0.17417630E-01 0.12831504E+03</pdfrwt>
<pdfrwt beam="1">  1       -1 0.20788389E-01 0.12831504E+03</pdfrwt>
<totfact> 0.54940187E+03</totfact>
</mgrwt>
</event>
<event>
 7    1  0.8712071E-006  0.2417008E+03  0.7546771E-02  0.1121344E+00
          2   -1    0    0  501    0  0.00000000000E+00  0.00000000000E+00  0.44213730886E+03  0.44213730886E+03  0.00000000000E+00 0. -1.
         -2   -1    0    0    0  501 -0.00000000000E+00 -0.00000000000E+00 -0.14069752719E+03  0.14069752719E+03  0.00000000000E+00 0.  1.
         23    2    1    2    0    0 -0.16520939501E+03  0.12449928561E+03  0.53933757650E+02  0.24764513126E+03  0.12500017802E+03 0.  0.
          5    1    3    3  502    0 -0.10829024155E+03  0.11806771618E+03 -0.11335506431E+02  0.16067776986E+03  0.47000000000E+01 0.  1.
         -5    1    3    3    0  502 -0.56919153452E+02  0.64315694256E+01  0.65269264080E+02  0.86967361398E+02  0.47000000000E+01 0.  1.
        -11    1    1    2    0    0  0.84716585079E+02 -0.13296067924E+02  0.12244245729E+03  0.14948525197E+03  0.00000000000E+00 0.  1.
         11    1    1    2    0    0  0.80492809927E+02 -0.11120321769E+03  0.12506356674E+03  0.18570445282E+03  0.00000000000E+00 0. -1.
<mgrwt>
<rscale>  0 0.23768600E+03</rscale>
<asrwt>0</asrwt>
<pdfrwt beam="1">  1        2 0.68021124E-01 0.24170077E+03</pdfrwt>
<pdfrwt beam="2">  1       -2 0.21645774E-01 0.24170077E+03</pdfrwt>
<totfact> 0.13078294E+03</totfact>
</mgrwt>
</event>
<event>
 7    1  0.8712071E-006  0.1418978E+03  0.7546771E-02  0.1221184E+00
          1   -1    0    0  501    0  0.00000000000E+00  0.00000000000E+00  0.28530063796E+03  0.28530063796E+03  0.00000000000E+00 0. -1.
         -1   -1    0    0    0  501 -0.00000000000E+00 -0.00000000000E+00 -0.69630171956E+02  0.69630171956E+02  0.00000000000E+00 0.  1.
         23    2    1    2    0    0  0.66849714508E+02  0.65676655477E+01  0.43380808829E+02  0.14838089152E+03  0.12499190307E+03 0.  0.
          5    1    3    3  502    0 -0.29484511927E+02  0.27447799409E+02  0.26011192073E+02  0.48180807891E+02  0.47000000000E+01 0.  1.
         -5    1    3    3    0  502  0.96334226435E+02 -0.20880133861E+02  0.17369616755E+02  0.10020008363E+03  0.47000000000E+01 0.  1.
        -11    1    1    2    0    0 -0.63946601145E+02 -0.43196853484E+02  0.11528109639E+03  0.13872587046E+03  0.00000000000E+00 0.  1.
         11    1    1    2    0    0 -0.29031133624E+01  0.36629187936E+02  0.57008560780E+02  0.67824047935E+02  0.00000000000E+00 0. -1.
<mgrwt>
<rscale>  0 0.13431904E+03</rscale>
<asrwt>0</asrwt>
<pdfrwt beam="1">  1        1 0.43892405E-01 0.14189783E+03</pdfrwt>
<pdfrwt beam="2">  1       -1 0.10712334E-01 0.14189783E+03</pdfrwt>
<totfact> 0.49153410E+03</totfact>
</mgrwt>
</event>
<event>
 7    1  0.8712071E-006  0.2158446E+03  0.7546771E-02  0.1140469E+00
          2   -1    0    0  501    0  0.00000000000E+00  0.00000000000E+00  0.88387761444E+02  0.88387761444E+02  0.00000000000E+00 0.  1.
         -2   -1    0    0    0  501 -0.00000000000E+00 -0.00000000000E+00 -0.56918495628E+03  0.56918495628E+03  0.00000000000E+00 0. -1.
         23    2    1    2    0    0 -0.16866819227E+03  0.50183419833E+02 -0.37472075221E+03  0.43244023063E+03  0.12498630413E+03 0.  0.
          5    1    3    3  502    0 -0.58606915229E+02 -0.22310901771E+02 -0.45008771721E+02  0.77333216552E+02  0.47000000000E+01 0. -1.
         -5    1    3    3    0  502 -0.11006127704E+03  0.72494321604E+02 -0.32971198049E+03  0.35510701408E+03  0.47000000000E+01 0. -1.
        -11    1    1    2    0    0  0.91011682279E+02 -0.19342408833E+02 -0.10670433605E+03  0.14157355128E+03  0.00000000000E+00 0. -1.
         11    1    1    2    0    0  0.77656509990E+02 -0.30841011000E+02  0.62789342834E+00  0.83558935809E+02  0.00000000000E+00 0.  1.
<mgrwt>
<rscale>  0 0.21139156E+03</rscale>
<asrwt>0</asrwt>
<pdfrwt beam="1">  1        2 0.13598117E-01 0.21584465E+03</pdfrwt>
<pdfrwt beam="2">  1       -2 0.87566916E-01 0.21584465E+03</pdfrwt>
<totfact> 0.50914221E+02</totfact>
</mgrwt>
</event>
<event>
 7    1  0.8712071E-006  0.1689102E+03  0.7546771E-02  0.1185923E+00
          1   -1    0    0  501    0  0.00000000000E+00  0.00000000000E+00  0.36812980219E+03  0.36812980219E+03  0.00000000000E+00 0. -1.
         -1   -1    0    0    0  501 -0.00000000000E+00 -0.00000000000E+00 -0.67053893639E+02  0.67053893639E+02  0.00000000000E+00 0.  1.
         23    2    1    2    0    0  0.11303727605E+03 -0.11316845216E+02  0.17651409409E+03  0.24431102410E+03  0.12500061729E+03 0.  0.
          5    1    3    3  502    0  0.39118108835E+02 -0.46792443152E+01  0.16420932664E+03  0.16893464630E+03  0.47000000000E+01 0.  1.
         -5    1    3    3    0  502  0.73919167217E+02 -0.66376009007E+01  0.12304767448E+02  0.75376377797E+02  0.47000000000E+01 0.  1.
        -11    1    1    2    0    0 -0.74498614669E+02 -0.33793659127E+02  0.51139121670E+02  0.96474166231E+02  0.00000000000E+00 0. -1.
         11    1    1    2    0    0 -0.38538661383E+02  0.45110504343E+02  0.73422692797E+02  0.94398505501E+02  0.00000000000E+00 0.  1.
<mgrwt>
<rscale>  0 0.16248138E+03</rscale>
<asrwt>0</asrwt>
<pdfrwt beam="1">  1        1 0.56635353E-01 0.16891019E+03</pdfrwt>
<pdfrwt beam="2">  1       -1 0.10315984E-01 0.16891019E+03</pdfrwt>
<totfact> 0.38226864E+03</totfact>
</mgrwt>
</event>
<event>
 7    1  0.8712071E-006  0.1758011E+03  0.7546771E-02  0.1177909E+00
         -1   -1    0    0    0  501 -0.00000000000E+00  0.00000000000E+00  0.39290587872E+03  0.39290587872E+03  0.00000000000E+00 0.  1.
          1   -1    0    0  501    0  0.00000000000E+00 -0.00000000000E+00 -0.69261433365E+02  0.69261433365E+02  0.00000000000E+00 0. -1.
         23    2    1    2    0    0 -0.12359868763E+03 -0.25388147085E+01  0.18683442032E+03  0.25654067556E+03  0.12499174547E+03 0.  0.
          5    1    3    3  502    0 -0.88292332118E+02  0.53692521556E+02  0.14430467912E+03  0.17755098760E+03  0.47000000000E+01 0.  1.
         -5    1    3    3    0  502 -0.35306355511E+02 -0.56231336265E+02  0.42529741204E+02  0.78989687963E+02  0.47000000000E+01 0.  1.
        -11    1    1    2    0    0  0.11197081855E+03 -0.28144014711E+02  0.81519401873E+02  0.14133280813E+03  0.00000000000E+00 0. -1.
         11    1    1    2    0    0  0.11627869078E+02  0.30682829419E+02  0.55290623166E+02  0.64293828402E+02  0.00000000000E+00 0.  1.
<mgrwt>
<rscale>  0 0.16994185E+03</rscale>
<asrwt>0</asrwt>
<pdfrwt beam="2">  1        1 0.10655605E-01 0.17580107E+03</pdfrwt>
<pdfrwt beam="1">  1       -1 0.60447057E-01 0.17580107E+03</pdfrwt>
<totfact> 0.16616858E+03</totfact>
</mgrwt>
</event>
<event>
 7    1  0.8712071E-006  0.2974424E+03  0.7546771E-02  0.1088094E+00
          1   -1    0    0  501    0  0.00000000000E+00  0.00000000000E+00  0.39003544806E+02  0.39003544806E+02  0.00000000000E+00 0. -1.
         -1   -1    0    0    0  501 -0.00000000000E+00 -0.00000000000E+00 -0.23202213215E+04  0.23202213215E+04  0.00000000000E+00 0.  1.
         23    2    1    2    0    0 -0.25335776197E+03  0.93046543431E+02 -0.14562212260E+04  0.14862880645E+04  0.12499654751E+03 0.  0.
          5    1    3    3  502    0 -0.20178628013E+03  0.12401343862E+03 -0.11375447364E+04  0.11619497206E+04  0.47000000000E+01 0. -1.
         -5    1    3    3    0  502 -0.51571481836E+02 -0.30966895192E+02 -0.31867648955E+03  0.32433834391E+03  0.47000000000E+01 0. -1.
        -11    1    1    2    0    0  0.12020343288E+03 -0.18397802783E+02 -0.48893217677E+03  0.50382736915E+03  0.00000000000E+00 0.  1.
         11    1    1    2    0    0  0.13315432909E+03 -0.74648740648E+02 -0.33606437389E+03  0.36910943260E+03  0.00000000000E+00 0. -1.
<mgrwt>
<rscale>  0 0.29436063E+03</rscale>
<asrwt>0</asrwt>
<pdfrwt beam="1">  1        1 0.60005457E-02 0.29744235E+03</pdfrwt>
<pdfrwt beam="2">  1       -1 0.35695711E+00 0.29744235E+03</pdfrwt>
<totfact> 0.21602827E+01</totfact>
</mgrwt>
</event>
<event>
 7    1  0.8712071E-006  0.3297857E+03  0.7546771E-02  0.1072518E+00
         -1   -1    0    0    0  501 -0.00000000000E+00  0.00000000000E+00  0.85541124148E+02  0.85541124148E+02  0.00000000000E+00 0.  1.
          1   -1    0    0  501    0  0.00000000000E+00 -0.00000000000E+00 -0.13193540158E+04  0.13193540158E+04  0.00000000000E+00 0. -1.
         23    2    1    2    0    0  0.84312958178E+02  0.29329967861E+03 -0.44202172198E+03  0.55149050708E+03  0.12500080121E+03 0.  0.
          5    1    3    3  502    0 -0.88319430172E+00  0.95895098821E+02 -0.60363753436E+02  0.11341306247E+03  0.47000000000E+01 0. -1.
         -5    1    3    3    0  502  0.85196152480E+02  0.19740457979E+03 -0.38165796854E+03  0.43807744460E+03  0.47000000000E+01 0. -1.
        -11    1    1    2    0    0 -0.45067093828E+02 -0.22781817655E+03 -0.49214480291E+03  0.54418624711E+03  0.00000000000E+00 0.  1.
         11    1    1    2    0    0 -0.39245864350E+02 -0.65481502056E+02 -0.29964636678E+03  0.30921838578E+03  0.00000000000E+00 0. -1.
<mgrwt>
<rscale>  0 0.32689665E+03</rscale>
<asrwt>0</asrwt>
<pdfrwt beam="2">  1        1 0.20297755E+00 0.32978565E+03</pdfrwt>
<pdfrwt beam="1">  1       -1 0.13160172E-01 0.32978565E+03</pdfrwt>
<totfact> 0.37367131E+02</totfact>
</mgrwt>
</event>
<event>
 7    1  0.8712071E-006  0.1394648E+03  0.7546771E-02  0.1223200E+00
         -2   -1    0    0    0  501 -0.00000000000E+00  0.00000000000E+00  0.15638942783E+03  0.15638942783E+03  0.00000000000E+00 0.  1.
          2   -1    0    0  501    0  0.00000000000E+00 -0.00000000000E+00 -0.12082316603E+03  0.12082316603E+03  0.00000000000E+00 0. -1.
         23    2    1    2    0    0  0.58463056749E+02 -0.20190538829E+02  0.71456142477E+02  0.15670487505E+03  0.12499940281E+03 0.  0.
          5    1    3    3  502    0  0.67736306492E+01  0.26093878421E+02  0.81929012081E+02  0.86378386092E+02  0.47000000000E+01 0. -1.
         -5    1    3    3    0  502  0.51689426100E+02 -0.46284417251E+02 -0.10472869605E+02  0.70326488953E+02  0.47000000000E+01 0. -1.
        -11    1    1    2    0    0 -0.85301668295E+02  0.94347003089E+01 -0.22995784944E+02  0.88849278608E+02  0.00000000000E+00 0.  1.
         11    1    1    2    0    0  0.26838611547E+02  0.10755838520E+02 -0.12894095732E+02  0.31658440214E+02  0.00000000000E+00 0. -1.
<mgrwt>
<rscale>  0 0.13291072E+03</rscale>
<asrwt>0</asrwt>
<pdfrwt beam="2">  1        2 0.18588179E-01 0.13946483E+03</pdfrwt>
<pdfrwt beam="1">  1       -2 0.24059912E-01 0.13946483E+03</pdfrwt>
<totfact> 0.44057065E+03</totfact>
</mgrwt>
</event>
<event>
 7    1  0.8712071E-006  0.3462969E+03  0.7546771E-02  0.1065288E+00
         -2   -1    0    0    0  501 -0.00000000000E+00  0.00000000000E+00  0.62829352554E+02  0.62829352554E+02  0.00000000000E+00 0.  1.
          2   -1    0    0  501    0  0.00000000000E+00 -0.00000000000E+00 -0.18528026283E+04  0.18528026283E+04  0.00000000000E+00 0. -1.
         23    2    1    2    0    0 -0.32289363929E+03  0.61443747423E+01 -0.86928353584E+03  0.93572186204E+03  0.12499392699E+03 0.  0.
          5    1    3    3  502    0 -0.17619020578E+02 -0.75466204314E+01 -0.70979490383E+01  0.20972654735E+02  0.47000000000E+01 0. -1.
         -5    1    3    3    0  502 -0.30527461871E+03  0.13690995174E+02 -0.86218558680E+03  0.91474920730E+03  0.47000000000E+01 0. -1.
        -11    1    1    2    0    0  0.14646780557E+03 -0.47152282606E+02 -0.44941919364E+03  0.47503028055E+03  0.00000000000E+00 0. -1.
         11    1    1    2    0    0  0.17642583372E+03  0.41007907864E+02 -0.47127054630E+03  0.50487983830E+03  0.00000000000E+00 0.  1.
<mgrwt>
<rscale>  0 0.34356323E+03</rscale>
<asrwt>0</asrwt>
<pdfrwt beam="2">  1        2 0.28504655E+00 0.34629689E+03</pdfrwt>
<pdfrwt beam="1">  1       -2 0.96660546E-02 0.34629689E+03</pdfrwt>
<totfact> 0.61696898E+02</totfact>
</mgrwt>
</event>
<event>
 7    1  0.8712071E-006  0.1437710E+03  0.7546771E-02  0.1219332E+00
          2   -1    0    0  501    0  0.00000000000E+00  0.00000000000E+00  0.11953019427E+03  0.11953019427E+03  0.00000000000E+00 0. -1.
         -2   -1    0    0    0  501 -0.00000000000E+00 -0.00000000000E+00 -0.27327074541E+03  0.27327074541E+03  0.00000000000E+00 0.  1.
         23    2    1    2    0    0 -0.63373577310E+02  0.28981650299E+02 -0.21868352597E+03  0.26171090671E+03  0.12575359957E+03 0.  0.
          5    1    3    3  502    0 -0.68153683916E+02  0.61257766587E+02 -0.88732702911E+02  0.12764411919E+03  0.47000000000E+01 0. -1.
         -5    1    3    3    0  502  0.47801066066E+01 -0.32276116287E+02 -0.12995082306E+03  0.13406678752E+03  0.47000000000E+01 0.  1.
        -11    1    1    2    0    0  0.60847213736E+02 -0.42692184334E+02  0.80925496632E+02  0.10988149083E+03  0.00000000000E+00 0.  1.
         11    1    1    2    0    0  0.25263635738E+01  0.13710534034E+02 -0.15982521796E+02  0.21208542132E+02  0.00000000000E+00 0. -1.
<mgrwt>
<rscale>  0 0.13563087E+03</rscale>
<asrwt>0</asrwt>
<pdfrwt beam="1">  1        2 0.18389261E-01 0.14377105E+03</pdfrwt>
<pdfrwt beam="2">  1       -2 0.42041653E-01 0.14377105E+03</pdfrwt>
<totfact> 0.16176957E+03</totfact>
</mgrwt>
</event>
<event>
 7    1  0.8712071E-006  0.1409257E+03  0.7546771E-02  0.1225553E+00
          1   -1    0    0  501    0  0.00000000000E+00  0.00000000000E+00  0.67187790820E+02  0.67187790820E+02  0.00000000000E+00 0. -1.
         -1   -1    0    0    0  501 -0.00000000000E+00 -0.00000000000E+00 -0.22901523503E+03  0.22901523503E+03  0.00000000000E+00 0.  1.
         23    2    1    2    0    0 -0.63053450106E+02 -0.16100964285E+02 -0.10537870353E+03  0.17596792818E+03  0.12500024789E+03 0.  0.
          5    1    3    3  502    0  0.32865222172E+02 -0.18387256383E+02 -0.72316350221E+01  0.38634189144E+02  0.47000000000E+01 0.  1.
         -5    1    3    3    0  502 -0.95918672278E+02  0.22862920979E+01 -0.98147068504E+02  0.13733373904E+03  0.47000000000E+01 0.  1.
        -11    1    1    2    0    0  0.45359213364E+02  0.33328963640E+02  0.24786473911E+01  0.56342006951E+02  0.00000000000E+00 0. -1.
         11    1    1    2    0    0  0.17694236742E+02 -0.17227999356E+02 -0.58927388080E+02  0.63893090719E+02  0.00000000000E+00 0.  1.
<mgrwt>
<rscale>  0 0.13129045E+03</rscale>
<asrwt>0</asrwt>
<pdfrwt beam="1">  1        1 0.10336583E-01 0.14092566E+03</pdfrwt>
<pdfrwt beam="2">  1       -1 0.35233113E-01 0.14092566E+03</pdfrwt>
<totfact> 0.45437903E+03</totfact>
</mgrwt>
</event>
<event>
 6    1  0.8712071E-006  0.1863610E+03  0.7546771E-02  0.1169178E+00
          1   -1    0    0  501    0  0.00000000000E+00  0.00000000000E+00  0.56683430145E+02  0.56683430145E+02  0.00000000000E+00 0. -1.
         -1   -1    0    0    0  501 -0.00000000000E+00 -0.00000000000E+00 -0.60188689653E+03  0.60188689653E+03  0.00000000000E+00 0.  1.
          5    1    1    2  502    0 -0.10316132296E+02 -0.21656387647E+02 -0.17205376368E+02  0.29892084026E+02  0.47000000000E+01 0. -1.
         -5    1    1    2    0  502  0.12907519299E+03  0.75901520973E+02 -0.39618436104E+03  0.42356296376E+03  0.47000000000E+01 0.  1.
        -11    1    1    2    0    0  0.93504511202E+01  0.82872066950E+01 -0.21478548839E+02  0.24848275417E+02  0.00000000000E+00 0.  1.
         11    1    1    2    0    0 -0.12810951181E+03 -0.62532340021E+02 -0.11033518013E+03  0.18026700347E+03  0.00000000000E+00 0. -1.
<mgrwt>
<rscale>  0 0.17858609E+03</rscale>
<asrwt>0</asrwt>
<pdfrwt beam="1">  1        1 0.87205278E-02 0.18636095E+03</pdfrwt>
<pdfrwt beam="2">  1       -1 0.92597983E-01 0.18636095E+03</pdfrwt>
<totfact> 0.91696233E+02</totfact>
</mgrwt>
</event>
<event>
 7    1  0.8712071E-006  0.1450304E+03  0.7546771E-02  0.1216507E+00
          2   -1    0    0  501    0  0.00000000000E+00  0.00000000000E+00  0.90156170897E+02  0.90156170897E+02  0.00000000000E+00 0. -1.
         -2   -1    0    0    0  501 -0.00000000000E+00 -0.00000000000E+00 -0.19291510381E+03  0.19291510381E+03  0.00000000000E+00 0.  1.
         23    2    1    2    0    0 -0.71511773471E+02  0.17212333481E+02 -0.68891910413E+02  0.16056120648E+03  0.12499443002E+03 0.  0.
          5    1    3    3  502    0  0.10551687707E+02  0.42467829847E+02  0.85565275351E+01  0.44834795069E+02  0.47000000000E+01 0.  1.
         -5    1    3    3    0  502 -0.82063461178E+02 -0.25255496366E+02 -0.77448437948E+02  0.11572641141E+03  0.47000000000E+01 0.  1.
        -11    1    1    2    0    0  0.44819211909E+02 -0.38121507324E+02  0.17119201207E+02  0.61278692273E+02  0.00000000000E+00 0. -1.
         11    1    1    2    0    0  0.26692561562E+02  0.20909173842E+02 -0.50986223711E+02  0.61231375959E+02  0.00000000000E+00 0.  1.
<mgrwt>
<rscale>  0 0.13766433E+03</rscale>
<asrwt>0</asrwt>
<pdfrwt beam="1">  1        2 0.13870180E-01 0.14503036E+03</pdfrwt>
<pdfrwt beam="2">  1       -2 0.29679246E-01 0.14503036E+03</pdfrwt>
<totfact> 0.42841830E+03</totfact>
</mgrwt>
</event>
<event>
 7    1  0.8712071E-006  0.1294369E+03  0.7546771E-02  0.1242518E+00
          1   -1    0    0  501    0  0.00000000000E+00  0.00000000000E+00  0.72024222866E+02  0.72024222866E+02  0.00000000000E+00 0. -1.
         -1   -1    0    0    0  501 -0.00000000000E+00 -0.00000000000E+00 -0.18315935459E+03  0.18315935459E+03  0.00000000000E+00 0.  1.
         23    2    1    2    0    0  0.19551606932E+02  0.27321485060E+02 -0.85405525726E+02  0.15507418887E+03  0.12500068539E+03 0.  0.
          5    1    3    3  502    0 -0.51885189323E+02  0.25050128305E+02 -0.38612837376E+02  0.69517069914E+02  0.47000000000E+01 0. -1.
         -5    1    3    3    0  502  0.71436796255E+02  0.22713567560E+01 -0.46792688350E+02  0.85557118954E+02  0.47000000000E+01 0. -1.
        -11    1    1    2    0    0  0.31094574239E+01 -0.57259069747E+02 -0.58958136095E+01  0.57645731948E+02  0.00000000000E+00 0. -1.
         11    1    1    2    0    0 -0.22661064356E+02  0.29937584686E+02 -0.19833792385E+02  0.42463656637E+02  0.00000000000E+00 0.  1.
<mgrwt>
<rscale>  0 0.12035170E+03</rscale>
<asrwt>0</asrwt>
<pdfrwt beam="1">  1        1 0.11080650E-01 0.12943686E+03</pdfrwt>
<pdfrwt beam="2">  1       -1 0.28178362E-01 0.12943686E+03</pdfrwt>
<totfact> 0.60143427E+03</totfact>
</mgrwt>
</event>
<event>
 7    1  0.8712071E-006  0.1319917E+03  0.7546771E-02  0.1239828E+00
          2   -1    0    0  501    0  0.00000000000E+00  0.00000000000E+00  0.65244765010E+02  0.65244765010E+02  0.00000000000E+00 0. -1.
         -2   -1    0    0    0  501 -0.00000000000E+00 -0.00000000000E+00 -0.21244398677E+03  0.21244398677E+03  0.00000000000E+00 0.  1.
         23    2    1    2    0    0  0.27000911940E+02  0.32677602696E+02 -0.11790699760E+03  0.17698548086E+03  0.12499970156E+03 0.  0.
          5    1    3    3  502    0 -0.21679008027E+02 -0.29277280652E+02 -0.82832553471E+02  0.90611591234E+02  0.47000000000E+01 0.  1.
         -5    1    3    3    0  502  0.48679919967E+02  0.61954883347E+02 -0.35074444124E+02  0.86373889626E+02  0.47000000000E+01 0.  1.
        -11    1    1    2    0    0 -0.28417950818E+02  0.98178485203E+01 -0.46054086338E+02  0.54999535877E+02  0.00000000000E+00 0.  1.
         11    1    1    2    0    0  0.14170388779E+01 -0.42495451216E+02  0.16761862173E+02  0.45703735042E+02  0.00000000000E+00 0. -1.
<mgrwt>
<rscale>  0 0.12200331E+03</rscale>
<asrwt>0</asrwt>
<pdfrwt beam="1">  1        2 0.10037656E-01 0.13199167E+03</pdfrwt>
<pdfrwt beam="2">  1       -2 0.32683690E-01 0.13199167E+03</pdfrwt>
<totfact> 0.52793093E+03</totfact>
</mgrwt>
</event>
<event>
 7    1  0.8712071E-006  0.1862814E+03  0.7546771E-02  0.1167018E+00
          2   -1    0    0  501    0  0.00000000000E+00  0.00000000000E+00  0.77437834581E+02  0.77437834581E+02  0.00000000000E+00 0.  1.
         -2   -1    0    0    0  501 -0.00000000000E+00 -0.00000000000E+00 -0.40395415393E+03  0.40395415393E+03  0.00000000000E+00 0. -1.
         23    2    1    2    0    0  0.34419197275E+02 -0.13376269215E+03 -0.19897989661E+03  0.27256884553E+03  0.12499454928E+03 0.  0.
          5    1    3    3  502    0 -0.22412974741E+02 -0.12500645269E+02  0.68391832030E+01  0.26971688782E+02  0.47000000000E+01 0.  1.
         -5    1    3    3    0  502  0.56832172016E+02 -0.12126204688E+03 -0.20581907981E+03  0.24559715675E+03  0.47000000000E+01 0.  1.
        -11    1    1    2    0    0 -0.49992696633E+02  0.48991539683E+02 -0.23751946693E+02  0.73916139299E+02  0.00000000000E+00 0. -1.
         11    1    1    2    0    0  0.15573499359E+02  0.84771152467E+02 -0.10378447605E+03  0.13490700368E+03  0.00000000000E+00 0.  1.
<mgrwt>
<rscale>  0 0.18081319E+03</rscale>
<asrwt>0</asrwt>
<pdfrwt beam="1">  1        2 0.11913513E-01 0.18628144E+03</pdfrwt>
<pdfrwt beam="2">  1       -2 0.62146793E-01 0.18628144E+03</pdfrwt>
<totfact> 0.12496784E+03</totfact>
</mgrwt>
</event>
<event>
 7    1  0.8712071E-006  0.1731782E+03  0.7546771E-02  0.1181591E+00
         -2   -1    0    0    0  501 -0.00000000000E+00  0.00000000000E+00  0.99491372528E+02  0.99491372528E+02  0.00000000000E+00 0.  1.
          2   -1    0    0  501    0  0.00000000000E+00 -0.00000000000E+00 -0.25893883702E+03  0.25893883702E+03  0.00000000000E+00 0. -1.
         23    2    1    2    0    0 -0.11083775711E+03  0.45585594915E+02 -0.85025969281E+02  0.19292514095E+03  0.12501055833E+03 0.  0.
          5    1    3    3  502    0 -0.83197745707E+01  0.65659659522E+02 -0.48390946103E+02  0.82122976092E+02  0.47000000000E+01 0. -1.
         -5    1    3    3    0  502 -0.10251798254E+03 -0.20074064607E+02 -0.36635023178E+02  0.11080216486E+03  0.47000000000E+01 0. -1.
        -11    1    1    2    0    0  0.27546126996E+02  0.13973576770E+02  0.10346989904E+02  0.32574685881E+02  0.00000000000E+00 0.  1.
         11    1    1    2    0    0  0.83291630119E+02 -0.59559171684E+02 -0.84768485116E+02  0.13293038271E+03  0.00000000000E+00 0. -1.
<mgrwt>
<rscale>  0 0.16645994E+03</rscale>
<asrwt>0</asrwt>
<pdfrwt beam="2">  1        2 0.39836744E-01 0.17317822E+03</pdfrwt>
<pdfrwt beam="1">  1       -2 0.15306365E-01 0.17317822E+03</pdfrwt>
<totfact> 0.41367282E+03</totfact>
</mgrwt>
</event>
<event>
 7    1  0.8712071E-006  0.1275999E+03  0.7546771E-02  0.1239774E+00
         -1   -1    0    0    0  501 -0.00000000000E+00  0.00000000000E+00  0.36837772703E+02  0.36837772703E+02  0.00000000000E+00 0.  1.
          1   -1    0    0  501    0  0.00000000000E+00 -0.00000000000E+00 -0.40759841445E+03  0.40759841445E+03  0.00000000000E+00 0. -1.
         23    2    1    2    0    0  0.56118475261E+02  0.84316431975E+01 -0.13571241572E+03  0.18627825221E+03  0.11428627036E+03 0.  0.
          5    1    3    3  502    0 -0.30904465428E+02 -0.15170144927E+02 -0.55639231911E+02  0.65597510686E+02  0.47000000000E+01 0. -1.
         -5    1    3    3    0  502  0.87022940689E+02  0.23601788125E+02 -0.80073183812E+02  0.12068074152E+03  0.47000000000E+01 0.  1.
        -11    1    1    2    0    0  0.11792830762E+01  0.30852569536E+02 -0.36502895409E+02  0.47809341438E+02  0.00000000000E+00 0.  1.
         11    1    1    2    0    0 -0.57297758337E+02 -0.39284212734E+02 -0.19854533062E+03  0.21034859351E+03  0.00000000000E+00 0. -1.
<mgrwt>
<rscale>  0 0.12203673E+03</rscale>
<asrwt>0</asrwt>
<pdfrwt beam="2">  1        1 0.62707450E-01 0.12759987E+03</pdfrwt>
<pdfrwt beam="1">  1       -1 0.56673495E-02 0.12759987E+03</pdfrwt>
<totfact> 0.81720871E+03</totfact>
</mgrwt>
</event>
<event>
 7    1  0.8712071E-006  0.1280187E+03  0.7546771E-02  0.1244945E+00
         -1   -1    0    0    0  501 -0.00000000000E+00  0.00000000000E+00  0.39200755677E+03  0.39200755677E+03  0.00000000000E+00 0.  1.
          1   -1    0    0  501    0  0.00000000000E+00 -0.00000000000E+00 -0.31860096574E+02  0.31860096574E+02  0.00000000000E+00 0. -1.
         23    2    1    2    0    0  0.77547424610E+01  0.26576193197E+02  0.21688062307E+03  0.25184519348E+03  0.12498946653E+03 0.  0.
          5    1    3    3  502    0 -0.73557583520E+01  0.75800914718E+02  0.12764890974E+03  0.14871523127E+03  0.47000000000E+01 0. -1.
         -5    1    3    3    0  502  0.15110500813E+02 -0.49224721521E+02  0.89231713330E+02  0.10312996222E+03  0.47000000000E+01 0. -1.
        -11    1    1    2    0    0 -0.48309075897E+02 -0.42480245023E+01  0.65146166119E+02  0.81214749191E+02  0.00000000000E+00 0.  1.
         11    1    1    2    0    0  0.40554333436E+02 -0.22328168695E+02  0.78120671011E+02  0.90807710669E+02  0.00000000000E+00 0. -1.
<mgrwt>
<rscale>  0 0.11888694E+03</rscale>
<asrwt>0</asrwt>
<pdfrwt beam="2">  1        1 0.49015536E-02 0.12801874E+03</pdfrwt>
<pdfrwt beam="1">  1       -1 0.60308851E-01 0.12801874E+03</pdfrwt>
<totfact> 0.46860976E+03</totfact>
</mgrwt>
</event>
<event>
 7    1  0.8712071E-006  0.2279514E+03  0.7546771E-02  0.1131315E+00
          2   -1    0    0  501    0  0.00000000000E+00  0.00000000000E+00  0.80654211533E+02  0.80654211533E+02  0.00000000000E+00 0. -1.
         -2   -1    0    0    0  501 -0.00000000000E+00 -0.00000000000E+00 -0.59672419018E+03  0.59672419018E+03  0.00000000000E+00 0.  1.
         23    2    1    2    0    0  0.18704029138E+03 -0.36750151078E+02 -0.25734986817E+03  0.34378891454E+03  0.12500887533E+03 0.  0.
          5    1    3    3  502    0  0.95911709782E+02  0.25672953686E+02 -0.18973063369E+03  0.21419140969E+03  0.47000000000E+01 0.  1.
         -5    1    3    3    0  502  0.91128581599E+02 -0.62423104764E+02 -0.67619234475E+02  0.12959750485E+03  0.47000000000E+01 0.  1.
        -11    1    1    2    0    0 -0.41438743168E+02  0.36057347210E+02 -0.30364838762E+02  0.62764043498E+02  0.00000000000E+00 0.  1.
         11    1    1    2    0    0 -0.14560154821E+03  0.69280386815E+00 -0.22835527172E+03  0.27082544367E+03  0.00000000000E+00 0. -1.
<mgrwt>
<rscale>  0 0.22347986E+03</rscale>
<asrwt>0</asrwt>
<pdfrwt beam="1">  1        2 0.12408340E-01 0.22795145E+03</pdfrwt>
<pdfrwt beam="2">  1       -2 0.91803721E-01 0.22795145E+03</pdfrwt>
<totfact> 0.51146749E+02</totfact>
</mgrwt>
</event>
<event>
 7    1  0.8712071E-006  0.1944651E+03  0.7546771E-02  0.1158946E+00
          2   -1    0    0  501    0  0.00000000000E+00  0.00000000000E+00  0.18530107136E+03  0.18530107136E+03  0.00000000000E+00 0. -1.
         -2   -1    0    0    0  501 -0.00000000000E+00 -0.00000000000E+00 -0.19666046373E+03  0.19666046373E+03  0.00000000000E+00 0.  1.
         23    2    1    2    0    0 -0.14859994191E+03 -0.10560026497E+02 -0.53613581510E+02  0.20172028574E+03  0.12499280245E+03 0.  0.
          5    1    3    3  502    0 -0.27315867122E+02  0.18995402416E+02  0.35032372541E+02  0.48542136701E+02  0.47000000000E+01 0.  1.
         -5    1    3    3    0  502 -0.12128407478E+03 -0.29555428913E+02 -0.88645954051E+02  0.15317814904E+03  0.47000000000E+01 0.  1.
        -11    1    1    2    0    0  0.15891052330E+03  0.19195725804E+02  0.31769474157E+02  0.16318801976E+03  0.00000000000E+00 0. -1.
         11    1    1    2    0    0 -0.10310581394E+02 -0.86356993070E+01  0.10484714979E+02  0.17053229588E+02  0.00000000000E+00 0.  1.
<mgrwt>
<rscale>  0 0.18946374E+03</rscale>
<asrwt>0</asrwt>
<pdfrwt beam="1">  1        2 0.28507857E-01 0.19446505E+03</pdfrwt>
<pdfrwt beam="2">  1       -2 0.30255456E-01 0.19446505E+03</pdfrwt>
<totfact> 0.18460310E+03</totfact>
</mgrwt>
</event>
<event>
 7    1  0.8712071E-006  0.1458017E+03  0.7546771E-02  0.1217033E+00
         -1   -1    0    0    0  501 -0.00000000000E+00  0.00000000000E+00  0.14895183711E+03  0.14895183711E+03  0.00000000000E+00 0.  1.
          1   -1    0    0  501    0  0.00000000000E+00 -0.00000000000E+00 -0.12463182349E+03  0.12463182349E+03  0.00000000000E+00 0. -1.
         23    2    1    2    0    0  0.74867439693E+02 -0.54557567313E+01  0.53539855484E+02  0.15532111758E+03  0.12499293833E+03 0.  0.
          5    1    3    3  502    0  0.10179985961E+03 -0.10791899447E+02  0.68923745423E+02  0.12349999674E+03  0.47000000000E+01 0. -1.
         -5    1    3    3    0  502 -0.26932419919E+02  0.53361427159E+01 -0.15383889939E+02  0.31821120839E+02  0.47000000000E+01 0. -1.
        -11    1    1    2    0    0 -0.57845949031E+02 -0.53080214534E+01 -0.58684782132E+02  0.82572589671E+02  0.00000000000E+00 0. -1.
         11    1    1    2    0    0 -0.17021490663E+02  0.10763778185E+02  0.29464940271E+02  0.35689953353E+02  0.00000000000E+00 0.  1.
<mgrwt>
<rscale>  0 0.13728220E+03</rscale>
<asrwt>0</asrwt>
<pdfrwt beam="2">  1        1 0.19174127E-01 0.14580169E+03</pdfrwt>
<pdfrwt beam="1">  1       -1 0.22915667E-01 0.14580169E+03</pdfrwt>
<totfact> 0.41822684E+03</totfact>
</mgrwt>
</event>
<event>
 7    1  0.1149979E-005  0.1769087E+03  0.7546771E-02  0.1176441E+00
         -1   -1    0    0    0  501 -0.00000000000E+00  0.00000000000E+00  0.44861888299E+02  0.44861888299E+02  0.00000000000E+00 0.  1.
          1   -1    0    0  501    0  0.00000000000E+00 -0.00000000000E+00 -0.63372261167E+03  0.63372261167E+03  0.00000000000E+00 0. -1.
         23    2    1    2    0    0  0.97685063259E+01  0.12480515692E+03 -0.25697932410E+03  0.31198566684E+03  0.12499972955E+03 0.  0.
          5    1    3    3  502    0  0.46037787613E+02  0.41102497656E+01 -0.41407668423E+02  0.62233889849E+02  0.47000000000E+01 0.  1.
         -5    1    3    3    0  502 -0.36269281287E+02  0.12069490715E+03 -0.21557165568E+03  0.24975177699E+03  0.47000000000E+01 0.  1.
        -11    1    1    2    0    0 -0.45532087439E+02 -0.34653870318E+02 -0.14865331382E+03  0.15928549659E+03  0.00000000000E+00 0.  1.
         11    1    1    2    0    0  0.35763581113E+02 -0.90151286600E+02 -0.18322808545E+03  0.20731333654E+03  0.00000000000E+00 0. -1.
<mgrwt>
<rscale>  0 0.17135611E+03</rscale>
<asrwt>0</asrwt>
<pdfrwt beam="2">  1        1 0.97495776E-01 0.17690869E+03</pdfrwt>
<pdfrwt beam="1">  1       -1 0.69018297E-02 0.17690869E+03</pdfrwt>
<totfact> 0.34587499E+03</totfact>
</mgrwt>
</event>
<event>
 7    1  0.8712071E-006  0.1307972E+03  0.7546771E-02  0.1239670E+00
         -1   -1    0    0    0  501 -0.00000000000E+00  0.00000000000E+00  0.17349876644E+03  0.17349876644E+03  0.00000000000E+00 0.  1.
          1   -1    0    0  501    0  0.00000000000E+00 -0.00000000000E+00 -0.82972914270E+02  0.82972914270E+02  0.00000000000E+00 0. -1.
         23    2    1    2    0    0  0.30801414667E+02  0.23108873606E+02  0.86976083004E+02  0.15707562867E+03  0.12500066768E+03 0.  0.
          5    1    3    3  502    0  0.21231321689E+02  0.57741467312E+02 -0.12338552033E+01  0.61712709118E+02  0.47000000000E+01 0.  1.
         -5    1    3    3    0  502  0.95700929780E+01 -0.34632593706E+02  0.88209938207E+02  0.95362919549E+02  0.47000000000E+01 0.  1.
        -11    1    1    2    0    0 -0.55991467915E+00 -0.10426030339E+02 -0.41995061131E+02  0.43273557428E+02  0.00000000000E+00 0. -1.
         11    1    1    2    0    0 -0.30241499988E+02 -0.12682843268E+02  0.45544830297E+02  0.56122494614E+02  0.00000000000E+00 0.  1.
<mgrwt>
<rscale>  0 0.12210175E+03</rscale>
<asrwt>0</asrwt>
<pdfrwt beam="2">  1        1 0.12765064E-01 0.13079723E+03</pdfrwt>
<pdfrwt beam="1">  1       -1 0.26692118E-01 0.13079723E+03</pdfrwt>
<totfact> 0.54697723E+03</totfact>
</mgrwt>
</event>
<event>
 7    1  0.8712071E-006  0.2234782E+03  0.7546771E-02  0.1134550E+00
         -1   -1    0    0    0  501 -0.00000000000E+00  0.00000000000E+00  0.86515979106E+02  0.86515979106E+02  0.00000000000E+00 0.  1.
          1   -1    0    0  501    0  0.00000000000E+00 -0.00000000000E+00 -0.55829749887E+03  0.55829749887E+03  0.00000000000E+00 0. -1.
         23    2    1    2    0    0 -0.48317205598E+02 -0.17883505560E+03 -0.17793649908E+03  0.28566397447E+03  0.12500391649E+03 0.  0.
          5    1    3    3  502    0 -0.29619944334E+02  0.10328858523E+02 -0.14264619499E+02  0.34779243669E+02  0.47000000000E+01 0. -1.
         -5    1    3    3    0  502 -0.18697261264E+02 -0.18916391412E+03 -0.16367187958E+03  0.25088473080E+03  0.47000000000E+01 0. -1.
        -11    1    1    2    0    0  0.11570785463E+02  0.10932710572E+03 -0.94900346949E+02  0.14523214167E+03  0.00000000000E+00 0.  1.
         11    1    1    2    0    0  0.36746420134E+02  0.69507949873E+02 -0.19894467374E+03  0.21391736184E+03  0.00000000000E+00 0. -1.
<mgrwt>
<rscale>  0 0.21910786E+03</rscale>
<asrwt>0</asrwt>
<pdfrwt beam="2">  1        1 0.85891922E-01 0.22347821E+03</pdfrwt>
<pdfrwt beam="1">  1       -1 0.13310151E-01 0.22347821E+03</pdfrwt>
<totfact> 0.15078375E+03</totfact>
</mgrwt>
</event>
<event>
 7    1  0.8712071E-006  0.1329991E+03  0.7546771E-02  0.1234886E+00
          2   -1    0    0  501    0  0.00000000000E+00  0.00000000000E+00  0.92297506544E+03  0.92297506544E+03  0.00000000000E+00 0. -1.
         -2   -1    0    0    0  501 -0.00000000000E+00 -0.00000000000E+00 -0.17387826544E+02  0.17387826544E+02  0.00000000000E+00 0.  1.
         23    2    1    2    0    0 -0.28856848357E+02 -0.35103534623E+02  0.33666714968E+03  0.36198554940E+03  0.12499516975E+03 0.  0.
          5    1    3    3  502    0 -0.38141017229E+02 -0.73298518084E+02  0.15147858019E+03  0.17261303602E+03  0.47000000000E+01 0.  1.
         -5    1    3    3    0  502  0.92841688722E+01  0.38194983460E+02  0.18518856949E+03  0.18937251338E+03  0.47000000000E+01 0.  1.
        -11    1    1    2    0    0 -0.34528661882E+02  0.15103706226E+02  0.20996350361E+03  0.21331906451E+03  0.00000000000E+00 0.  1.
         11    1    1    2    0    0  0.63385510239E+02  0.19999828397E+02  0.35895658560E+03  0.36505827807E+03  0.00000000000E+00 0. -1.
<mgrwt>
<rscale>  0 0.12511712E+03</rscale>
<asrwt>0</asrwt>
<pdfrwt beam="1">  1        2 0.14199613E+00 0.13299913E+03</pdfrwt>
<pdfrwt beam="2">  1       -2 0.26750509E-02 0.13299913E+03</pdfrwt>
<totfact> 0.14102173E+04</totfact>
</mgrwt>
</event>
<event>
 7    1  0.1702056E-005  0.2393096E+03  0.7546771E-02  0.1123045E+00
         -1   -1    0    0    0  501 -0.00000000000E+00  0.00000000000E+00  0.32152835967E+02  0.32152835967E+02  0.00000000000E+00 0.  1.
          1   -1    0    0  501    0  0.00000000000E+00 -0.00000000000E+00 -0.16669151304E+04  0.16669151304E+04  0.00000000000E+00 0. -1.
         23    2    1    2    0    0 -0.18806525601E+03  0.79230831225E+02 -0.80684470274E+03  0.84158628040E+03  0.12499211129E+03 0.  0.
          5    1    3    3  502    0 -0.89480312737E+02 -0.31052752162E+01 -0.17312347953E+03  0.19496204314E+03  0.47000000000E+01 0.  1.
         -5    1    3    3    0  502 -0.98584943277E+02  0.82336106441E+02 -0.63372122321E+03  0.64662423726E+03  0.47000000000E+01 0.  1.
        -11    1    1    2    0    0  0.50630125081E+02  0.14666522807E+02 -0.13683032412E+03  0.14663237724E+03  0.00000000000E+00 0.  1.
         11    1    1    2    0    0  0.13743513093E+03 -0.93897354032E+02 -0.69108726758E+03  0.71084930873E+03  0.00000000000E+00 0. -1.
<mgrwt>
<rscale>  0 0.23518171E+03</rscale>
<asrwt>0</asrwt>
<pdfrwt beam="2">  1        1 0.25644846E+00 0.23930962E+03</pdfrwt>
<pdfrwt beam="1">  1       -1 0.49465906E-02 0.23930962E+03</pdfrwt>
<totfact> 0.99634416E+02</totfact>
</mgrwt>
</event>
<event>
 7    1  0.1394385E-005  0.3693093E+03  0.7546771E-02  0.1055912E+00
         -2   -1    0    0    0  501 -0.00000000000E+00  0.00000000000E+00  0.76099976704E+02  0.76099976704E+02  0.00000000000E+00 0.  1.
          2   -1    0    0  501    0  0.00000000000E+00 -0.00000000000E+00 -0.17655487138E+04  0.17655487138E+04  0.00000000000E+00 0. -1.
         23    2    1    2    0    0  0.38257345526E+02 -0.34539909099E+03 -0.75638679224E+03  0.84173057309E+03  0.12500088666E+03 0.  0.
          5    1    3    3  502    0 -0.34949915924E+02 -0.19487385755E+03 -0.34901621194E+03  0.40128758163E+03  0.47000000000E+01 0.  1.
         -5    1    3    3    0  502  0.73207261450E+02 -0.15052523344E+03 -0.40737058030E+03  0.44044299146E+03  0.47000000000E+01 0.  1.
        -11    1    1    2    0    0 -0.53322580848E+02  0.26384235096E+03 -0.78944389405E+03  0.83407298580E+03  0.00000000000E+00 0.  1.
         11    1    1    2    0    0  0.15065235321E+02  0.81556740031E+02 -0.14361805078E+03  0.16584513158E+03  0.00000000000E+00 0. -1.
<mgrwt>
<rscale>  0 0.36682913E+03</rscale>
<asrwt>0</asrwt>
<pdfrwt beam="2">  1        2 0.27162287E+00 0.36930933E+03</pdfrwt>
<pdfrwt beam="1">  1       -2 0.11707689E-01 0.36930933E+03</pdfrwt>
<totfact> 0.50246537E+02</totfact>
</mgrwt>
</event>
<event>
 7    1  0.8712071E-006  0.1312874E+03  0.7546771E-02  0.1238107E+00
         -2   -1    0    0    0  501 -0.00000000000E+00  0.00000000000E+00  0.10955218798E+03  0.10955218798E+03  0.00000000000E+00 0.  1.
          2   -1    0    0  501    0  0.00000000000E+00 -0.00000000000E+00 -0.12997983502E+03  0.12997983502E+03  0.00000000000E+00 0. -1.
         23    2    1    2    0    0  0.62293751410E+01  0.39609945675E+02  0.14960018721E+02  0.13213697947E+03  0.12501450425E+03 0.  0.
          5    1    3    3  502    0  0.99872994577E+01  0.84234227213E+02  0.88054227731E+00  0.84958910889E+02  0.47000000000E+01 0. -1.
         -5    1    3    3    0  502 -0.37579243167E+01 -0.44624281538E+02  0.14079476444E+02  0.47178068579E+02  0.47000000000E+01 0. -1.
        -11    1    1    2    0    0  0.93464817431E+01 -0.63265938959E+02 -0.44190748125E+02  0.77735178479E+02  0.00000000000E+00 0. -1.
         11    1    1    2    0    0 -0.15575856884E+02  0.23655993283E+02  0.88030823682E+01  0.29659865055E+02  0.00000000000E+00 0.  1.
<mgrwt>
<rscale>  0 0.12307613E+03</rscale>
<asrwt>0</asrwt>
<pdfrwt beam="2">  1        2 0.19996898E-01 0.13128739E+03</pdfrwt>
<pdfrwt beam="1">  1       -2 0.16854183E-01 0.13128739E+03</pdfrwt>
<totfact> 0.73816682E+03</totfact>
</mgrwt>
</event>
<event>
 7    1  0.8712071E-006  0.1329510E+03  0.7546771E-02  0.1235847E+00
         -1   -1    0    0    0  501 -0.00000000000E+00  0.00000000000E+00  0.88116044297E+02  0.88116044297E+02  0.00000000000E+00 0.  1.
          1   -1    0    0  501    0  0.00000000000E+00 -0.00000000000E+00 -0.24961315275E+03  0.24961315275E+03  0.00000000000E+00 0. -1.
         23    2    1    2    0    0 -0.43487386993E+02  0.12688714082E+02  0.14958425741E+02  0.13378982229E+03  0.12499522293E+03 0.  0.
          5    1    3    3  502    0 -0.78676782670E+02 -0.15664934791E+02  0.30230813978E+02  0.85856964930E+02  0.47000000000E+01 0.  1.
         -5    1    3    3    0  502  0.35189395677E+02  0.28353648873E+02 -0.15272388237E+02  0.47932857363E+02  0.47000000000E+01 0.  1.
        -11    1    1    2    0    0 -0.15436337684E+02 -0.69667638392E+01  0.90460075634E+00  0.16959794280E+02  0.00000000000E+00 0.  1.
         11    1    1    2    0    0  0.58923724677E+02 -0.57219502430E+01 -0.17736013495E+03  0.18697958047E+03  0.00000000000E+00 0. -1.
<mgrwt>
<rscale>  0 0.12450382E+03</rscale>
<asrwt>0</asrwt>
<pdfrwt beam="2">  1        1 0.38402023E-01 0.13295098E+03</pdfrwt>
<pdfrwt beam="1">  1       -1 0.13556315E-01 0.13295098E+03</pdfrwt>
<totfact> 0.40168989E+03</totfact>
</mgrwt>
</event>
<event>
 7    1  0.8712071E-006  0.1317587E+03  0.7546771E-02  0.1238085E+00
          1   -1    0    0  501    0  0.00000000000E+00  0.00000000000E+00  0.13398020315E+02  0.13398020315E+02  0.00000000000E+00 0. -1.
         -1   -1    0    0    0  501 -0.00000000000E+00 -0.00000000000E+00 -0.18802087138E+04  0.18802087138E+04  0.00000000000E+00 0.  1.
         23    2    1    2    0    0 -0.19634020417E+01  0.41606859848E+02 -0.16435983851E+04  0.16488711325E+04  0.12500149811E+03 0.  0.
          5    1    3    3  502    0  0.53580801853E+02  0.44381723335E+02 -0.65574195245E+03  0.65943933603E+03  0.47000000000E+01 0. -1.
         -5    1    3    3    0  502 -0.55544203895E+02 -0.27748634868E+01 -0.98785643262E+03  0.98943179650E+03  0.47000000000E+01 0. -1.
        -11    1    1    2    0    0 -0.10172527159E+02 -0.50882027843E+02 -0.22351416044E+03  0.22945814648E+03  0.00000000000E+00 0.  1.
         11    1    1    2    0    0  0.12135929200E+02  0.92751679947E+01  0.30185206769E+00  0.15277455075E+02  0.00000000000E+00 0. -1.
<mgrwt>
<rscale>  0 0.12309001E+03</rscale>
<asrwt>0</asrwt>
<pdfrwt beam="1">  1        1 0.20612359E-02 0.13175872E+03</pdfrwt>
<pdfrwt beam="2">  1       -1 0.28926260E+00 0.13175872E+03</pdfrwt>
<totfact> 0.26227991E+02</totfact>
</mgrwt>
</event>
<event>
 7    1  0.8712071E-006  0.1588446E+03  0.7546771E-02  0.1197338E+00
         -2   -1    0    0    0  501 -0.00000000000E+00  0.00000000000E+00  0.40363266630E+02  0.40363266630E+02  0.00000000000E+00 0.  1.
          2   -1    0    0  501    0  0.00000000000E+00 -0.00000000000E+00 -0.54267280262E+03  0.54267280262E+03  0.00000000000E+00 0. -1.
         23    2    1    2    0    0  0.66739368035E+02  0.71768512047E+02 -0.23796207324E+03  0.28610756934E+03  0.12500692127E+03 0.  0.
          5    1    3    3  502    0  0.14060645462E+01  0.90395180280E+02 -0.14316328220E+03  0.16938441783E+03  0.47000000000E+01 0. -1.
         -5    1    3    3    0  502  0.65333303489E+02 -0.18626668233E+02 -0.94798791041E+02  0.11672315150E+03  0.47000000000E+01 0. -1.
        -11    1    1    2    0    0 -0.41367389231E+02 -0.34763190531E+02 -0.23974346398E+03  0.24575733728E+03  0.00000000000E+00 0. -1.
         11    1    1    2    0    0 -0.25371978805E+02 -0.37005321517E+02 -0.24603998768E+02  0.51171162625E+02  0.00000000000E+00 0.  1.
<mgrwt>
<rscale>  0 0.15257976E+03</rscale>
<asrwt>0</asrwt>
<pdfrwt beam="2">  1        2 0.83488126E-01 0.15884456E+03</pdfrwt>
<pdfrwt beam="1">  1       -2 0.62097332E-02 0.15884456E+03</pdfrwt>
<totfact> 0.76950759E+03</totfact>
</mgrwt>
</event>
<event>
 7    1  0.8712071E-006  0.1297925E+03  0.7546771E-02  0.1243040E+00
          3   -1    0    0  501    0  0.00000000000E+00  0.00000000000E+00  0.17421601360E+03  0.17421601360E+03  0.00000000000E+00 0. -1.
         -3   -1    0    0    0  501 -0.00000000000E+00 -0.00000000000E+00 -0.72850483821E+02  0.72850483821E+02  0.00000000000E+00 0.  1.
         23    2    1    2    0    0  0.13457189600E+02 -0.32264951713E+02  0.67226302740E+02  0.14616931792E+03  0.12499588257E+03 0.  0.
          5    1    3    3  502    0 -0.42447642820E+02  0.13070893535E+02  0.58370653742E+02  0.73497441160E+02  0.47000000000E+01 0.  1.
         -5    1    3    3    0  502  0.55904832421E+02 -0.45335845248E+02  0.88556489988E+01  0.72671876758E+02  0.47000000000E+01 0.  1.
        -11    1    1    2    0    0  0.30349176472E+02  0.64764082032E+01 -0.10990430671E+02  0.32921208090E+02  0.00000000000E+00 0.  1.
         11    1    1    2    0    0 -0.43806366072E+02  0.25788543509E+02  0.45129657715E+02  0.67975971418E+02  0.00000000000E+00 0. -1.
<mgrwt>
<rscale>  0 0.12003460E+03</rscale>
<asrwt>0</asrwt>
<pdfrwt beam="1">  1        3 0.26802464E-01 0.12979250E+03</pdfrwt>
<pdfrwt beam="2">  1       -3 0.11207767E-01 0.12979250E+03</pdfrwt>
<totfact> 0.18356825E+03</totfact>
</mgrwt>
</event>
<event>
 7    1  0.8712071E-006  0.1500170E+03  0.7546771E-02  0.1205865E+00
         -2   -1    0    0    0  501 -0.00000000000E+00  0.00000000000E+00  0.22671176032E+03  0.22671176032E+03  0.00000000000E+00 0. -1.
          2   -1    0    0  501    0  0.00000000000E+00 -0.00000000000E+00 -0.10854331400E+03  0.10854331400E+03  0.00000000000E+00 0.  1.
         23    2    1    2    0    0  0.58324050727E+02 -0.58971366686E+02  0.13362753325E+03  0.20090148109E+03  0.12500308188E+03 0.  0.
          5    1    3    3  502    0  0.93377923219E+02 -0.54497629199E+02  0.72900259460E+02  0.13048358503E+03  0.47000000000E+01 0.  1.
         -5    1    3    3    0  502 -0.35053872493E+02 -0.44737374874E+01  0.60727273789E+02  0.70417896061E+02  0.47000000000E+01 0.  1.
        -11    1    1    2    0    0 -0.23221166856E+02 -0.48361569765E+01 -0.48799512457E+02  0.54258671385E+02  0.00000000000E+00 0.  1.
         11    1    1    2    0    0 -0.35102883871E+02  0.63807523662E+02  0.33340425528E+02  0.80094921851E+02  0.00000000000E+00 0. -1.
<mgrwt>
<rscale>  0 0.14569480E+03</rscale>
<asrwt>0</asrwt>
<pdfrwt beam="2">  1        2 0.16698971E-01 0.15001696E+03</pdfrwt>
<pdfrwt beam="1">  1       -2 0.34878732E-01 0.15001696E+03</pdfrwt>
<totfact> 0.25731654E+03</totfact>
</mgrwt>
</event>
<event>
 7    1  0.8712071E-006  0.1444467E+03  0.7546771E-02  0.1218141E+00
         -2   -1    0    0    0  501 -0.00000000000E+00  0.00000000000E+00  0.12938527106E+03  0.12938527106E+03  0.00000000000E+00 0.  1.
          2   -1    0    0  501    0  0.00000000000E+00 -0.00000000000E+00 -0.13568173705E+03  0.13568173705E+03  0.00000000000E+00 0. -1.
         23    2    1    2    0    0  0.59301643300E+02  0.41498661529E+02  0.23000347232E+02  0.14626644633E+03  0.12500413411E+03 0.  0.
          5    1    3    3  502    0  0.16391249785E+02  0.82384745149E+02  0.21301718628E+02  0.86785785237E+02  0.47000000000E+01 0.  1.
         -5    1    3    3    0  502  0.42910393515E+02 -0.40886083620E+02  0.16986286042E+01  0.59480661097E+02  0.47000000000E+01 0.  1.
        -11    1    1    2    0    0 -0.60076282889E+02 -0.22670682123E+02  0.18995228339E+02  0.66962215416E+02  0.00000000000E+00 0.  1.
         11    1    1    2    0    0  0.77463958936E+00 -0.18827979406E+02 -0.48292041564E+02  0.51838346361E+02  0.00000000000E+00 0. -1.
<mgrwt>
<rscale>  0 0.13648325E+03</rscale>
<asrwt>0</asrwt>
<pdfrwt beam="2">  1        2 0.20874113E-01 0.14444673E+03</pdfrwt>
<pdfrwt beam="1">  1       -2 0.19905426E-01 0.14444673E+03</pdfrwt>
<totfact> 0.53582184E+03</totfact>
</mgrwt>
</event>
<event>
 6    1  0.8712071E-006  0.3032394E+03  0.7546771E-02  0.1105927E+00
         -2   -1    0    0    0  501 -0.00000000000E+00  0.00000000000E+00  0.16592906606E+03  0.16592906606E+03  0.00000000000E+00 0.  1.
          2   -1    0    0  501    0  0.00000000000E+00 -0.00000000000E+00 -0.33654104819E+03  0.33654104819E+03  0.00000000000E+00 0. -1.
          5    1    1    2  502    0  0.77060663194E+02  0.47754024093E+02 -0.25878993182E+02  0.94396000536E+02  0.47000000000E+01 0. -1.
         -5    1    1    2    0  502 -0.21224144335E+03 -0.37164498036E+01 -0.75005640349E+02  0.22518476493E+03  0.47000000000E+01 0.  1.
        -11    1    1    2    0    0  0.48763552942E+02  0.11936092702E+02  0.11785407712E+02  0.51567918704E+02  0.00000000000E+00 0.  1.
         11    1    1    2    0    0  0.86417227211E+02 -0.55973666991E+02 -0.81512756320E+02  0.13132143008E+03  0.00000000000E+00 0. -1.
<mgrwt>
<rscale>  0 0.26203518E+03</rscale>
<asrwt>0</asrwt>
<pdfrwt beam="2">  1        2 0.51775545E-01 0.30323944E+03</pdfrwt>
<pdfrwt beam="1">  1       -2 0.25527549E-01 0.30323944E+03</pdfrwt>
<totfact> 0.13230442E+03</totfact>
</mgrwt>
</event>
<event>
 7    1  0.8712071E-006  0.1775283E+03  0.7546771E-02  0.1176250E+00
         -1   -1    0    0    0  501 -0.00000000000E+00  0.00000000000E+00  0.16636299455E+03  0.16636299455E+03  0.00000000000E+00 0.  1.
          1   -1    0    0  501    0  0.00000000000E+00 -0.00000000000E+00 -0.31220274939E+03  0.31220274939E+03  0.00000000000E+00 0. -1.
         23    2    1    2    0    0 -0.76179815894E+02 -0.10044000240E+03  0.88005630933E+02  0.19814465861E+03  0.12499902491E+03 0.  0.
          5    1    3    3  502    0  0.17151607631E+02 -0.25821630441E+01  0.56397266965E+02  0.59191105171E+02  0.47000000000E+01 0. -1.
         -5    1    3    3    0  502 -0.93331423525E+02 -0.97857839352E+02  0.31608363968E+02  0.13895355344E+03  0.47000000000E+01 0. -1.
        -11    1    1    2    0    0  0.95608789948E+02  0.87963433975E+02 -0.18146631073E+03  0.22317846751E+03  0.00000000000E+00 0.  1.
         11    1    1    2    0    0 -0.19428974054E+02  0.12476568421E+02 -0.52379075045E+02  0.57242617820E+02  0.00000000000E+00 0. -1.
<mgrwt>
<rscale>  0 0.17154151E+03</rscale>
<asrwt>0</asrwt>
<pdfrwt beam="2">  1        1 0.48031191E-01 0.17752835E+03</pdfrwt>
<pdfrwt beam="1">  1       -1 0.25594307E-01 0.17752835E+03</pdfrwt>
<totfact> 0.11099308E+03</totfact>
</mgrwt>
</event>
<event>
 7    1  0.8712071E-006  0.2579931E+03  0.7546771E-02  0.1110627E+00
         -2   -1    0    0    0  501 -0.00000000000E+00  0.00000000000E+00  0.16697367946E+03  0.16697367946E+03  0.00000000000E+00 0.  1.
          2   -1    0    0  501    0  0.00000000000E+00 -0.00000000000E+00 -0.38888261556E+03  0.38888261556E+03  0.00000000000E+00 0. -1.
         23    2    1    2    0    0  0.27073038376E+02 -0.22405848877E+03 -0.64517103760E+02  0.26593776740E+03  0.12500113461E+03 0.  0.
          5    1    3    3  502    0  0.14742490486E+02 -0.10546265500E+03 -0.94995298733E+02  0.14277923311E+03  0.47000000000E+01 0. -1.
         -5    1    3    3    0  502  0.12330547890E+02 -0.11859583378E+03  0.30478194973E+02  0.12315853429E+03  0.47000000000E+01 0. -1.
        -11    1    1    2    0    0 -0.46851962835E+02  0.11365234866E+03 -0.44386004168E+02  0.13069843207E+03  0.00000000000E+00 0.  1.
         11    1    1    2    0    0  0.19778924459E+02  0.11040614011E+03 -0.11300582818E+03  0.15922009556E+03  0.00000000000E+00 0. -1.
<mgrwt>
<rscale>  0 0.25428463E+03</rscale>
<asrwt>0</asrwt>
<pdfrwt beam="2">  1        2 0.59828094E-01 0.25799310E+03</pdfrwt>
<pdfrwt beam="1">  1       -2 0.25688259E-01 0.25799310E+03</pdfrwt>
<totfact> 0.11155601E+03</totfact>
</mgrwt>
</event>
<event>
 7    1  0.8712071E-006  0.1312576E+03  0.7546771E-02  0.1239843E+00
         -1   -1    0    0    0  501 -0.00000000000E+00  0.00000000000E+00  0.11968055406E+04  0.11968055406E+04  0.00000000000E+00 0.  1.
          1   -1    0    0  501    0  0.00000000000E+00 -0.00000000000E+00 -0.16515944785E+02  0.16515944785E+02  0.00000000000E+00 0. -1.
         23    2    1    2    0    0  0.40021924017E+02 -0.14686638024E+01  0.99608871828E+03  0.10046995970E+04  0.12499853650E+03 0.  0.
          5    1    3    3  502    0  0.60971124897E+02 -0.49480973333E+02  0.59717461017E+03  0.60233333780E+03  0.47000000000E+01 0.  1.
         -5    1    3    3    0  502 -0.20949200880E+02  0.48012309530E+02  0.39891410811E+03  0.40236625919E+03  0.47000000000E+01 0.  1.
        -11    1    1    2    0    0 -0.42255179819E+02  0.40121575067E+02  0.96041165777E+02  0.11233497466E+03  0.00000000000E+00 0.  1.
         11    1    1    2    0    0  0.22332558024E+01 -0.38652911264E+02  0.88159711791E+02  0.96286913772E+02  0.00000000000E+00 0. -1.
<mgrwt>
<rscale>  0 0.12199394E+03</rscale>
<asrwt>0</asrwt>
<pdfrwt beam="2">  1        1 0.25409155E-02 0.13125755E+03</pdfrwt>
<pdfrwt beam="1">  1       -1 0.18412386E+00 0.13125755E+03</pdfrwt>
<totfact> 0.90584093E+02</totfact>
</mgrwt>
</event>
<event>
 7    1  0.8712071E-006  0.1259684E+03  0.7546771E-02  0.1247576E+00
         -2   -1    0    0    0  501 -0.00000000000E+00  0.00000000000E+00  0.12741784406E+02  0.12741784406E+02  0.00000000000E+00 0.  1.
          2   -1    0    0  501    0  0.00000000000E+00 -0.00000000000E+00 -0.96208994472E+03  0.96208994472E+03  0.00000000000E+00 0. -1.
         23    2    1    2    0    0  0.93821017164E+01 -0.12496985176E+02 -0.50363809479E+03  0.51915254512E+03  0.12499534437E+03 0.  0.
          5    1    3    3  502    0 -0.21700424129E+02 -0.62812583072E+02 -0.26196561500E+03  0.27030427752E+03  0.47000000000E+01 0. -1.
         -5    1    3    3    0  502  0.31082525845E+02  0.50315597896E+02 -0.24167247979E+03  0.24884826761E+03  0.47000000000E+01 0. -1.
        -11    1    1    2    0    0  0.29057182722E+02 -0.26658008517E+02 -0.16388082188E+03  0.16855827795E+03  0.00000000000E+00 0.  1.
         11    1    1    2    0    0 -0.38439284438E+02  0.39154993693E+02 -0.28182924364E+03  0.28712090605E+03  0.00000000000E+00 0. -1.
<mgrwt>
<rscale>  0 0.11732547E+03</rscale>
<asrwt>0</asrwt>
<pdfrwt beam="2">  1        2 0.14801390E+00 0.12596839E+03</pdfrwt>
<pdfrwt beam="1">  1       -2 0.19602737E-02 0.12596839E+03</pdfrwt>
<totfact> 0.20897220E+04</totfact>
</mgrwt>
</event>
<event>
 7    1  0.8712071E-006  0.2075457E+03  0.7546771E-02  0.1147495E+00
         -1   -1    0    0    0  501 -0.00000000000E+00  0.00000000000E+00  0.81504464251E+03  0.81504464251E+03  0.00000000000E+00 0.  1.
          1   -1    0    0  501    0  0.00000000000E+00 -0.00000000000E+00 -0.48804732620E+02  0.48804732620E+02  0.00000000000E+00 0. -1.
         23    2    1    2    0    0  0.84714805156E+02 -0.14227522587E+03  0.44999722217E+03  0.49555295993E+03  0.12512552907E+03 0.  0.
          5    1    3    3  502    0  0.22145667270E+02 -0.13509686710E+03  0.24084784041E+03  0.27707646293E+03  0.47000000000E+01 0. -1.
         -5    1    3    3    0  502  0.62569137886E+02 -0.71783587705E+01  0.20914938177E+03  0.21847649701E+03  0.47000000000E+01 0. -1.
        -11    1    1    2    0    0 -0.59062517947E+02  0.11146206385E+03  0.29925053795E+03  0.32475076161E+03  0.00000000000E+00 0.  1.
         11    1    1    2    0    0 -0.25652287209E+02  0.30813162020E+02  0.16992149770E+02  0.43545653589E+02  0.00000000000E+00 0. -1.
<mgrwt>
<rscale>  0 0.20268268E+03</rscale>
<asrwt>0</asrwt>
<pdfrwt beam="2">  1        1 0.75084210E-02 0.20754574E+03</pdfrwt>
<pdfrwt beam="1">  1       -1 0.12539147E+00 0.20754574E+03</pdfrwt>
<totfact> 0.56332283E+02</totfact>
</mgrwt>
</event>
<event>
 7    1  0.8861303E-006  0.1418420E+03  0.7546771E-02  0.1221746E+00
          1   -1    0    0  501    0  0.00000000000E+00  0.00000000000E+00  0.67004499455E+03  0.67004499455E+03  0.00000000000E+00 0. -1.
         -1   -1    0    0    0  501 -0.00000000000E+00 -0.00000000000E+00 -0.26039112897E+02  0.26039112897E+02  0.00000000000E+00 0.  1.
         23    2    1    2    0    0 -0.50602712265E+02 -0.43964843080E+02  0.26375228739E+03  0.29947356114E+03  0.12500241118E+03 0.  0.
          5    1    3    3  502    0 -0.61190874670E+02 -0.81465188478E+02  0.20228631009E+03  0.22654523020E+03  0.47000000000E+01 0.  1.
         -5    1    3    3    0  502  0.10588162405E+02  0.37500345397E+02  0.61465977303E+02  0.72928330941E+02  0.47000000000E+01 0.  1.
        -11    1    1    2    0    0 -0.20308424703E+01  0.48921688162E+02  0.99175263493E+02  0.11060374669E+03  0.00000000000E+00 0.  1.
         11    1    1    2    0    0  0.52633554735E+02 -0.49568450817E+01  0.28107833077E+03  0.28600679961E+03  0.00000000000E+00 0. -1.
<mgrwt>
<rscale>  0 0.13392434E+03</rscale>
<asrwt>0</asrwt>
<pdfrwt beam="1">  1        1 0.10308383E+00 0.14184197E+03</pdfrwt>
<pdfrwt beam="2">  1       -1 0.40060179E-02 0.14184197E+03</pdfrwt>
<totfact> 0.71166303E+03</totfact>
</mgrwt>
</event>
<event>
 7    1  0.8712071E-006  0.2263388E+03  0.7546771E-02  0.1132393E+00
         -1   -1    0    0    0  501 -0.00000000000E+00  0.00000000000E+00  0.63301914980E+03  0.63301914980E+03  0.00000000000E+00 0.  1.
          1   -1    0    0  501    0  0.00000000000E+00 -0.00000000000E+00 -0.78956884931E+02  0.78956884931E+02  0.00000000000E+00 0. -1.
         23    2    1    2    0    0 -0.13928489741E+03 -0.12729848418E+03  0.36658171016E+03  0.43082639379E+03  0.12499617853E+03 0.  0.
          5    1    3    3  502    0 -0.12469664661E+03 -0.50804249995E+02  0.15528021774E+03  0.20558297963E+03  0.47000000000E+01 0.  1.
         -5    1    3    3    0  502 -0.14588250798E+02 -0.76494234184E+02  0.21130149242E+03  0.22524341416E+03  0.47000000000E+01 0.  1.
        -11    1    1    2    0    0  0.12490707657E+03  0.13995099597E+03  0.18166831245E+03  0.26113489770E+03  0.00000000000E+00 0.  1.
         11    1    1    2    0    0  0.14377820844E+02 -0.12652511791E+02  0.58122422672E+01  0.20014743241E+02  0.00000000000E+00 0. -1.
<mgrwt>
<rscale>  0 0.22200999E+03</rscale>
<asrwt>0</asrwt>
<pdfrwt beam="2">  1        1 0.12147213E-01 0.22633875E+03</pdfrwt>
<pdfrwt beam="1">  1       -1 0.97387558E-01 0.22633875E+03</pdfrwt>
<totfact> 0.52820353E+02</totfact>
</mgrwt>
</event>
<event>
 7    1  0.8712071E-006  0.1266456E+03  0.7546771E-02  0.1247391E+00
          1   -1    0    0  501    0  0.00000000000E+00  0.00000000000E+00  0.21281585082E+03  0.21281585082E+03  0.00000000000E+00 0. -1.
         -1   -1    0    0    0  501 -0.00000000000E+00 -0.00000000000E+00 -0.58071487209E+02  0.58071487209E+02  0.00000000000E+00 0.  1.
         23    2    1    2    0    0 -0.11016442526E+02  0.17111294859E+02  0.70547469110E+02  0.14496912425E+03  0.12499977268E+03 0.  0.
          5    1    3    3  502    0 -0.54676151236E+02  0.35450757314E+02  0.71848160982E+01  0.65726321140E+02  0.47000000000E+01 0.  1.
         -5    1    3    3    0  502  0.43659708710E+02 -0.18339462455E+02  0.63362653012E+02  0.79242803109E+02  0.47000000000E+01 0.  1.
        -11    1    1    2    0    0 -0.30068775181E+02 -0.28578145797E+02  0.14007845090E+02  0.43784259526E+02  0.00000000000E+00 0. -1.
         11    1    1    2    0    0  0.41085217708E+02  0.11466850939E+02  0.70189049414E+02  0.82133954259E+02  0.00000000000E+00 0.  1.
<mgrwt>
<rscale>  0 0.11743416E+03</rscale>
<asrwt>0</asrwt>
<pdfrwt beam="1">  1        1 0.32740900E-01 0.12664557E+03</pdfrwt>
<pdfrwt beam="2">  1       -1 0.89340750E-02 0.12664557E+03</pdfrwt>
<totfact> 0.92429892E+03</totfact>
</mgrwt>
</event>
<event>
 7    1  0.8712071E-006  0.2017241E+03  0.7546771E-02  0.1152325E+00
         -2   -1    0    0    0  501 -0.00000000000E+00  0.00000000000E+00  0.11686398937E+04  0.11686398937E+04  0.00000000000E+00 0.  1.
          2   -1    0    0  501    0  0.00000000000E+00 -0.00000000000E+00 -0.33964513752E+02  0.33964513752E+02  0.00000000000E+00 0. -1.
         23    2    1    2    0    0 -0.25826982449E+02  0.15620591510E+03  0.74699040127E+03  0.77374883872E+03  0.12500113958E+03 0.  0.
          5    1    3    3  502    0 -0.33672558985E+01  0.53653335202E+02  0.52905087836E+03  0.53179595776E+03  0.47000000000E+01 0. -1.
         -5    1    3    3    0  502 -0.22459726550E+02  0.10255257990E+03  0.21793952291E+03  0.24195288096E+03  0.47000000000E+01 0. -1.
        -11    1    1    2    0    0  0.15448304994E+02 -0.10899214605E+03  0.35188464685E+03  0.36870142760E+03  0.00000000000E+00 0.  1.
         11    1    1    2    0    0  0.10378677454E+02 -0.47213769052E+02  0.35800331784E+02  0.60154141085E+02  0.00000000000E+00 0. -1.
<mgrwt>
<rscale>  0 0.19696494E+03</rscale>
<asrwt>0</asrwt>
<pdfrwt beam="2">  1        2 0.52253107E-02 0.20172408E+03</pdfrwt>
<pdfrwt beam="1">  1       -2 0.17979072E+00 0.20172408E+03</pdfrwt>
<totfact> 0.28815224E+02</totfact>
</mgrwt>
</event>
<event>
 7    1  0.8712071E-006  0.1317327E+03  0.7546771E-02  0.1235886E+00
          4   -1    0    0  501    0  0.00000000000E+00  0.00000000000E+00  0.49309169514E+02  0.49309169514E+02  0.00000000000E+00 0.  1.
         -4   -1    0    0    0  501 -0.00000000000E+00 -0.00000000000E+00 -0.28546416016E+03  0.28546416016E+03  0.00000000000E+00 0. -1.
         23    2    1    2    0    0 -0.26167083294E+02 -0.32310281946E+02 -0.14238765459E+03  0.19397872919E+03  0.12499933052E+03 0.  0.
          5    1    3    3  502    0 -0.48438212565E+02 -0.31287156794E+02 -0.88704381259E+01  0.58531370130E+02  0.47000000000E+01 0. -1.
         -5    1    3    3    0  502  0.22271129271E+02 -0.10231251527E+01 -0.13351721647E+03  0.13544735906E+03  0.47000000000E+01 0. -1.
        -11    1    1    2    0    0 -0.25944982522E+01  0.29396048810E+02  0.11468344912E+02  0.31660417587E+02  0.00000000000E+00 0.  1.
         11    1    1    2    0    0  0.28761581546E+02  0.29142331370E+01 -0.10523568096E+03  0.10913418289E+03  0.00000000000E+00 0. -1.
<mgrwt>
<rscale>  0 0.12447900E+03</rscale>
<asrwt>0</asrwt>
<pdfrwt beam="1">  1        4 0.75860261E-02 0.13173270E+03</pdfrwt>
<pdfrwt beam="2">  1       -4 0.43917563E-01 0.13173270E+03</pdfrwt>
<totfact> 0.99950631E+02</totfact>
</mgrwt>
</event>
<event>
 7    1  0.8712071E-006  0.1653003E+03  0.7546771E-02  0.1189851E+00
          2   -1    0    0  501    0  0.00000000000E+00  0.00000000000E+00  0.54359595342E+03  0.54359595342E+03  0.00000000000E+00 0. -1.
         -2   -1    0    0    0  501 -0.00000000000E+00 -0.00000000000E+00 -0.62439831711E+02  0.62439831711E+02  0.00000000000E+00 0.  1.
         23    2    1    2    0    0 -0.10469591044E+02 -0.10765455937E+03  0.86008282575E+02  0.18633734591E+03  0.12500026127E+03 0.  0.
          5    1    3    3  502    0  0.40758446263E+02 -0.98544788189E+02  0.80716149859E+02  0.13382642889E+03  0.47000000000E+01 0. -1.
         -5    1    3    3    0  502 -0.51228037307E+02 -0.91097711800E+01  0.52921327152E+01  0.52510917017E+02  0.47000000000E+01 0. -1.
        -11    1    1    2    0    0  0.37944349352E+02  0.61339518362E+02  0.12571248432E+03  0.14493425707E+03  0.00000000000E+00 0.  1.
         11    1    1    2    0    0 -0.27474758308E+02  0.46315041008E+02  0.26943535481E+03  0.27476418215E+03  0.00000000000E+00 0. -1.
<mgrwt>
<rscale>  0 0.15898180E+03</rscale>
<asrwt>0</asrwt>
<pdfrwt beam="1">  1        2 0.83630144E-01 0.16530028E+03</pdfrwt>
<pdfrwt beam="2">  1       -2 0.96061283E-02 0.16530028E+03</pdfrwt>
<totfact> 0.39166901E+03</totfact>
</mgrwt>
</event>
<event>
 7    1  0.8712071E-006  0.1300532E+03  0.7546771E-02  0.1241182E+00
          1   -1    0    0  501    0  0.00000000000E+00  0.00000000000E+00  0.14411807771E+03  0.14411807771E+03  0.00000000000E+00 0. -1.
         -1   -1    0    0    0  501 -0.00000000000E+00 -0.00000000000E+00 -0.91745957638E+02  0.91745957638E+02  0.00000000000E+00 0.  1.
         23    2    1    2    0    0 -0.35871932046E+02  0.14106258850E+01  0.14711094731E+02  0.13088259664E+03  0.12500020969E+03 0.  0.
          5    1    3    3  502    0  0.27926326423E+02  0.41467270013E+02 -0.10510217394E+02  0.51302717857E+02  0.47000000000E+01 0.  1.
         -5    1    3    3    0  502 -0.63798258469E+02 -0.40056644128E+02  0.25221312125E+02  0.79579878787E+02  0.47000000000E+01 0.  1.
        -11    1    1    2    0    0  0.15332752050E+01  0.22336060262E+02 -0.22507773839E+02  0.31746659730E+02  0.00000000000E+00 0.  1.
         11    1    1    2    0    0  0.34338656841E+02 -0.23746686147E+02  0.60168799178E+02  0.73234778972E+02  0.00000000000E+00 0. -1.
<mgrwt>
<rscale>  0 0.12116865E+03</rscale>
<asrwt>0</asrwt>
<pdfrwt beam="1">  1        1 0.22172012E-01 0.13005321E+03</pdfrwt>
<pdfrwt beam="2">  1       -1 0.14114763E-01 0.13005321E+03</pdfrwt>
<totfact> 0.74674240E+03</totfact>
</mgrwt>
</event>
<event>
 7    1  0.8712071E-006  0.1504819E+03  0.7546771E-02  0.1208159E+00
          3   -1    0    0  501    0  0.00000000000E+00  0.00000000000E+00  0.23307537907E+03  0.23307537907E+03  0.00000000000E+00 0. -1.
         -3   -1    0    0    0  501 -0.00000000000E+00 -0.00000000000E+00 -0.85373132419E+02  0.85373132419E+02  0.00000000000E+00 0.  1.
         23    2    1    2    0    0 -0.43631097284E+02 -0.71517171192E+02  0.48260729052E+02  0.15803132247E+03  0.12500568982E+03 0.  0.
          5    1    3    3  502    0 -0.66455017296E+02  0.44840133517E+01  0.36398175799E+01  0.66870875361E+02  0.47000000000E+01 0.  1.
         -5    1    3    3    0  502  0.22823920012E+02 -0.76001184544E+02  0.44620911472E+02  0.91160447111E+02  0.47000000000E+01 0.  1.
        -11    1    1    2    0    0 -0.20086234194E+02  0.46326581996E+02  0.68851842369E+02  0.85382581368E+02  0.00000000000E+00 0. -1.
         11    1    1    2    0    0  0.63717331478E+02  0.25190589197E+02  0.30589675234E+02  0.75034607653E+02  0.00000000000E+00 0.  1.
<mgrwt>
<rscale>  0 0.14391297E+03</rscale>
<asrwt>0</asrwt>
<pdfrwt beam="1">  1        3 0.35857750E-01 0.15048190E+03</pdfrwt>
<pdfrwt beam="2">  1       -3 0.13134328E-01 0.15048190E+03</pdfrwt>
<totfact> 0.83842009E+02</totfact>
</mgrwt>
</event>
<event>
 7    1  0.8712071E-006  0.1453655E+03  0.7546771E-02  0.1216140E+00
          2   -1    0    0  501    0  0.00000000000E+00  0.00000000000E+00  0.36763112381E+03  0.36763112381E+03  0.00000000000E+00 0. -1.
         -2   -1    0    0    0  501 -0.00000000000E+00 -0.00000000000E+00 -0.47937377588E+02  0.47937377588E+02  0.00000000000E+00 0.  1.
         23    2    1    2    0    0  0.41642466786E+02 -0.61463915496E+02  0.14909686746E+03  0.20823304597E+03  0.12497686826E+03 0.  0.
          5    1    3    3  502    0  0.69348941138E+02  0.79753637266E+01  0.80566715819E+02  0.10670505031E+03  0.47000000000E+01 0.  1.
         -5    1    3    3    0  502 -0.27706474352E+02 -0.69439279223E+02  0.68530151642E+02  0.10152799567E+03  0.47000000000E+01 0.  1.
        -11    1    1    2    0    0 -0.57514584571E+02  0.31535748020E+02  0.15820485629E+03  0.17126356121E+03  0.00000000000E+00 0. -1.
         11    1    1    2    0    0  0.15872117786E+02  0.29928167476E+02  0.12392022463E+02  0.36071894214E+02  0.00000000000E+00 0.  1.
<mgrwt>
<rscale>  0 0.13793136E+03</rscale>
<asrwt>0</asrwt>
<pdfrwt beam="1">  1        2 0.56558633E-01 0.14536549E+03</pdfrwt>
<pdfrwt beam="2">  1       -2 0.73749814E-02 0.14536549E+03</pdfrwt>
<totfact> 0.89815560E+03</totfact>
</mgrwt>
</event>
<event>
 7    1  0.8712071E-006  0.1619524E+03  0.7546771E-02  0.1193936E+00
         -2   -1    0    0    0  501 -0.00000000000E+00  0.00000000000E+00  0.42884216626E+02  0.42884216626E+02  0.00000000000E+00 0.  1.
          2   -1    0    0  501    0  0.00000000000E+00 -0.00000000000E+00 -0.59527517791E+03  0.59527517791E+03  0.00000000000E+00 0. -1.
         23    2    1    2    0    0  0.53102693209E+01  0.10283654095E+03 -0.18486770930E+03  0.24577357755E+03  0.12500011345E+03 0.  0.
          5    1    3    3  502    0  0.41872684632E+02  0.10586806399E+03 -0.94165090633E+02  0.14781922400E+03  0.47000000000E+01 0. -1.
         -5    1    3    3    0  502 -0.36562415311E+02 -0.30315230360E+01 -0.90702618666E+02  0.97954353543E+02  0.47000000000E+01 0. -1.
        -11    1    1    2    0    0  0.23048657430E+02 -0.65707927072E+02 -0.31268293768E+03  0.32034261628E+03  0.00000000000E+00 0. -1.
         11    1    1    2    0    0 -0.28358926751E+02 -0.37128613881E+02 -0.54840314309E+02  0.72043200711E+02  0.00000000000E+00 0.  1.
<mgrwt>
<rscale>  0 0.15544580E+03</rscale>
<asrwt>0</asrwt>
<pdfrwt beam="2">  1        2 0.91580791E-01 0.16195240E+03</pdfrwt>
<pdfrwt beam="1">  1       -2 0.65975722E-02 0.16195240E+03</pdfrwt>
<totfact> 0.63239502E+03</totfact>
</mgrwt>
</event>
<event>
 7    1  0.8712071E-006  0.1179032E+03  0.7546771E-02  0.1258526E+00
         -1   -1    0    0    0  501 -0.00000000000E+00  0.00000000000E+00  0.16215403594E+03  0.16215403594E+03  0.00000000000E+00 0.  1.
          1   -1    0    0  501    0  0.00000000000E+00 -0.00000000000E+00 -0.68588496719E+02  0.68588496719E+02  0.00000000000E+00 0. -1.
         23    2    1    2    0    0 -0.16625271893E+02 -0.55265851112E+01  0.50571530546E+02  0.12829123674E+03  0.11659424906E+03 0.  0.
          5    1    3    3  502    0  0.97395635815E+01 -0.36845772946E+02 -0.22423631145E+02  0.44467733431E+02  0.47000000000E+01 0. -1.
         -5    1    3    3    0  502 -0.26364835474E+02  0.31319187835E+02  0.72995161691E+02  0.83823503306E+02  0.47000000000E+01 0.  1.
        -11    1    1    2    0    0 -0.30271257925E+02  0.26792291750E+02  0.26681628193E+02  0.48436404042E+02  0.00000000000E+00 0.  1.
         11    1    1    2    0    0  0.46896529817E+02 -0.21265706639E+02  0.16312380483E+02  0.54014891880E+02  0.00000000000E+00 0. -1.
<mgrwt>
<rscale>  0 0.11111105E+03</rscale>
<asrwt>0</asrwt>
<pdfrwt beam="2">  1        1 0.10552076E-01 0.11790319E+03</pdfrwt>
<pdfrwt beam="1">  1       -1 0.24946775E-01 0.11790319E+03</pdfrwt>
<totfact> 0.77860752E+03</totfact>
</mgrwt>
</event>
<event>
 7    1  0.8712071E-006  0.1596590E+03  0.7546771E-02  0.1196839E+00
          2   -1    0    0  501    0  0.00000000000E+00  0.00000000000E+00  0.33345508168E+03  0.33345508168E+03  0.00000000000E+00 0. -1.
         -2   -1    0    0    0  501 -0.00000000000E+00 -0.00000000000E+00 -0.76195522640E+02  0.76195522640E+02  0.00000000000E+00 0.  1.
         23    2    1    2    0    0 -0.25773914512E+02 -0.95911692404E+02  0.59440799263E+02  0.17036494630E+03  0.12501063515E+03 0.  0.
          5    1    3    3  502    0  0.19759277937E+02 -0.66816072698E+02 -0.21376952115E+02  0.73033421919E+02  0.47000000000E+01 0.  1.
         -5    1    3    3    0  502 -0.45533192448E+02 -0.29095619706E+02  0.80817751378E+02  0.97331524381E+02  0.47000000000E+01 0.  1.
        -11    1    1    2    0    0  0.45845432877E+02  0.47055134040E+02  0.50736873302E+02  0.83007347070E+02  0.00000000000E+00 0.  1.
         11    1    1    2    0    0 -0.20071518365E+02  0.48856558364E+02  0.14708188648E+03  0.15627831095E+03  0.00000000000E+00 0. -1.
<mgrwt>
<rscale>  0 0.15299631E+03</rscale>
<asrwt>0</asrwt>
<pdfrwt beam="1">  1        2 0.51300781E-01 0.15965903E+03</pdfrwt>
<pdfrwt beam="2">  1       -2 0.11722388E-01 0.15965903E+03</pdfrwt>
<totfact> 0.48488967E+03</totfact>
</mgrwt>
</event>
<event>
 7    1  0.8712071E-006  0.1817465E+03  0.7546771E-02  0.1173740E+00
         -1   -1    0    0    0  501 -0.00000000000E+00  0.00000000000E+00  0.88150219632E+03  0.88150219632E+03  0.00000000000E+00 0. -1.
          1   -1    0    0  501    0  0.00000000000E+00 -0.00000000000E+00 -0.34054178425E+02  0.34054178425E+02  0.00000000000E+00 0.  1.
         23    2    1    2    0    0 -0.12865496955E+03  0.29318067330E+02  0.57745347502E+03  0.60537947947E+03  0.12498059087E+03 0.  0.
          5    1    3    3  502    0 -0.63718500614E+02  0.77003859198E+02  0.28800068414E+03  0.30488707043E+03  0.47000000000E+01 0.  1.
         -5    1    3    3    0  502 -0.64936468937E+02 -0.47685791868E+02  0.28945279088E+03  0.30049240904E+03  0.47000000000E+01 0.  1.
        -11    1    1    2    0    0  0.38771399826E+02 -0.30522916589E+02  0.40946119556E+02  0.64120625296E+02  0.00000000000E+00 0.  1.
         11    1    1    2    0    0  0.89883569725E+02  0.12048492586E+01  0.22904842332E+03  0.24605626998E+03  0.00000000000E+00 0. -1.
<mgrwt>
<rscale>  0 0.17399972E+03</rscale>
<asrwt>0</asrwt>
<pdfrwt beam="2">  1        1 0.52391051E-02 0.18174652E+03</pdfrwt>
<pdfrwt beam="1">  1       -1 0.13561570E+00 0.18174652E+03</pdfrwt>
<totfact> 0.75949928E+02</totfact>
</mgrwt>
</event>
<event>
 7    1  0.8712071E-006  0.1807698E+03  0.7546771E-02  0.1172150E+00
         -1   -1    0    0    0  501 -0.00000000000E+00  0.00000000000E+00  0.12929740481E+03  0.12929740481E+03  0.00000000000E+00 0.  1.
          1   -1    0    0  501    0  0.00000000000E+00 -0.00000000000E+00 -0.25374668162E+03  0.25374668162E+03  0.00000000000E+00 0. -1.
         23    2    1    2    0    0  0.15849541831E+02  0.12962705652E+03 -0.18730123138E+01  0.18077953610E+03  0.12499340278E+03 0.  0.
          5    1    3    3  502    0  0.45875809940E+02  0.51453753821E+02  0.47131665607E+02  0.83639480049E+02  0.47000000000E+01 0.  1.
         -5    1    3    3    0  502 -0.30026268109E+02  0.78173302703E+02 -0.49004677920E+02  0.97140056054E+02  0.47000000000E+01 0.  1.
        -11    1    1    2    0    0  0.32376356302E+02 -0.22893257097E+02 -0.52451655893E+02  0.65753371578E+02  0.00000000000E+00 0. -1.
         11    1    1    2    0    0 -0.48225898133E+02 -0.10673379943E+03 -0.70124608608E+02  0.13651117875E+03  0.00000000000E+00 0.  1.
<mgrwt>
<rscale>  0 0.17558103E+03</rscale>
<asrwt>0</asrwt>
<pdfrwt beam="2">  1        1 0.39037950E-01 0.18076983E+03</pdfrwt>
<pdfrwt beam="1">  1       -1 0.19891909E-01 0.18076983E+03</pdfrwt>
<totfact> 0.21722336E+03</totfact>
</mgrwt>
</event>
<event>
 7    1  0.8712071E-006  0.1269016E+03  0.7546771E-02  0.1246694E+00
         -2   -1    0    0    0  501 -0.00000000000E+00  0.00000000000E+00  0.45286582195E+02  0.45286582195E+02  0.00000000000E+00 0.  1.
          2   -1    0    0  501    0  0.00000000000E+00 -0.00000000000E+00 -0.28344699589E+03  0.28344699589E+03  0.00000000000E+00 0. -1.
         23    2    1    2    0    0 -0.20800877372E+02  0.67115799788E+01 -0.10073375729E+03  0.16202253680E+03  0.12500516297E+03 0.  0.
          5    1    3    3  502    0  0.19359503172E+02  0.53947312211E+02 -0.21710347536E+02  0.61469765316E+02  0.47000000000E+01 0. -1.
         -5    1    3    3    0  502 -0.40160380544E+02 -0.47235732232E+02 -0.79023409750E+02  0.10055277149E+03  0.47000000000E+01 0. -1.
        -11    1    1    2    0    0 -0.88995263518E+01 -0.42900747563E+02 -0.43381144414E+02  0.61657111524E+02  0.00000000000E+00 0.  1.
         11    1    1    2    0    0  0.29700403724E+02  0.36189167584E+02 -0.94045511994E+02  0.10505392976E+03  0.00000000000E+00 0. -1.
<mgrwt>
<rscale>  0 0.11784566E+03</rscale>
<asrwt>0</asrwt>
<pdfrwt beam="2">  1        2 0.43607230E-01 0.12690159E+03</pdfrwt>
<pdfrwt beam="1">  1       -2 0.69671664E-02 0.12690159E+03</pdfrwt>
<totfact> 0.12781459E+04</totfact>
</mgrwt>
</event>
<event>
 7    1  0.8712071E-006  0.1305183E+03  0.7546771E-02  0.1239974E+00
         -3   -1    0    0    0  501 -0.00000000000E+00  0.00000000000E+00  0.27129487170E+03  0.27129487170E+03  0.00000000000E+00 0.  1.
          3   -1    0    0  501    0  0.00000000000E+00 -0.00000000000E+00 -0.50558630946E+02  0.50558630946E+02  0.00000000000E+00 0. -1.
         23    2    1    2    0    0 -0.54949851395E+00 -0.37569203929E+02  0.15540977708E+03  0.20294637260E+03  0.12499313703E+03 0.  0.
          5    1    3    3  502    0  0.53167892355E+02  0.50556166724E+01  0.34168341919E+02  0.63576329140E+02  0.47000000000E+01 0.  1.
         -5    1    3    3    0  502 -0.53717390869E+02 -0.42624820601E+02  0.12124143517E+03  0.13937004346E+03  0.47000000000E+01 0.  1.
        -11    1    1    2    0    0 -0.14144903385E+02  0.26714781981E+02 -0.16929907695E+02  0.34646495387E+02  0.00000000000E+00 0. -1.
         11    1    1    2    0    0  0.14694401899E+02  0.10854421948E+02  0.82256371363E+02  0.84260634657E+02  0.00000000000E+00 0.  1.
<mgrwt>
<rscale>  0 0.12191320E+03</rscale>
<asrwt>0</asrwt>
<pdfrwt beam="2">  1        3 0.77782510E-02 0.13051832E+03</pdfrwt>
<pdfrwt beam="1">  1       -3 0.41737672E-01 0.13051832E+03</pdfrwt>
<totfact> 0.14584330E+03</totfact>
</mgrwt>
</event>
<event>
 7    1  0.8712071E-006  0.1539503E+03  0.7546771E-02  0.1204500E+00
          1   -1    0    0  501    0  0.00000000000E+00  0.00000000000E+00  0.72893872292E+03  0.72893872292E+03  0.00000000000E+00 0. -1.
         -1   -1    0    0    0  501 -0.00000000000E+00 -0.00000000000E+00 -0.27273909288E+02  0.27273909288E+02  0.00000000000E+00 0.  1.
         23    2    1    2    0    0  0.57099451939E+02  0.69421521504E+02  0.35441487566E+03  0.38640728470E+03  0.12498396108E+03 0.  0.
          5    1    3    3  502    0  0.85178265796E+02  0.76020212881E+02  0.21008968275E+03  0.23915303579E+03  0.47000000000E+01 0. -1.
         -5    1    3    3    0  502 -0.28078813857E+02 -0.65986913776E+01  0.14432519291E+03  0.14725424891E+03  0.47000000000E+01 0. -1.
        -11    1    1    2    0    0  0.13896715035E+01 -0.42118822293E+02  0.48902421159E+02  0.64555194783E+02  0.00000000000E+00 0.  1.
         11    1    1    2    0    0 -0.58489123442E+02 -0.27302699210E+02  0.29834751682E+03  0.30525015272E+03  0.00000000000E+00 0. -1.
<mgrwt>
<rscale>  0 0.14676948E+03</rscale>
<asrwt>0</asrwt>
<pdfrwt beam="1">  1        1 0.11214440E+00 0.15395027E+03</pdfrwt>
<pdfrwt beam="2">  1       -1 0.41959866E-02 0.15395027E+03</pdfrwt>
<totfact> 0.59162851E+03</totfact>
</mgrwt>
</event>
<event>
 6    1  0.8712071E-006  0.2204069E+03  0.7546771E-02  0.1139981E+00
          2   -1    0    0  501    0  0.00000000000E+00  0.00000000000E+00  0.55963247823E+03  0.55963247823E+03  0.00000000000E+00 0. -1.
         -2   -1    0    0    0  501 -0.00000000000E+00 -0.00000000000E+00 -0.14251521906E+03  0.14251521906E+03  0.00000000000E+00 0.  1.
          5    1    1    2  502    0 -0.15290617860E+02  0.25672074848E+02  0.22318379013E+02  0.37590669897E+02  0.47000000000E+01 0. -1.
         -5    1    1    2    0  502  0.17801277379E+03  0.32042620269E+01 -0.46952510708E+02  0.18418860765E+03  0.47000000000E+01 0.  1.
        -11    1    1    2    0    0 -0.14860836692E+03 -0.55449260040E+02  0.37103176685E+03  0.40351411273E+03  0.00000000000E+00 0. -1.
         11    1    1    2    0    0 -0.14113789009E+02  0.26572923164E+02  0.70719624017E+02  0.76854307015E+02  0.00000000000E+00 0.  1.
<mgrwt>
<rscale>  0 0.21201407E+03</rscale>
<asrwt>0</asrwt>
<pdfrwt beam="1">  1        2 0.86097303E-01 0.22040691E+03</pdfrwt>
<pdfrwt beam="2">  1       -2 0.21925419E-01 0.22040691E+03</pdfrwt>
<totfact> 0.98169117E+02</totfact>
</mgrwt>
</event>
<event>
 7    1  0.8712071E-006  0.2631653E+03  0.7546771E-02  0.1107374E+00
         -2   -1    0    0    0  501 -0.00000000000E+00  0.00000000000E+00  0.15056998141E+03  0.15056998141E+03  0.00000000000E+00 0.  1.
          2   -1    0    0  501    0  0.00000000000E+00 -0.00000000000E+00 -0.10999123202E+04  0.10999123202E+04  0.00000000000E+00 0. -1.
         23    2    1    2    0    0 -0.36641961830E+02 -0.22866279752E+03  0.59254400341E+01  0.26323203583E+03  0.12500674186E+03 0.  0.
          5    1    3    3  502    0  0.21681477512E+02 -0.30298401275E+02 -0.36213070411E+02  0.52168535110E+02  0.47000000000E+01 0. -1.
         -5    1    3    3    0  502 -0.58323439341E+02 -0.19836439624E+03  0.42138510445E+02  0.21106350072E+03  0.47000000000E+01 0. -1.
        -11    1    1    2    0    0 -0.29708778996E+02  0.10161950412E+03 -0.41589719915E+03  0.42916152603E+03  0.00000000000E+00 0. -1.
         11    1    1    2    0    0  0.66350740826E+02  0.12704329339E+03 -0.53937057965E+03  0.55808873972E+03  0.00000000000E+00 0.  1.
<mgrwt>
<rscale>  0 0.25961583E+03</rscale>
<asrwt>0</asrwt>
<pdfrwt beam="2">  1        2 0.16921728E+00 0.26316534E+03</pdfrwt>
<pdfrwt beam="1">  1       -2 0.23164613E-01 0.26316534E+03</pdfrwt>
<totfact> 0.37456988E+02</totfact>
</mgrwt>
</event>
<event>
 7    1  0.8712071E-006  0.1360563E+03  0.7546771E-02  0.1223999E+00
         -1   -1    0    0    0  501 -0.00000000000E+00  0.00000000000E+00  0.11499910920E+03  0.11499910920E+03  0.00000000000E+00 0.  1.
          1   -1    0    0  501    0  0.00000000000E+00 -0.00000000000E+00 -0.24459726737E+03  0.24459726737E+03  0.00000000000E+00 0. -1.
         23    2    1    2    0    0  0.15766656540E+02  0.51345134272E+02  0.47947906788E+02  0.14425778957E+03  0.12500559113E+03 0.  0.
          5    1    3    3  502    0 -0.10915794079E+02 -0.39502422107E+02  0.14077463053E+02  0.43587393576E+02  0.47000000000E+01 0.  1.
         -5    1    3    3    0  502  0.26682450619E+02  0.90847556380E+02  0.33870443735E+02  0.10067039600E+03  0.47000000000E+01 0.  1.
        -11    1    1    2    0    0  0.25326729609E+02 -0.59824868632E+02 -0.52770502041E+02  0.83696977396E+02  0.00000000000E+00 0.  1.
         11    1    1    2    0    0 -0.41093386148E+02  0.84797343596E+01 -0.12477556291E+03  0.13164160961E+03  0.00000000000E+00 0. -1.
<mgrwt>
<rscale>  0 0.13235726E+03</rscale>
<asrwt>0</asrwt>
<pdfrwt beam="2">  1        1 0.37630349E-01 0.13605627E+03</pdfrwt>
<pdfrwt beam="1">  1       -1 0.17692171E-01 0.13605627E+03</pdfrwt>
<totfact> 0.27140848E+03</totfact>
</mgrwt>
</event>
<event>
 7    1  0.8712071E-006  0.1236033E+03  0.7546771E-02  0.1247911E+00
         -2   -1    0    0    0  501 -0.00000000000E+00  0.00000000000E+00  0.15119932487E+03  0.15119932487E+03  0.00000000000E+00 0.  1.
          2   -1    0    0  501    0  0.00000000000E+00 -0.00000000000E+00 -0.82928828881E+02  0.82928828881E+02  0.00000000000E+00 0. -1.
         23    2    1    2    0    0  0.20572227454E+02  0.19307155501E+02  0.46851336324E+02  0.13218483911E+03  0.12034035557E+03 0.  0.
          5    1    3    3  502    0  0.20529704949E+02 -0.17220307008E+02 -0.33879580672E+02  0.43450244478E+02  0.47000000000E+01 0. -1.
         -5    1    3    3    0  502  0.42522505357E-01  0.36527462509E+02  0.80730916996E+02  0.88734594632E+02  0.47000000000E+01 0.  1.
        -11    1    1    2    0    0 -0.54156456243E+02 -0.19457399175E+02  0.33099086585E+02  0.66385703794E+02  0.00000000000E+00 0. -1.
         11    1    1    2    0    0  0.33584228789E+02  0.15024367410E+00 -0.11679926917E+02  0.35557610849E+02  0.00000000000E+00 0.  1.
<mgrwt>
<rscale>  0 0.11712815E+03</rscale>
<asrwt>0</asrwt>
<pdfrwt beam="2">  1        2 0.12758281E-01 0.12360333E+03</pdfrwt>
<pdfrwt beam="1">  1       -2 0.23261435E-01 0.12360333E+03</pdfrwt>
<totfact> 0.71824407E+03</totfact>
</mgrwt>
</event>
<event>
 7    1  0.8712071E-006  0.1447457E+03  0.7546771E-02  0.1217216E+00
         -2   -1    0    0    0  501 -0.00000000000E+00  0.00000000000E+00  0.15057073547E+03  0.15057073547E+03  0.00000000000E+00 0. -1.
          2   -1    0    0  501    0  0.00000000000E+00 -0.00000000000E+00 -0.13057665122E+03  0.13057665122E+03  0.00000000000E+00 0.  1.
         23    2    1    2    0    0 -0.66884167341E+02  0.29326397142E+02  0.61560512015E+02  0.15729276982E+03  0.12497115423E+03 0.  0.
          5    1    3    3  502    0 -0.79305035798E+02 -0.26941587485E+01 -0.76793569329E+01  0.79859938124E+02  0.47000000000E+01 0.  1.
         -5    1    3    3    0  502  0.12420868458E+02  0.32020555890E+02  0.69239868948E+02  0.77432831698E+02  0.47000000000E+01 0.  1.
        -11    1    1    2    0    0 -0.23040087337E+01 -0.33319079187E+02 -0.43110353814E+02  0.54534137017E+02  0.00000000000E+00 0.  1.
         11    1    1    2    0    0  0.69188176074E+02  0.39926820455E+01  0.15439260478E+01  0.69320479846E+02  0.00000000000E+00 0. -1.
<mgrwt>
<rscale>  0 0.13714984E+03</rscale>
<asrwt>0</asrwt>
<pdfrwt beam="2">  1        2 0.20088715E-01 0.14474570E+03</pdfrwt>
<pdfrwt beam="1">  1       -2 0.23164729E-01 0.14474570E+03</pdfrwt>
<totfact> 0.43171887E+03</totfact>
</mgrwt>
</event>
<event>
 6    1  0.8712071E-006  0.3739208E+03  0.7546771E-02  0.1054889E+00
         -2   -1    0    0    0  501 -0.00000000000E+00  0.00000000000E+00  0.87226518073E+02  0.87226518073E+02  0.00000000000E+00 0.  1.
          2   -1    0    0  501    0  0.00000000000E+00 -0.00000000000E+00 -0.17479538861E+04  0.17479538861E+04  0.00000000000E+00 0. -1.
          5    1    1    2  502    0  0.10520097040E+03 -0.15915930909E+03 -0.29323502103E+03  0.34986825721E+03  0.47000000000E+01 0. -1.
         -5    1    1    2    0  502 -0.35484227140E+02 -0.17834660910E+03 -0.22985370556E+03  0.29312362463E+03  0.47000000000E+01 0.  1.
        -11    1    1    2    0    0  0.10408221775E+02  0.60455128820E+02 -0.12438453130E+03  0.13868909585E+03  0.00000000000E+00 0. -1.
         11    1    1    2    0    0 -0.80124965038E+02  0.27705078936E+03 -0.10132541101E+04  0.10534994264E+04  0.00000000000E+00 0.  1.
<mgrwt>
<rscale>  0 0.36948719E+03</rscale>
<asrwt>0</asrwt>
<pdfrwt beam="2">  1        2 0.26891599E+00 0.37392077E+03</pdfrwt>
<pdfrwt beam="1">  1       -2 0.13419464E-01 0.37392077E+03</pdfrwt>
<totfact> 0.41027697E+02</totfact>
</mgrwt>
</event>
<event>
 7    1  0.8712071E-006  0.1263515E+03  0.7546771E-02  0.1247225E+00
          1   -1    0    0  501    0  0.00000000000E+00  0.00000000000E+00  0.29682233771E+02  0.29682233771E+02  0.00000000000E+00 0. -1.
         -1   -1    0    0    0  501 -0.00000000000E+00 -0.00000000000E+00 -0.41419308129E+03  0.41419308129E+03  0.00000000000E+00 0.  1.
         23    2    1    2    0    0  0.17819869213E+02 -0.48350767596E+01 -0.23842895127E+03  0.26983894101E+03  0.12499505422E+03 0.  0.
          5    1    3    3  502    0  0.40417373449E+02 -0.45868281824E+02 -0.19962406366E+03  0.20882844669E+03  0.47000000000E+01 0. -1.
         -5    1    3    3    0  502 -0.22597504237E+02  0.41033205065E+02 -0.38804887609E+02  0.61010494327E+02  0.47000000000E+01 0. -1.
        -11    1    1    2    0    0  0.28364279627E+02 -0.22559896919E+02 -0.33720471863E+02  0.49503045668E+02  0.00000000000E+00 0.  1.
         11    1    1    2    0    0 -0.46184148840E+02  0.27394973678E+02 -0.11236142439E+03  0.12453332838E+03  0.00000000000E+00 0. -1.
<mgrwt>
<rscale>  0 0.11753181E+03</rscale>
<asrwt>0</asrwt>
<pdfrwt beam="1">  1        1 0.45664977E-02 0.12635145E+03</pdfrwt>
<pdfrwt beam="2">  1       -1 0.63722010E-01 0.12635145E+03</pdfrwt>
<totfact> 0.46424085E+03</totfact>
</mgrwt>
</event>
<event>
 7    1  0.8712071E-006  0.1340854E+03  0.7546771E-02  0.1231465E+00
          1   -1    0    0  501    0  0.00000000000E+00  0.00000000000E+00  0.93640459819E+03  0.93640459819E+03  0.00000000000E+00 0. -1.
         -1   -1    0    0    0  501 -0.00000000000E+00 -0.00000000000E+00 -0.15933712620E+02  0.15933712620E+02  0.00000000000E+00 0.  1.
         23    2    1    2    0    0  0.26597256010E+02  0.40586316906E+02  0.55322569033E+03  0.56924298063E+03  0.12499697359E+03 0.  0.
          5    1    3    3  502    0  0.72728043089E+02  0.26177070212E+01  0.26493401524E+03  0.27478781464E+03  0.47000000000E+01 0.  1.
         -5    1    3    3    0  502 -0.46130787079E+02  0.37968609885E+02  0.28829167509E+03  0.29445516599E+03  0.47000000000E+01 0.  1.
        -11    1    1    2    0    0 -0.59451124288E+02 -0.16831912065E+02  0.15223408497E+03  0.16429536229E+03  0.00000000000E+00 0.  1.
         11    1    1    2    0    0  0.32853868278E+02 -0.23754404841E+02  0.21501111027E+03  0.21879996789E+03  0.00000000000E+00 0. -1.
<mgrwt>
<rscale>  0 0.12733496E+03</rscale>
<asrwt>0</asrwt>
<pdfrwt beam="1">  1        1 0.14406220E+00 0.13408544E+03</pdfrwt>
<pdfrwt beam="2">  1       -1 0.24513411E-02 0.13408544E+03</pdfrwt>
<totfact> 0.87716442E+03</totfact>
</mgrwt>
</event>
<event>
 7    1  0.8712071E-006  0.2364625E+03  0.7546771E-02  0.1124613E+00
         -1   -1    0    0    0  501 -0.00000000000E+00  0.00000000000E+00  0.21681346397E+03  0.21681346397E+03  0.00000000000E+00 0.  1.
          1   -1    0    0  501    0  0.00000000000E+00 -0.00000000000E+00 -0.30320962154E+03  0.30320962154E+03  0.00000000000E+00 0. -1.
         23    2    1    2    0    0 -0.87301650891E+02  0.18074505309E+03  0.71635381006E+02  0.24707512839E+03  0.12499655512E+03 0.  0.
          5    1    3    3  502    0 -0.26511323481E+02 -0.37747511293E+01 -0.18471051112E+02  0.32868963294E+02  0.47000000000E+01 0. -1.
         -5    1    3    3    0  502 -0.60790327410E+02  0.18451980422E+03  0.90106432119E+02  0.21420616509E+03  0.47000000000E+01 0. -1.
        -11    1    1    2    0    0  0.17560311784E+02 -0.28448967005E+02  0.10787130258E+02  0.35129338918E+02  0.00000000000E+00 0.  1.
         11    1    1    2    0    0  0.69741339107E+02 -0.15229608608E+03 -0.16881866883E+03  0.23781861820E+03  0.00000000000E+00 0. -1.
<mgrwt>
<rscale>  0 0.23290375E+03</rscale>
<asrwt>0</asrwt>
<pdfrwt beam="2">  1        1 0.46647634E-01 0.23646245E+03</pdfrwt>
<pdfrwt beam="1">  1       -1 0.33355918E-01 0.23646245E+03</pdfrwt>
<totfact> 0.73735815E+02</totfact>
</mgrwt>
</event>
<event>
 7    1  0.8712071E-006  0.1569244E+03  0.7546771E-02  0.1200590E+00
         -1   -1    0    0    0  501 -0.00000000000E+00  0.00000000000E+00  0.48641926393E+02  0.48641926393E+02  0.00000000000E+00 0.  1.
          1   -1    0    0  501    0  0.00000000000E+00 -0.00000000000E+00 -0.43350232611E+03  0.43350232611E+03  0.00000000000E+00 0. -1.
         23    2    1    2    0    0 -0.22289478063E+02  0.92210772798E+02 -0.17625007496E+03  0.23598595216E+03  0.12500253292E+03 0.  0.
          5    1    3    3  502    0  0.49863100061E+02  0.18417942119E+02 -0.53824271778E+02  0.75793743621E+02  0.47000000000E+01 0.  1.
         -5    1    3    3    0  502 -0.72152578124E+02  0.73792830679E+02 -0.12242580319E+03  0.16019220853E+03  0.47000000000E+01 0.  1.
        -11    1    1    2    0    0 -0.26742289760E+02 -0.33955538756E+02 -0.12877054674E+03  0.13583071222E+03  0.00000000000E+00 0. -1.
         11    1    1    2    0    0  0.49031767822E+02 -0.58255234042E+02 -0.79839778007E+02  0.11032758812E+03  0.00000000000E+00 0.  1.
<mgrwt>
<rscale>  0 0.14990464E+03</rscale>
<asrwt>0</asrwt>
<pdfrwt beam="2">  1        1 0.66692663E-01 0.15692444E+03</pdfrwt>
<pdfrwt beam="1">  1       -1 0.74833735E-02 0.15692444E+03</pdfrwt>
<totfact> 0.50476026E+03</totfact>
</mgrwt>
</event>
<event>
 7    1  0.8712071E-006  0.1271699E+03  0.7546771E-02  0.1246049E+00
          3   -1    0    0  501    0  0.00000000000E+00  0.00000000000E+00  0.31295318830E+02  0.31295318830E+02  0.00000000000E+00 0. -1.
         -3   -1    0    0    0  501 -0.00000000000E+00 -0.00000000000E+00 -0.39431484484E+03  0.39431484484E+03  0.00000000000E+00 0.  1.
         23    2    1    2    0    0 -0.23155358195E+02  0.31807219043E+01 -0.20726753539E+03  0.24317073494E+03  0.12500354995E+03 0.  0.
          5    1    3    3  502    0  0.23747587827E+02 -0.11575805332E+02 -0.18839190956E+03  0.19029332301E+03  0.47000000000E+01 0. -1.
         -5    1    3    3    0  502 -0.46902946022E+02  0.14756527237E+02 -0.18875625831E+02  0.52877411927E+02  0.47000000000E+01 0. -1.
        -11    1    1    2    0    0 -0.44689561294E+01 -0.42447704562E+02 -0.10082688291E+03  0.10948899264E+03  0.00000000000E+00 0. -1.
         11    1    1    2    0    0  0.27624314324E+02  0.39266982658E+02 -0.54925107712E+02  0.72950436093E+02  0.00000000000E+00 0.  1.
<mgrwt>
<rscale>  0 0.11822841E+03</rscale>
<asrwt>0</asrwt>
<pdfrwt beam="1">  1        3 0.48146644E-02 0.12716987E+03</pdfrwt>
<pdfrwt beam="2">  1       -3 0.60663822E-01 0.12716987E+03</pdfrwt>
<totfact> 0.14811876E+03</totfact>
</mgrwt>
</event>
<event>
 7    1  0.8712071E-006  0.1383602E+03  0.7546771E-02  0.1226814E+00
         -1   -1    0    0    0  501 -0.00000000000E+00  0.00000000000E+00  0.17146577416E+02  0.17146577416E+02  0.00000000000E+00 0.  1.
          1   -1    0    0  501    0  0.00000000000E+00 -0.00000000000E+00 -0.89859722923E+03  0.89859722923E+03  0.00000000000E+00 0. -1.
         23    2    1    2    0    0  0.19436886716E+02 -0.56015955962E+02 -0.52440091162E+03  0.54234661899E+03  0.12501183595E+03 0.  0.
          5    1    3    3  502    0  0.68626702848E+02 -0.22524283342E+02 -0.36560873439E+03  0.37270471468E+03  0.47000000000E+01 0. -1.
         -5    1    3    3    0  502 -0.49189816132E+02 -0.33491672621E+02 -0.15879217724E+03  0.16964190431E+03  0.47000000000E+01 0. -1.
        -11    1    1    2    0    0  0.32472835531E+02 -0.55613446784E+00 -0.10925668007E+03  0.11398164972E+03  0.00000000000E+00 0. -1.
         11    1    1    2    0    0 -0.51909722247E+02  0.56572090430E+02 -0.24779306012E+03  0.25941553794E+03  0.00000000000E+00 0.  1.
<mgrwt>
<rscale>  0 0.13043320E+03</rscale>
<asrwt>0</asrwt>
<pdfrwt beam="2">  1        1 0.13824571E+00 0.13836018E+03</pdfrwt>
<pdfrwt beam="1">  1       -1 0.26379353E-02 0.13836018E+03</pdfrwt>
<totfact> 0.84414119E+03</totfact>
</mgrwt>
</event>
<event>
 7    1  0.8712071E-006  0.1344965E+03  0.7546771E-02  0.1232900E+00
          2   -1    0    0  501    0  0.00000000000E+00  0.00000000000E+00  0.54515752580E+03  0.54515752580E+03  0.00000000000E+00 0. -1.
         -2   -1    0    0    0  501 -0.00000000000E+00 -0.00000000000E+00 -0.31455654335E+02  0.31455654335E+02  0.00000000000E+00 0.  1.
         23    2    1    2    0    0  0.23299272601E+00 -0.49639718424E+02  0.16722732910E+03  0.21460260992E+03  0.12500057862E+03 0.  0.
          5    1    3    3  502    0  0.16508366100E+02  0.51916919347E+01 -0.15108568180E+02  0.23448638529E+02  0.47000000000E+01 0. -1.
         -5    1    3    3    0  502 -0.16275373374E+02 -0.54831410359E+02  0.18233589728E+03  0.19115397139E+03  0.47000000000E+01 0. -1.
        -11    1    1    2    0    0 -0.29758516420E+02  0.65096473848E+02  0.23891655597E+03  0.24940778040E+03  0.00000000000E+00 0.  1.
         11    1    1    2    0    0  0.29525523694E+02 -0.15456755424E+02  0.10755798639E+03  0.11260278982E+03  0.00000000000E+00 0. -1.
<mgrwt>
<rscale>  0 0.12639852E+03</rscale>
<asrwt>0</asrwt>
<pdfrwt beam="1">  1        2 0.83870382E-01 0.13449647E+03</pdfrwt>
<pdfrwt beam="2">  1       -2 0.48393318E-02 0.13449647E+03</pdfrwt>
<totfact> 0.11042496E+04</totfact>
</mgrwt>
</event>
<event>
 7    1  0.8712071E-006  0.1410705E+03  0.7546771E-02  0.1222255E+00
          2   -1    0    0  501    0  0.00000000000E+00  0.00000000000E+00  0.21588494519E+03  0.21588494519E+03  0.00000000000E+00 0. -1.
         -2   -1    0    0    0  501 -0.00000000000E+00 -0.00000000000E+00 -0.10576113666E+03  0.10576113666E+03  0.00000000000E+00 0.  1.
         23    2    1    2    0    0 -0.58277315270E+02 -0.29478695037E+02 -0.27097080153E+02  0.14364933575E+03  0.12504255665E+03 0.  0.
          5    1    3    3  502    0 -0.13705178807E+01  0.36531182639E+02 -0.41152325054E+02  0.55244995082E+02  0.47000000000E+01 0. -1.
         -5    1    3    3    0  502 -0.56906797390E+02 -0.66009877675E+02  0.14055244902E+02  0.88404340669E+02  0.47000000000E+01 0. -1.
        -11    1    1    2    0    0  0.68801840150E+02  0.37280016168E+02  0.14351492074E+03  0.16346261128E+03  0.00000000000E+00 0. -1.
         11    1    1    2    0    0 -0.10524524880E+02 -0.78013211315E+01 -0.62940320478E+01  0.14534134813E+02  0.00000000000E+00 0.  1.
<mgrwt>
<rscale>  0 0.13356843E+03</rscale>
<asrwt>0</asrwt>
<pdfrwt beam="1">  1        2 0.33213068E-01 0.14107048E+03</pdfrwt>
<pdfrwt beam="2">  1       -2 0.16270944E-01 0.14107048E+03</pdfrwt>
<totfact> 0.44974372E+03</totfact>
</mgrwt>
</event>
<event>
 7    1  0.8712071E-006  0.1265251E+03  0.7546771E-02  0.1248692E+00
         -3   -1    0    0    0  501 -0.00000000000E+00  0.00000000000E+00  0.38985455208E+03  0.38985455208E+03  0.00000000000E+00 0.  1.
          3   -1    0    0  501    0  0.00000000000E+00 -0.00000000000E+00 -0.30525110737E+02  0.30525110737E+02  0.00000000000E+00 0. -1.
         23    2    1    2    0    0  0.65182737121E+01  0.18412620395E+02  0.20023106623E+03  0.23685664951E+03  0.12500831993E+03 0.  0.
          5    1    3    3  502    0  0.34327804525E+02  0.61298803110E+02  0.82761364336E+02  0.10866220527E+03  0.47000000000E+01 0. -1.
         -5    1    3    3    0  502 -0.27809530813E+02 -0.42886182715E+02  0.11746970189E+03  0.12819444424E+03  0.47000000000E+01 0. -1.
        -11    1    1    2    0    0 -0.15643406809E+02 -0.46691943272E+02  0.48935631722E+02  0.69422977429E+02  0.00000000000E+00 0. -1.
         11    1    1    2    0    0  0.91251330965E+01  0.28279322876E+02  0.11016274339E+03  0.11410003587E+03  0.00000000000E+00 0.  1.
<mgrwt>
<rscale>  0 0.11667096E+03</rscale>
<asrwt>0</asrwt>
<pdfrwt beam="2">  1        3 0.46961712E-02 0.12652507E+03</pdfrwt>
<pdfrwt beam="1">  1       -3 0.59977620E-01 0.12652507E+03</pdfrwt>
<totfact> 0.15755900E+03</totfact>
</mgrwt>
</event>
<event>
 7    1  0.8712071E-006  0.1846967E+03  0.7546771E-02  0.1168470E+00
          1   -1    0    0  501    0  0.00000000000E+00  0.00000000000E+00  0.15928656021E+03  0.15928656021E+03  0.00000000000E+00 0. -1.
         -1   -1    0    0    0  501 -0.00000000000E+00 -0.00000000000E+00 -0.26863898851E+03  0.26863898851E+03  0.00000000000E+00 0.  1.
         23    2    1    2    0    0 -0.12971575319E+03 -0.40754546088E+02 -0.17191100413E+03  0.25232171963E+03  0.12500298880E+03 0.  0.
          5    1    3    3  502    0 -0.65347668201E+02  0.42530367570E+02 -0.87682902688E+02  0.11742883517E+03  0.47000000000E+01 0.  1.
         -5    1    3    3    0  502 -0.64368084987E+02 -0.83284913659E+02 -0.84228101439E+02  0.13489288447E+03  0.47000000000E+01 0.  1.
        -11    1    1    2    0    0  0.10262629684E+03 -0.13424982493E+02  0.38645699234E+02  0.11048021102E+03  0.00000000000E+00 0.  1.
         11    1    1    2    0    0  0.27089456344E+02  0.54179528581E+02  0.23912876590E+02  0.65123618059E+02  0.00000000000E+00 0. -1.
<mgrwt>
<rscale>  0 0.17931226E+03</rscale>
<asrwt>0</asrwt>
<pdfrwt beam="1">  1        1 0.24505625E-01 0.18469666E+03</pdfrwt>
<pdfrwt beam="2">  1       -1 0.41329075E-01 0.18469666E+03</pdfrwt>
<totfact> 0.11356503E+03</totfact>
</mgrwt>
</event>
<event>
 7    1  0.8712071E-006  0.1410236E+03  0.7546771E-02  0.1222186E+00
         -1   -1    0    0    0  501 -0.00000000000E+00  0.00000000000E+00  0.58788461273E+03  0.58788461273E+03  0.00000000000E+00 0.  1.
          1   -1    0    0  501    0  0.00000000000E+00 -0.00000000000E+00 -0.29012169157E+02  0.29012169157E+02  0.00000000000E+00 0. -1.
         23    2    1    2    0    0 -0.61363112631E+02  0.22275400227E+02  0.37612528090E+03  0.40169378368E+03  0.12500417541E+03 0.  0.
          5    1    3    3  502    0 -0.89956140385E+02  0.45573673634E+02  0.23527356269E+03  0.25601719908E+03  0.47000000000E+01 0.  1.
         -5    1    3    3    0  502  0.28593027754E+02 -0.23298273407E+02  0.14085171821E+03  0.14567658460E+03  0.47000000000E+01 0.  1.
        -11    1    1    2    0    0  0.25136833340E+02 -0.47928204381E+02  0.15161500058E+03  0.16098472463E+03  0.00000000000E+00 0.  1.
         11    1    1    2    0    0  0.36226279292E+02  0.25652804153E+02  0.31132162093E+02  0.54218273570E+02  0.00000000000E+00 0. -1.
<mgrwt>
<rscale>  0 0.13361621E+03</rscale>
<asrwt>0</asrwt>
<pdfrwt beam="2">  1        1 0.44634111E-02 0.14102365E+03</pdfrwt>
<pdfrwt beam="1">  1       -1 0.90443778E-01 0.14102365E+03</pdfrwt>
<totfact> 0.23777573E+03</totfact>
</mgrwt>
</event>
<event>
 7    1  0.8712071E-006  0.1336426E+03  0.7546771E-02  0.1235650E+00
          3   -1    0    0  501    0  0.00000000000E+00  0.00000000000E+00  0.10684157269E+03  0.10684157269E+03  0.00000000000E+00 0. -1.
         -3   -1    0    0    0  501 -0.00000000000E+00 -0.00000000000E+00 -0.14420570349E+03  0.14420570349E+03  0.00000000000E+00 0.  1.
         23    2    1    2    0    0  0.34283183608E+02  0.32550842909E+02 -0.61524588443E+02  0.14712450950E+03  0.12500180902E+03 0.  0.
          5    1    3    3  502    0 -0.30276567960E+02  0.13037427300E+02  0.21817284555E+02  0.39808654629E+02  0.47000000000E+01 0.  1.
         -5    1    3    3    0  502  0.64559751568E+02  0.19513415609E+02 -0.83341872998E+02  0.10731585487E+03  0.47000000000E+01 0.  1.
        -11    1    1    2    0    0 -0.28377563176E+02  0.28099358562E+02  0.63591122525E+01  0.40438822338E+02  0.00000000000E+00 0. -1.
         11    1    1    2    0    0 -0.59056204320E+01 -0.60650201471E+02  0.17801345390E+02  0.63483944339E+02  0.00000000000E+00 0.  1.
<mgrwt>
<rscale>  0 0.12462924E+03</rscale>
<asrwt>0</asrwt>
<pdfrwt beam="1">  1        3 0.16437165E-01 0.13364261E+03</pdfrwt>
<pdfrwt beam="2">  1       -3 0.22185493E-01 0.13364261E+03</pdfrwt>
<totfact> 0.13552192E+03</totfact>
</mgrwt>
</event>
<event>
 6    1  0.8712071E-006  0.2004888E+03  0.7546771E-02  0.1156299E+00
         -2   -1    0    0    0  501 -0.00000000000E+00  0.00000000000E+00  0.10906086438E+03  0.10906086438E+03  0.00000000000E+00 0. -1.
          2   -1    0    0  501    0  0.00000000000E+00 -0.00000000000E+00 -0.66649791016E+03  0.66649791016E+03  0.00000000000E+00 0.  1.
          5    1    1    2  502    0  0.69038590194E+02 -0.92585402109E+02  0.52935462136E+02  0.12713235926E+03  0.47000000000E+01 0. -1.
         -5    1    1    2    0  502 -0.11811874294E+02 -0.38697616812E+02 -0.61213936575E+02  0.73527287127E+02  0.47000000000E+01 0.  1.
        -11    1    1    2    0    0 -0.21768834159E+02  0.31100458623E+02 -0.41530963917E+02  0.56266700908E+02  0.00000000000E+00 0. -1.
         11    1    1    2    0    0 -0.35457881742E+02  0.10018256030E+03 -0.50762760742E+03  0.51863242724E+03  0.00000000000E+00 0.  1.
<mgrwt>
<rscale>  0 0.19241699E+03</rscale>
<asrwt>0</asrwt>
<pdfrwt beam="2">  1        2 0.10253814E+00 0.20048880E+03</pdfrwt>
<pdfrwt beam="1">  1       -2 0.16778594E-01 0.20048880E+03</pdfrwt>
<totfact> 0.12615834E+03</totfact>
</mgrwt>
</event>
<event>
 7    1  0.8712071E-006  0.1250342E+03  0.7546771E-02  0.1250930E+00
         -2   -1    0    0    0  501 -0.00000000000E+00  0.00000000000E+00  0.71996427168E+02  0.71996427168E+02  0.00000000000E+00 0.  1.
          2   -1    0    0  501    0  0.00000000000E+00 -0.00000000000E+00 -0.16293063978E+03  0.16293063978E+03  0.00000000000E+00 0. -1.
         23    2    1    2    0    0  0.29605604508E+01  0.33163472862E-01 -0.41884712020E+02  0.13186306449E+03  0.12499909063E+03 0.  0.
          5    1    3    3  502    0  0.19184834680E+02  0.48969506619E+02 -0.57229099283E+02  0.77867388969E+02  0.47000000000E+01 0.  1.
         -5    1    3    3    0  502 -0.16224274229E+02 -0.48936343146E+02  0.15344387263E+02  0.53995675523E+02  0.47000000000E+01 0.  1.
        -11    1    1    2    0    0 -0.26518804533E+02  0.12648647493E+02  0.15478902244E+02  0.33208909827E+02  0.00000000000E+00 0.  1.
         11    1    1    2    0    0  0.23558244082E+02 -0.12681810965E+02 -0.64528402838E+02  0.69855092630E+02  0.00000000000E+00 0. -1.
<mgrwt>
<rscale>  0 0.11537355E+03</rscale>
<asrwt>0</asrwt>
<pdfrwt beam="2">  1        2 0.25066252E-01 0.12503415E+03</pdfrwt>
<pdfrwt beam="1">  1       -2 0.11076373E-01 0.12503415E+03</pdfrwt>
<totfact> 0.11265595E+04</totfact>
</mgrwt>
</event>
<event>
 7    1  0.8712071E-006  0.2910714E+03  0.7546771E-02  0.1091527E+00
          2   -1    0    0  501    0  0.00000000000E+00  0.00000000000E+00  0.19881818147E+04  0.19881818147E+04  0.00000000000E+00 0. -1.
         -2   -1    0    0    0  501 -0.00000000000E+00 -0.00000000000E+00 -0.40846991088E+02  0.40846991088E+02  0.00000000000E+00 0.  1.
         23    2    1    2    0    0  0.26281754340E+03 -0.49116146116E+01  0.94048266268E+03  0.98449488289E+03  0.12500140217E+03 0.  0.
          5    1    3    3  502    0  0.26825017657E+03 -0.23245636131E+02  0.90085062923E+03  0.94024064101E+03  0.47000000000E+01 0.  1.
         -5    1    3    3    0  502 -0.54326331677E+01  0.18334021519E+02  0.39632033452E+02  0.44254241873E+02  0.47000000000E+01 0.  1.
        -11    1    1    2    0    0 -0.24595980924E+03 -0.20527239573E+02  0.91730056472E+03  0.94992521883E+03  0.00000000000E+00 0.  1.
         11    1    1    2    0    0 -0.16857734164E+02  0.25438854184E+02  0.89551596236E+02  0.94608704102E+02  0.00000000000E+00 0. -1.
<mgrwt>
<rscale>  0 0.28775437E+03</rscale>
<asrwt>0</asrwt>
<pdfrwt beam="1">  1        2 0.30587405E+00 0.29107136E+03</pdfrwt>
<pdfrwt beam="2">  1       -2 0.62841540E-02 0.29107136E+03</pdfrwt>
<totfact> 0.10363567E+03</totfact>
</mgrwt>
</event>
<event>
 6    1  0.8712071E-006  0.2016415E+03  0.7546771E-02  0.1177636E+00
         -1   -1    0    0    0  501 -0.00000000000E+00  0.00000000000E+00  0.83256306976E+02  0.83256306976E+02  0.00000000000E+00 0.  1.
          1   -1    0    0  501    0  0.00000000000E+00 -0.00000000000E+00 -0.29604738547E+03  0.29604738547E+03  0.00000000000E+00 0. -1.
          5    1    1    2  502    0  0.66367650493E+01  0.91575912644E+02 -0.64255191865E+02  0.11216511984E+03  0.47000000000E+01 0. -1.
         -5    1    1    2    0  502  0.38155950219E+02 -0.99013212756E+02 -0.29685000301E+02  0.11028500388E+03  0.47000000000E+01 0.  1.
        -11    1    1    2    0    0 -0.33902821933E+02  0.46743529963E+02 -0.47945587282E+02  0.75054235512E+02  0.00000000000E+00 0. -1.
         11    1    1    2    0    0 -0.10889893335E+02 -0.39306229851E+02 -0.70905299042E+02  0.81799333214E+02  0.00000000000E+00 0.  1.
<mgrwt>
<rscale>  0 0.17020300E+03</rscale>
<asrwt>0</asrwt>
<pdfrwt beam="2">  1        1 0.45545752E-01 0.20164151E+03</pdfrwt>
<pdfrwt beam="1">  1       -1 0.12808662E-01 0.20164151E+03</pdfrwt>
<totfact> 0.36204081E+03</totfact>
</mgrwt>
</event>
<event>
 7    1  0.8712071E-006  0.1586408E+03  0.7546771E-02  0.1198146E+00
          2   -1    0    0  501    0  0.00000000000E+00  0.00000000000E+00  0.12657701582E+03  0.12657701582E+03  0.00000000000E+00 0. -1.
         -2   -1    0    0    0  501 -0.00000000000E+00 -0.00000000000E+00 -0.26432317185E+03  0.26432317185E+03  0.00000000000E+00 0.  1.
         23    2    1    2    0    0 -0.93032943492E+02 -0.29780138456E+02 -0.19011161956E+03  0.24760720352E+03  0.12499965648E+03 0.  0.
          5    1    3    3  502    0 -0.34253542893E+01 -0.44569991823E+00  0.18087621034E+02  0.19004834519E+02  0.47000000000E+01 0. -1.
         -5    1    3    3    0  502 -0.89607589202E+02 -0.29334438537E+02 -0.20819924060E+03  0.22860236900E+03  0.47000000000E+01 0. -1.
        -11    1    1    2    0    0  0.42852766098E+02  0.31609848895E+02  0.71850250849E+02  0.89431541731E+02  0.00000000000E+00 0. -1.
         11    1    1    2    0    0  0.50180177394E+02 -0.18297104396E+01 -0.19484787312E+02  0.53861442426E+02  0.00000000000E+00 0.  1.
<mgrwt>
<rscale>  0 0.15190966E+03</rscale>
<asrwt>0</asrwt>
<pdfrwt beam="1">  1        2 0.19473387E-01 0.15864079E+03</pdfrwt>
<pdfrwt beam="2">  1       -2 0.40665103E-01 0.15864079E+03</pdfrwt>
<totfact> 0.16209213E+03</totfact>
</mgrwt>
</event>
<event>
 7    1  0.8712071E-006  0.1281611E+03  0.7546771E-02  0.1243649E+00
         -1   -1    0    0    0  501 -0.00000000000E+00  0.00000000000E+00  0.44396075515E+02  0.44396075515E+02  0.00000000000E+00 0.  1.
          1   -1    0    0  501    0  0.00000000000E+00 -0.00000000000E+00 -0.30365411530E+03  0.30365411530E+03  0.00000000000E+00 0. -1.
         23    2    1    2    0    0  0.24002884527E+02 -0.14982609468E+02 -0.10534247842E+03  0.16589844916E+03  0.12499856248E+03 0.  0.
          5    1    3    3  502    0 -0.27220189619E+02  0.35940354449E+02 -0.74528991201E+02  0.87231349469E+02  0.47000000000E+01 0.  1.
         -5    1    3    3    0  502  0.51223074146E+02 -0.50922963917E+02 -0.30813487216E+02  0.78667099689E+02  0.47000000000E+01 0.  1.
        -11    1    1    2    0    0 -0.33023661659E+02  0.69257622418E+01 -0.16335868699E+03  0.16680704130E+03  0.00000000000E+00 0. -1.
         11    1    1    2    0    0  0.90207771321E+01  0.80568472261E+01  0.94431256270E+01  0.15344700352E+02  0.00000000000E+00 0.  1.
<mgrwt>
<rscale>  0 0.11966609E+03</rscale>
<asrwt>0</asrwt>
<pdfrwt beam="2">  1        1 0.46716018E-01 0.12816106E+03</pdfrwt>
<pdfrwt beam="1">  1       -1 0.68301655E-02 0.12816106E+03</pdfrwt>
<totfact> 0.89343652E+03</totfact>
</mgrwt>
</event>
<event>
 7    1  0.8712071E-006  0.1369382E+03  0.7546771E-02  0.1224567E+00
         -2   -1    0    0    0  501 -0.00000000000E+00  0.00000000000E+00  0.38148166511E+02  0.38148166511E+02  0.00000000000E+00 0.  1.
          2   -1    0    0  501    0  0.00000000000E+00 -0.00000000000E+00 -0.43702075239E+03  0.43702075239E+03  0.00000000000E+00 0. -1.
         23    2    1    2    0    0 -0.19999815559E+02 -0.52231045443E+02 -0.17666104102E+03  0.22351998507E+03  0.12499594226E+03 0.  0.
          5    1    3    3  502    0  0.51305682906E+02 -0.11724508683E+02 -0.51301980783E+02  0.73645912545E+02  0.47000000000E+01 0. -1.
         -5    1    3    3    0  502 -0.71305498465E+02 -0.40506536760E+02 -0.12535906024E+03  0.14987407253E+03  0.47000000000E+01 0. -1.
        -11    1    1    2    0    0  0.65972981464E+01  0.52639326123E+02 -0.23006988745E+03  0.23610712846E+03  0.00000000000E+00 0. -1.
         11    1    1    2    0    0  0.13402517412E+02 -0.40828067982E+00  0.78583425885E+01  0.15541805376E+02  0.00000000000E+00 0.  1.
<mgrwt>
<rscale>  0 0.13196601E+03</rscale>
<asrwt>0</asrwt>
<pdfrwt beam="2">  1        2 0.67233962E-01 0.13693816E+03</pdfrwt>
<pdfrwt beam="1">  1       -2 0.58689487E-02 0.13693816E+03</pdfrwt>
<totfact> 0.10532484E+04</totfact>
</mgrwt>
</event>
<event>
 6    1  0.8712071E-006  0.1561545E+03  0.7546771E-02  0.1216929E+00
         -2   -1    0    0    0  501 -0.00000000000E+00  0.00000000000E+00  0.23000814617E+03  0.23000814617E+03  0.00000000000E+00 0.  1.
          2   -1    0    0  501    0  0.00000000000E+00 -0.00000000000E+00 -0.87828268380E+02  0.87828268380E+02  0.00000000000E+00 0. -1.
          5    1    1    2  502    0  0.57718146757E+02 -0.49432656689E+02  0.30495810043E+02  0.82018634728E+02  0.47000000000E+01 0. -1.
         -5    1    1    2    0  502 -0.47886411578E+02  0.31739755466E+02  0.12849534915E+03  0.14083204623E+03  0.47000000000E+01 0.  1.
        -11    1    1    2    0    0  0.13861837298E+02 -0.30142725221E+02 -0.24240401557E+02  0.41089311076E+02  0.00000000000E+00 0.  1.
         11    1    1    2    0    0 -0.23693572477E+02  0.47835626443E+02  0.74291201506E+01  0.53896422517E+02  0.00000000000E+00 0. -1.
<mgrwt>
<rscale>  0 0.13735764E+03</rscale>
<asrwt>0</asrwt>
<pdfrwt beam="2">  1        2 0.13512041E-01 0.15615453E+03</pdfrwt>
<pdfrwt beam="1">  1       -2 0.35385868E-01 0.15615453E+03</pdfrwt>
<totfact> 0.32195537E+03</totfact>
</mgrwt>
</event>
<event>
 7    1  0.8712071E-006  0.4974673E+03  0.7546771E-02  0.1014944E+00
         -1   -1    0    0    0  501 -0.00000000000E+00  0.00000000000E+00  0.16716851902E+04  0.16716851902E+04  0.00000000000E+00 0.  1.
          1   -1    0    0  501    0  0.00000000000E+00 -0.00000000000E+00 -0.29273113186E+03  0.29273113186E+03  0.00000000000E+00 0. -1.
         23    2    1    2    0    0 -0.34493806166E+03 -0.33595457693E+03  0.13879836320E+04  0.14744396408E+04  0.12500378969E+03 0.  0.
          5    1    3    3  502    0 -0.17560795017E+03 -0.25517365808E+03  0.86416378367E+03  0.91801573132E+03  0.47000000000E+01 0. -1.
         -5    1    3    3    0  502 -0.16933011149E+03 -0.80780918852E+02  0.52381984833E+03  0.55642390945E+03  0.47000000000E+01 0. -1.
        -11    1    1    2    0    0  0.30936967841E+03  0.33248787271E+03 -0.82031845605E+01  0.45423020117E+03  0.00000000000E+00 0. -1.
         11    1    1    2    0    0  0.35568383252E+02  0.34667042221E+01 -0.82638905731E+00  0.35746480165E+02  0.00000000000E+00 0.  1.
<mgrwt>
<rscale>  0 0.49556292E+03</rscale>
<asrwt>0</asrwt>
<pdfrwt beam="2">  1        1 0.45035560E-01 0.49746728E+03</pdfrwt>
<pdfrwt beam="1">  1       -1 0.25718233E+00 0.49746728E+03</pdfrwt>
<totfact> 0.61388612E+00</totfact>
</mgrwt>
</event>
<event>
 7    1  0.8712071E-006  0.1366107E+03  0.7546771E-02  0.1230191E+00
         -2   -1    0    0    0  501 -0.00000000000E+00  0.00000000000E+00  0.47866032261E+02  0.47866032261E+02  0.00000000000E+00 0.  1.
          2   -1    0    0  501    0  0.00000000000E+00 -0.00000000000E+00 -0.46089545284E+03  0.46089545284E+03  0.00000000000E+00 0. -1.
         23    2    1    2    0    0  0.11724582169E+00 -0.55113701661E+02 -0.77794262954E+02  0.15720821719E+03  0.12499976938E+03 0.  0.
          5    1    3    3  502    0  0.17260645071E+02 -0.32212666661E+02 -0.10873478241E+03  0.11480822561E+03  0.47000000000E+01 0.  1.
         -5    1    3    3    0  502 -0.17143399249E+02 -0.22901035000E+02  0.30940519453E+02  0.42399991579E+02  0.47000000000E+01 0.  1.
        -11    1    1    2    0    0 -0.99241500816E+01 -0.21425617840E+02 -0.40466021760E+02  0.46851304910E+02  0.00000000000E+00 0.  1.
         11    1    1    2    0    0  0.98069042599E+01  0.76539319501E+02 -0.29476913586E+03  0.30470196300E+03  0.00000000000E+00 0. -1.
<mgrwt>
<rscale>  0 0.12817404E+03</rscale>
<asrwt>0</asrwt>
<pdfrwt beam="2">  1        2 0.70906997E-01 0.13661067E+03</pdfrwt>
<pdfrwt beam="1">  1       -2 0.73640046E-02 0.13661067E+03</pdfrwt>
<totfact> 0.70336838E+03</totfact>
</mgrwt>
</event>
<event>
 7    1  0.8712071E-006  0.1541154E+03  0.7546771E-02  0.1203421E+00
          2   -1    0    0  501    0  0.00000000000E+00  0.00000000000E+00  0.76458731201E+03  0.76458731201E+03  0.00000000000E+00 0. -1.
         -2   -1    0    0    0  501 -0.00000000000E+00 -0.00000000000E+00 -0.29770299562E+02  0.29770299562E+02  0.00000000000E+00 0.  1.
         23    2    1    2    0    0 -0.90079391065E+02 -0.33407484989E+01  0.26108225528E+03  0.30317570997E+03  0.12500443911E+03 0.  0.
          5    1    3    3  502    0 -0.55055848581E+02  0.31942862039E+02  0.37374910474E+02  0.73962604275E+02  0.47000000000E+01 0.  1.
         -5    1    3    3    0  502 -0.35023542484E+02 -0.35283610538E+02  0.22370734480E+03  0.22921310569E+03  0.47000000000E+01 0.  1.
        -11    1    1    2    0    0  0.17818957714E+02  0.42178735482E+02  0.21214912369E+03  0.21703412558E+03  0.00000000000E+00 0.  1.
         11    1    1    2    0    0  0.72260433351E+02 -0.38837986983E+02  0.26158563347E+03  0.27414777603E+03  0.00000000000E+00 0. -1.
<mgrwt>
<rscale>  0 0.14762550E+03</rscale>
<asrwt>0</asrwt>
<pdfrwt beam="1">  1        2 0.11762880E+00 0.15411543E+03</pdfrwt>
<pdfrwt beam="2">  1       -2 0.45800467E-02 0.15411543E+03</pdfrwt>
<totfact> 0.81543147E+03</totfact>
</mgrwt>
</event>
<event>
 7    1  0.8712071E-006  0.1698237E+03  0.7546771E-02  0.1184736E+00
          1   -1    0    0  501    0  0.00000000000E+00  0.00000000000E+00  0.39633808591E+02  0.39633808591E+02  0.00000000000E+00 0. -1.
         -1   -1    0    0    0  501 -0.00000000000E+00 -0.00000000000E+00 -0.68168953957E+03  0.68168953957E+03  0.00000000000E+00 0.  1.
         23    2    1    2    0    0 -0.89203830839E+02 -0.72515820015E+02 -0.44268562240E+03  0.47414202826E+03  0.12499694031E+03 0.  0.
          5    1    3    3  502    0 -0.94200239112E+02 -0.60946485327E+02 -0.44630330066E+03  0.46021395600E+03  0.47000000000E+01 0. -1.
         -5    1    3    3    0  502  0.49964082734E+01 -0.11569334689E+02  0.36176782522E+01  0.13928072254E+02  0.47000000000E+01 0. -1.
        -11    1    1    2    0    0  0.58481548326E+02  0.47049370785E+02 -0.19259674078E+03  0.20670568291E+03  0.00000000000E+00 0.  1.
         11    1    1    2    0    0  0.30722282513E+02  0.25466449230E+02 -0.67733677944E+01  0.40475636999E+02  0.00000000000E+00 0. -1.
<mgrwt>
<rscale>  0 0.16355881E+03</rscale>
<asrwt>0</asrwt>
<pdfrwt beam="1">  1        1 0.60975102E-02 0.16982374E+03</pdfrwt>
<pdfrwt beam="2">  1       -1 0.10487529E+00 0.16982374E+03</pdfrwt>
<totfact> 0.11302178E+03</totfact>
</mgrwt>
</event>
<event>
 7    1  0.8712071E-006  0.2181337E+03  0.7546771E-02  0.1138218E+00
         -2   -1    0    0    0  501 -0.00000000000E+00  0.00000000000E+00  0.42001937110E+02  0.42001937110E+02  0.00000000000E+00 0.  1.
          2   -1    0    0  501    0  0.00000000000E+00 -0.00000000000E+00 -0.11390014672E+04  0.11390014672E+04  0.00000000000E+00 0. -1.
         23    2    1    2    0    0 -0.83630645348E+02 -0.15800433798E+03 -0.40760326628E+03  0.46230158323E+03  0.12499150177E+03 0.  0.
          5    1    3    3  502    0 -0.50505992330E+02 -0.88173103197E+02 -0.35348927694E+03  0.36783435171E+03  0.47000000000E+01 0. -1.
         -5    1    3    3    0  502 -0.33124653018E+02 -0.69831234779E+02 -0.54113989342E+02  0.94467231518E+02  0.47000000000E+01 0. -1.
        -11    1    1    2    0    0  0.10306338294E+03  0.13393796938E+03 -0.52865401411E+03  0.55501036673E+03  0.00000000000E+00 0.  1.
         11    1    1    2    0    0 -0.19432737595E+02  0.24066368595E+02 -0.16074224966E+03  0.16369145431E+03  0.00000000000E+00 0. -1.
<mgrwt>
<rscale>  0 0.21428413E+03</rscale>
<asrwt>0</asrwt>
<pdfrwt beam="2">  1        2 0.17523101E+00 0.21813375E+03</pdfrwt>
<pdfrwt beam="1">  1       -2 0.64618358E-02 0.21813375E+03</pdfrwt>
<totfact> 0.28499421E+03</totfact>
</mgrwt>
</event>
<event>
 7    1  0.8712071E-006  0.3498391E+03  0.7546771E-02  0.1063765E+00
          2   -1    0    0  501    0  0.00000000000E+00  0.00000000000E+00  0.97541607283E+03  0.97541607283E+03  0.00000000000E+00 0. -1.
         -2   -1    0    0    0  501 -0.00000000000E+00 -0.00000000000E+00 -0.12177267226E+03  0.12177267226E+03  0.00000000000E+00 0.  1.
         23    2    1    2    0    0  0.32636664364E+03 -0.15667439071E+02  0.43440759216E+03  0.55776103567E+03  0.12500704803E+03 0.  0.
          5    1    3    3  502    0  0.50071580844E+02 -0.46154285457E+02  0.12009560050E+03  0.13813914917E+03  0.47000000000E+01 0.  1.
         -5    1    3    3    0  502  0.27629506280E+03  0.30486846387E+02  0.31431199167E+03  0.41962188650E+03  0.47000000000E+01 0.  1.
        -11    1    1    2    0    0 -0.28605456844E+02  0.22295434373E+02  0.20254334237E+02  0.41540301040E+02  0.00000000000E+00 0.  1.
         11    1    1    2    0    0 -0.29776118680E+03 -0.66279953023E+01  0.39898147417E+03  0.49788740837E+03  0.00000000000E+00 0. -1.
<mgrwt>
<rscale>  0 0.34721139E+03</rscale>
<asrwt>0</asrwt>
<pdfrwt beam="1">  1        2 0.15006401E+00 0.34983913E+03</pdfrwt>
<pdfrwt beam="2">  1       -2 0.18734258E-01 0.34983913E+03</pdfrwt>
<totfact> 0.63905191E+02</totfact>
</mgrwt>
</event>
<event>
 7    1  0.8712071E-006  0.1557942E+03  0.7546771E-02  0.1201837E+00
          2   -1    0    0  501    0  0.00000000000E+00  0.00000000000E+00  0.92582202992E+02  0.92582202992E+02  0.00000000000E+00 0. -1.
         -2   -1    0    0    0  501 -0.00000000000E+00 -0.00000000000E+00 -0.22938759749E+03  0.22938759749E+03  0.00000000000E+00 0.  1.
         23    2    1    2    0    0  0.61165156700E+02  0.70040233168E+02 -0.10586547423E+03  0.18835958492E+03  0.12500009576E+03 0.  0.
          5    1    3    3  502    0  0.65077764472E+02  0.98513939615E+01  0.50433517222E+00  0.65988709228E+02  0.47000000000E+01 0.  1.
         -5    1    3    3    0  502 -0.39126077717E+01  0.60188839206E+02 -0.10636980940E+03  0.12237087569E+03  0.47000000000E+01 0.  1.
        -11    1    1    2    0    0  0.41083287680E-01 -0.56590173577E+02 -0.41346290832E+02  0.70085413596E+02  0.00000000000E+00 0.  1.
         11    1    1    2    0    0 -0.61206239988E+02 -0.13450059591E+02  0.10406370567E+02  0.63524801966E+02  0.00000000000E+00 0. -1.
<mgrwt>
<rscale>  0 0.14889543E+03</rscale>
<asrwt>0</asrwt>
<pdfrwt beam="1">  1        2 0.14243416E-01 0.15579421E+03</pdfrwt>
<pdfrwt beam="2">  1       -2 0.35290400E-01 0.15579421E+03</pdfrwt>
<totfact> 0.30391981E+03</totfact>
</mgrwt>
</event>
<event>
 7    1  0.8712071E-006  0.1304025E+03  0.7546771E-02  0.1235618E+00
         -2   -1    0    0    0  501 -0.00000000000E+00  0.00000000000E+00  0.49154942713E+03  0.49154942713E+03  0.00000000000E+00 0.  1.
          2   -1    0    0  501    0  0.00000000000E+00 -0.00000000000E+00 -0.29567838435E+02  0.29567838435E+02  0.00000000000E+00 0. -1.
         23    2    1    2    0    0 -0.32750135337E+02 -0.17473158888E+02  0.28348950002E+03  0.31204343704E+03  0.12500770910E+03 0.  0.
          5    1    3    3  502    0 -0.42981120642E+02  0.13505366126E+02  0.25549806556E+02  0.52006290589E+02  0.47000000000E+01 0. -1.
         -5    1    3    3    0  502  0.10230985305E+02 -0.30978525013E+02  0.25793969346E+03  0.26003714645E+03  0.47000000000E+01 0. -1.
        -11    1    1    2    0    0 -0.15790014350E+02 -0.24948330399E+02  0.14556198134E+02  0.32918484883E+02  0.00000000000E+00 0. -1.
         11    1    1    2    0    0  0.48540149687E+02  0.42421489287E+02  0.16393589054E+03  0.17615534364E+03  0.00000000000E+00 0.  1.
<mgrwt>
<rscale>  0 0.12464946E+03</rscale>
<asrwt>0</asrwt>
<pdfrwt beam="2">  1        2 0.45488986E-02 0.13040249E+03</pdfrwt>
<pdfrwt beam="1">  1       -2 0.75622983E-01 0.13040249E+03</pdfrwt>
<totfact> 0.27428906E+03</totfact>
</mgrwt>
</event>
<event>
 7    1  0.8712071E-006  0.1716687E+03  0.7546771E-02  0.1182264E+00
         -2   -1    0    0    0  501 -0.00000000000E+00  0.00000000000E+00  0.85029943047E+02  0.85029943047E+02  0.00000000000E+00 0.  1.
          2   -1    0    0  501    0  0.00000000000E+00 -0.00000000000E+00 -0.31323154733E+03  0.31323154733E+03  0.00000000000E+00 0. -1.
         23    2    1    2    0    0 -0.90809825666E+02 -0.74825750380E+02 -0.86271178729E+02  0.19212719498E+03  0.12499930166E+03 0.  0.
          5    1    3    3  502    0 -0.10316483983E+03 -0.27062015789E+02 -0.18785504267E+02  0.10839890243E+03  0.47000000000E+01 0.  1.
         -5    1    3    3    0  502  0.12355014168E+02 -0.47763734591E+02 -0.67485674462E+02  0.83728292559E+02  0.47000000000E+01 0.  1.
        -11    1    1    2    0    0  0.42810485555E+02  0.23911550232E+02 -0.12481054169E+03  0.13409761826E+03  0.00000000000E+00 0. -1.
         11    1    1    2    0    0  0.47999340111E+02  0.50914200148E+02 -0.17119883864E+02  0.72036677125E+02  0.00000000000E+00 0.  1.
<mgrwt>
<rscale>  0 0.16583301E+03</rscale>
<asrwt>0</asrwt>
<pdfrwt beam="2">  1        2 0.48189469E-01 0.17166870E+03</pdfrwt>
<pdfrwt beam="1">  1       -2 0.13081530E-01 0.17166870E+03</pdfrwt>
<totfact> 0.43605399E+03</totfact>
</mgrwt>
</event>
<event>
 7    1  0.8712071E-006  0.1756745E+03  0.7546771E-02  0.1177858E+00
         -2   -1    0    0    0  501 -0.00000000000E+00  0.00000000000E+00  0.23751693611E+02  0.23751693611E+02  0.00000000000E+00 0.  1.
          2   -1    0    0  501    0  0.00000000000E+00 -0.00000000000E+00 -0.12165666589E+04  0.12165666589E+04  0.00000000000E+00 0. -1.
         23    2    1    2    0    0 -0.60659836920E+02 -0.10750290919E+03 -0.48220067430E+03  0.51320465429E+03  0.12500014238E+03 0.  0.
          5    1    3    3  502    0 -0.77252967647E+02 -0.46920619993E+02 -0.39736056794E+03  0.40753782223E+03  0.47000000000E+01 0.  1.
         -5    1    3    3    0  502  0.16593130727E+02 -0.60582289200E+02 -0.84840106350E+02  0.10566683206E+03  0.47000000000E+01 0.  1.
        -11    1    1    2    0    0  0.69668601892E+02  0.36585650817E+02 -0.29091787482E+03  0.30137258307E+03  0.00000000000E+00 0.  1.
         11    1    1    2    0    0 -0.90087649724E+01  0.70917258376E+02 -0.41969641616E+03  0.42574111513E+03  0.00000000000E+00 0. -1.
<mgrwt>
<rscale>  0 0.16999050E+03</rscale>
<asrwt>0</asrwt>
<pdfrwt beam="2">  1        2 0.18716410E+00 0.17567449E+03</pdfrwt>
<pdfrwt beam="1">  1       -2 0.36541068E-02 0.17567449E+03</pdfrwt>
<totfact> 0.60752103E+03</totfact>
</mgrwt>
</event>
<event>
 6    1  0.8712071E-006  0.2785491E+03  0.7546771E-02  0.1099684E+00
          1   -1    0    0  501    0  0.00000000000E+00  0.00000000000E+00  0.19184346103E+03  0.19184346103E+03  0.00000000000E+00 0. -1.
         -1   -1    0    0    0  501 -0.00000000000E+00 -0.00000000000E+00 -0.37596010177E+03  0.37596010177E+03  0.00000000000E+00 0.  1.
          5    1    1    2  502    0  0.39691464777E+02 -0.18906565755E+03 -0.95575007086E+02  0.21558735404E+03  0.47000000000E+01 0. -1.
         -5    1    1    2    0  502  0.82577139310E+02 -0.17177043839E+02 -0.26471628318E+02  0.88526108451E+02  0.47000000000E+01 0.  1.
        -11    1    1    2    0    0 -0.39041333911E+02  0.77379250834E+02 -0.68014868999E+02  0.11017166885E+03  0.00000000000E+00 0.  1.
         11    1    1    2    0    0 -0.83227270177E+02  0.12886345056E+03  0.59448636641E+01  0.15351843145E+03  0.00000000000E+00 0. -1.
<mgrwt>
<rscale>  0 0.27280688E+03</rscale>
<asrwt>0</asrwt>
<pdfrwt beam="1">  1        1 0.29514379E-01 0.27854913E+03</pdfrwt>
<pdfrwt beam="2">  1       -1 0.57840015E-01 0.27854913E+03</pdfrwt>
<totfact> 0.48421572E+02</totfact>
</mgrwt>
</event>
<event>
 7    1  0.8712071E-006  0.1263644E+03  0.7546771E-02  0.1248321E+00
          2   -1    0    0  501    0  0.00000000000E+00  0.00000000000E+00  0.22690958707E+03  0.22690958707E+03  0.00000000000E+00 0. -1.
         -2   -1    0    0    0  501 -0.00000000000E+00 -0.00000000000E+00 -0.79705230298E+02  0.79705230298E+02  0.00000000000E+00 0.  1.
         23    2    1    2    0    0  0.17168358146E+02  0.69061393018E+01 -0.72517314187E+01  0.12657233410E+03  0.12500208346E+03 0.  0.
          5    1    3    3  502    0 -0.32633895815E+02 -0.63904505190E+01 -0.49459581292E+02  0.59784188507E+02  0.47000000000E+01 0. -1.
         -5    1    3    3    0  502  0.49802253961E+02  0.13296589821E+02  0.42207849874E+02  0.66788145590E+02  0.47000000000E+01 0. -1.
        -11    1    1    2    0    0  0.19590248438E+02 -0.39035181350E+02  0.74644626798E+02  0.86483197944E+02  0.00000000000E+00 0. -1.
         11    1    1    2    0    0 -0.36758606584E+02  0.32129042049E+02  0.79811461388E+02  0.93559285321E+02  0.00000000000E+00 0.  1.
<mgrwt>
<rscale>  0 0.11688776E+03</rscale>
<asrwt>0</asrwt>
<pdfrwt beam="1">  1        2 0.34909167E-01 0.12636443E+03</pdfrwt>
<pdfrwt beam="2">  1       -2 0.12262343E-01 0.12636443E+03</pdfrwt>
<totfact> 0.67010334E+03</totfact>
</mgrwt>
</event>
<event>
 7    1  0.8712071E-006  0.1724247E+03  0.7546771E-02  0.1181537E+00
         -2   -1    0    0    0  501 -0.00000000000E+00  0.00000000000E+00  0.55605329205E+02  0.55605329205E+02  0.00000000000E+00 0.  1.
          2   -1    0    0  501    0  0.00000000000E+00 -0.00000000000E+00 -0.47027260904E+03  0.47027260904E+03  0.00000000000E+00 0. -1.
         23    2    1    2    0    0 -0.57187480368E+02  0.10408876462E+03 -0.20069208590E+03  0.26458948514E+03  0.12500161387E+03 0.  0.
          5    1    3    3  502    0  0.69329284167E+01 -0.25496544867E+02 -0.42165583476E+02  0.49981653898E+02  0.47000000000E+01 0.  1.
         -5    1    3    3    0  502 -0.64120408785E+02  0.12958530949E+03 -0.15852650243E+03  0.21460783124E+03  0.47000000000E+01 0.  1.
        -11    1    1    2    0    0  0.21911586644E+02 -0.69333305423E+02 -0.45709619352E+02  0.85887101310E+02  0.00000000000E+00 0.  1.
         11    1    1    2    0    0  0.35275893724E+02 -0.34755459202E+02 -0.16826557458E+03  0.17540135179E+03  0.00000000000E+00 0. -1.
<mgrwt>
<rscale>  0 0.16650962E+03</rscale>
<asrwt>0</asrwt>
<pdfrwt beam="2">  1        2 0.72349633E-01 0.17242471E+03</pdfrwt>
<pdfrwt beam="1">  1       -2 0.85546659E-02 0.17242471E+03</pdfrwt>
<totfact> 0.55264071E+03</totfact>
</mgrwt>
</event>
<event>
 7    1  0.8712071E-006  0.1306620E+03  0.7546771E-02  0.1240194E+00
          2   -1    0    0  501    0  0.00000000000E+00  0.00000000000E+00  0.53093475203E+03  0.53093475203E+03  0.00000000000E+00 0. -1.
         -2   -1    0    0    0  501 -0.00000000000E+00 -0.00000000000E+00 -0.27113132334E+02  0.27113132334E+02  0.00000000000E+00 0.  1.
         23    2    1    2    0    0 -0.37982379116E+02  0.21157281643E+01  0.20238161967E+03  0.24089599671E+03  0.12500169528E+03 0.  0.
          5    1    3    3  502    0 -0.50736106302E+02  0.51534648223E+02  0.78540002574E+02  0.10686718137E+03  0.47000000000E+01 0.  1.
         -5    1    3    3    0  502  0.12753727186E+02 -0.49418920058E+02  0.12384161709E+03  0.13402881534E+03  0.47000000000E+01 0.  1.
        -11    1    1    2    0    0  0.63407971155E+02 -0.36276765674E+01  0.26619482007E+03  0.27366660935E+03  0.00000000000E+00 0. -1.
         11    1    1    2    0    0 -0.25425592039E+02  0.15119484030E+01  0.35245179965E+02  0.43485278305E+02  0.00000000000E+00 0.  1.
<mgrwt>
<rscale>  0 0.12177723E+03</rscale>
<asrwt>0</asrwt>
<pdfrwt beam="1">  1        2 0.81682262E-01 0.13066201E+03</pdfrwt>
<pdfrwt beam="2">  1       -2 0.41712515E-02 0.13066201E+03</pdfrwt>
<totfact> 0.14164964E+04</totfact>
</mgrwt>
</event>
<event>
 7    1  0.8712071E-006  0.1314225E+03  0.7546771E-02  0.1239069E+00
         -2   -1    0    0    0  501 -0.00000000000E+00  0.00000000000E+00  0.68260897541E+03  0.68260897541E+03  0.00000000000E+00 0.  1.
          2   -1    0    0  501    0  0.00000000000E+00 -0.00000000000E+00 -0.19621001141E+02  0.19621001141E+02  0.00000000000E+00 0. -1.
         23    2    1    2    0    0  0.20221136542E+02 -0.35186669055E+02  0.40841879809E+03  0.42904288218E+03  0.12499953628E+03 0.  0.
          5    1    3    3  502    0  0.42264044182E+01 -0.81679794764E+02  0.24633660045E+03  0.25960212265E+03  0.47000000000E+01 0.  1.
         -5    1    3    3    0  502  0.15994732123E+02  0.46493125709E+02  0.16208219765E+03  0.16944075952E+03  0.47000000000E+01 0.  1.
        -11    1    1    2    0    0 -0.37532191476E+02  0.52316238740E+02  0.11762536136E+03  0.13409466756E+03  0.00000000000E+00 0. -1.
         11    1    1    2    0    0  0.17311054935E+02 -0.17129569685E+02  0.13694381482E+03  0.13909242682E+03  0.00000000000E+00 0.  1.
<mgrwt>
<rscale>  0 0.12247513E+03</rscale>
<asrwt>0</asrwt>
<pdfrwt beam="2">  1        2 0.30186161E-02 0.13142253E+03</pdfrwt>
<pdfrwt beam="1">  1       -2 0.10501675E+00 0.13142253E+03</pdfrwt>
<totfact> 0.22670059E+03</totfact>
</mgrwt>
</event>
<event>
 7    1  0.8712071E-006  0.1606641E+03  0.7546771E-02  0.1195829E+00
          1   -1    0    0  501    0  0.00000000000E+00  0.00000000000E+00  0.64832876525E+03  0.64832876525E+03  0.00000000000E+00 0.  1.
         -1   -1    0    0    0  501 -0.00000000000E+00 -0.00000000000E+00 -0.33765476809E+02  0.33765476809E+02  0.00000000000E+00 0. -1.
         23    2    1    2    0    0 -0.96937037193E+02  0.28114122681E+02  0.34572684924E+03  0.38123483291E+03  0.12500300183E+03 0.  0.
          5    1    3    3  502    0 -0.68410013452E+02 -0.45013831617E+02  0.17753827098E+03  0.19557122140E+03  0.47000000000E+01 0. -1.
         -5    1    3    3    0  502 -0.28527023741E+02  0.73127954297E+02  0.16818857826E+03  0.18566361151E+03  0.47000000000E+01 0. -1.
        -11    1    1    2    0    0  0.31919008234E+02 -0.83417944029E+01  0.11874452149E+02  0.35062961003E+02  0.00000000000E+00 0. -1.
         11    1    1    2    0    0  0.65018028959E+02 -0.19772328278E+02  0.25696198705E+03  0.26579644814E+03  0.00000000000E+00 0.  1.
<mgrwt>
<rscale>  0 0.15384279E+03</rscale>
<asrwt>0</asrwt>
<pdfrwt beam="1">  1        1 0.99742878E-01 0.16066407E+03</pdfrwt>
<pdfrwt beam="2">  1       -1 0.51946892E-02 0.16066407E+03</pdfrwt>
<totfact> 0.51082487E+03</totfact>
</mgrwt>
</event>
<event>
 7    1  0.8712071E-006  0.1326725E+03  0.7546771E-02  0.1237357E+00
          2   -1    0    0  501    0  0.00000000000E+00  0.00000000000E+00  0.87858862569E+02  0.87858862569E+02  0.00000000000E+00 0. -1.
         -2   -1    0    0    0  501 -0.00000000000E+00 -0.00000000000E+00 -0.23384589592E+03  0.23384589592E+03  0.00000000000E+00 0.  1.
         23    2    1    2    0    0  0.42828191328E+02  0.11946879152E+02 -0.17331000957E+03  0.21826210589E+03  0.12500002224E+03 0.  0.
          5    1    3    3  502    0  0.73829713994E+00 -0.31892285813E+01 -0.17319226350E+03  0.17328694815E+03  0.47000000000E+01 0. -1.
         -5    1    3    3    0  502  0.42089894188E+02  0.15136107733E+02 -0.11774606566E+00  0.44975157745E+02  0.47000000000E+01 0. -1.
        -11    1    1    2    0    0 -0.69929245372E+02 -0.12738290068E+02  0.27807406523E+02  0.76325718141E+02  0.00000000000E+00 0. -1.
         11    1    1    2    0    0  0.27101054044E+02  0.79141091597E+00 -0.48443030635E+00  0.27116934456E+02  0.00000000000E+00 0.  1.
<mgrwt>
<rscale>  0 0.12354764E+03</rscale>
<asrwt>0</asrwt>
<pdfrwt beam="1">  1        2 0.13516748E-01 0.13267248E+03</pdfrwt>
<pdfrwt beam="2">  1       -2 0.35976291E-01 0.13267248E+03</pdfrwt>
<totfact> 0.30925441E+03</totfact>
</mgrwt>
</event>
<event>
 7    1  0.8712071E-006  0.1399189E+03  0.7546771E-02  0.1224296E+00
          2   -1    0    0  501    0  0.00000000000E+00  0.00000000000E+00  0.13153182124E+03  0.13153182124E+03  0.00000000000E+00 0. -1.
         -2   -1    0    0    0  501 -0.00000000000E+00 -0.00000000000E+00 -0.12963285510E+03  0.12963285510E+03  0.00000000000E+00 0.  1.
         23    2    1    2    0    0  0.49869997857E+02  0.38303824587E+02 -0.34338495465E+02  0.14407093385E+03  0.12499240795E+03 0.  0.
          5    1    3    3  502    0  0.70847725009E+02  0.12238632262E+02  0.24600546072E+02  0.76134493665E+02  0.47000000000E+01 0.  1.
         -5    1    3    3    0  502 -0.20977727151E+02  0.26065192325E+02 -0.58939041537E+02  0.67936440182E+02  0.47000000000E+01 0.  1.
        -11    1    1    2    0    0 -0.91253883827E+01  0.13525437840E+02 -0.23177148586E+02  0.28344142225E+02  0.00000000000E+00 0.  1.
         11    1    1    2    0    0 -0.40744609475E+02 -0.51829262427E+02  0.59414610190E+02  0.88749600275E+02  0.00000000000E+00 0. -1.
<mgrwt>
<rscale>  0 0.13215249E+03</rscale>
<asrwt>0</asrwt>
<pdfrwt beam="1">  1        2 0.20235665E-01 0.13991891E+03</pdfrwt>
<pdfrwt beam="2">  1       -2 0.19943516E-01 0.13991891E+03</pdfrwt>
<totfact> 0.55201170E+03</totfact>
</mgrwt>
</event>
<event>
 7    1  0.8712071E-006  0.1993532E+03  0.7546771E-02  0.1154614E+00
          1   -1    0    0  501    0  0.00000000000E+00  0.00000000000E+00  0.29521027635E+02  0.29521027635E+02  0.00000000000E+00 0. -1.
         -1   -1    0    0    0  501 -0.00000000000E+00 -0.00000000000E+00 -0.14884903034E+04  0.14884903034E+04  0.00000000000E+00 0.  1.
         23    2    1    2    0    0 -0.10849062696E+03 -0.11111529972E+03 -0.10827361444E+04  0.11009356308E+04  0.12499951512E+03 0.  0.
          5    1    3    3  502    0 -0.22355462080E+02  0.39382566082E+01 -0.50640900851E+03  0.50693929661E+03  0.47000000000E+01 0. -1.
         -5    1    3    3    0  502 -0.86135164878E+02 -0.11505355632E+03 -0.57632713594E+03  0.59399633423E+03  0.47000000000E+01 0. -1.
        -11    1    1    2    0    0  0.11605931564E+03  0.12057977044E+03 -0.35793083530E+03  0.39512495320E+03  0.00000000000E+00 0.  1.
         11    1    1    2    0    0 -0.75686886825E+01 -0.94644707196E+01 -0.18302296032E+02  0.21950747013E+02  0.00000000000E+00 0. -1.
<mgrwt>
<rscale>  0 0.19432866E+03</rscale>
<asrwt>0</asrwt>
<pdfrwt beam="1">  1        1 0.45416983E-02 0.19935322E+03</pdfrwt>
<pdfrwt beam="2">  1       -1 0.22899842E+00 0.19935322E+03</pdfrwt>
<totfact> 0.20637417E+02</totfact>
</mgrwt>
</event>
<event>
 7    1  0.8712071E-006  0.1313832E+03  0.7546771E-02  0.1236864E+00
         -1   -1    0    0    0  501 -0.00000000000E+00  0.00000000000E+00  0.26226461274E+02  0.26226461274E+02  0.00000000000E+00 0.  1.
          1   -1    0    0  501    0  0.00000000000E+00 -0.00000000000E+00 -0.58595089894E+03  0.58595089894E+03  0.00000000000E+00 0. -1.
         23    2    1    2    0    0  0.34158538323E+02 -0.21657476201E+02 -0.21303955659E+03  0.25029461629E+03  0.12500276100E+03 0.  0.
          5    1    3    3  502    0  0.52002392981E+02 -0.19356472461E+02 -0.22254797348E+03  0.22940926834E+03  0.47000000000E+01 0.  1.
         -5    1    3    3    0  502 -0.17843854658E+02 -0.23010037407E+01  0.95084168903E+01  0.20885347951E+02  0.47000000000E+01 0.  1.
        -11    1    1    2    0    0  0.14253875725E+02  0.41408034324E+02 -0.92064921701E+02  0.10194973314E+03  0.00000000000E+00 0.  1.
         11    1    1    2    0    0 -0.48412414048E+02 -0.19750558123E+02 -0.25461995938E+03  0.25993301078E+03  0.00000000000E+00 0. -1.
<mgrwt>
<rscale>  0 0.12385836E+03</rscale>
<asrwt>0</asrwt>
<pdfrwt beam="2">  1        1 0.90146280E-01 0.13138319E+03</pdfrwt>
<pdfrwt beam="1">  1       -1 0.40348408E-02 0.13138319E+03</pdfrwt>
<totfact> 0.84345282E+03</totfact>
</mgrwt>
</event>
<event>
 7    1  0.8712071E-006  0.2584882E+03  0.7546771E-02  0.1110380E+00
          2   -1    0    0  501    0  0.00000000000E+00  0.00000000000E+00  0.71585314516E+03  0.71585314516E+03  0.00000000000E+00 0.  1.
         -2   -1    0    0    0  501 -0.00000000000E+00 -0.00000000000E+00 -0.95826463780E+02  0.95826463780E+02  0.00000000000E+00 0. -1.
         23    2    1    2    0    0  0.17950101929E+03 -0.13773629385E+03  0.20281906368E+03  0.32856003743E+03  0.12499689208E+03 0.  0.
          5    1    3    3  502    0  0.96399572217E+02 -0.14423576190E+03  0.12024199950E+03  0.21113280413E+03  0.47000000000E+01 0. -1.
         -5    1    3    3    0  502  0.83101447076E+02  0.64994680483E+01  0.82577064187E+02  0.11742723330E+03  0.47000000000E+01 0. -1.
        -11    1    1    2    0    0 -0.68268362011E+02  0.10682324076E+03  0.24389524119E+03  0.27487572227E+03  0.00000000000E+00 0. -1.
         11    1    1    2    0    0 -0.11123265728E+03  0.30913053088E+02  0.17331237651E+03  0.20824384925E+03  0.00000000000E+00 0.  1.
<mgrwt>
<rscale>  0 0.25468364E+03</rscale>
<asrwt>0</asrwt>
<pdfrwt beam="1">  1        2 0.11013125E+00 0.25848815E+03</pdfrwt>
<pdfrwt beam="2">  1       -2 0.14742533E-01 0.25848815E+03</pdfrwt>
<totfact> 0.14374946E+03</totfact>
</mgrwt>
</event>
<event>
 7    1  0.8712071E-006  0.1402640E+03  0.7546771E-02  0.1223815E+00
          2   -1    0    0  501    0  0.00000000000E+00  0.00000000000E+00  0.55453339067E+02  0.55453339067E+02  0.00000000000E+00 0. -1.
         -2   -1    0    0    0  501 -0.00000000000E+00 -0.00000000000E+00 -0.34790374233E+03  0.34790374233E+03  0.00000000000E+00 0.  1.
         23    2    1    2    0    0 -0.56492995982E+02  0.29279043757E+02 -0.24445263773E+03  0.28183519566E+03  0.12500105769E+03 0.  0.
          5    1    3    3  502    0 -0.18414016367E+02  0.54142757406E+02 -0.34482551870E+02  0.66945130979E+02  0.47000000000E+01 0.  1.
         -5    1    3    3    0  502 -0.38078979614E+02 -0.24863713649E+02 -0.20997008586E+03  0.21489006468E+03  0.47000000000E+01 0.  1.
        -11    1    1    2    0    0  0.46990534081E+02  0.26393098419E+02 -0.14318425354E+02  0.55764892558E+02  0.00000000000E+00 0. -1.
         11    1    1    2    0    0  0.95024619000E+01 -0.55672142176E+02 -0.33679340182E+02  0.65756993177E+02  0.00000000000E+00 0.  1.
<mgrwt>
<rscale>  0 0.13248474E+03</rscale>
<asrwt>0</asrwt>
<pdfrwt beam="1">  1        2 0.85312829E-02 0.14026398E+03</pdfrwt>
<pdfrwt beam="2">  1       -2 0.53523653E-01 0.14026398E+03</pdfrwt>
<totfact> 0.25251996E+03</totfact>
</mgrwt>
</event>
<event>
 7    1  0.8712071E-006  0.1470389E+03  0.7546771E-02  0.1213989E+00
          1   -1    0    0  501    0  0.00000000000E+00  0.00000000000E+00  0.68218350865E+02  0.68218350865E+02  0.00000000000E+00 0. -1.
         -1   -1    0    0    0  501 -0.00000000000E+00 -0.00000000000E+00 -0.25988137334E+03  0.25988137334E+03  0.00000000000E+00 0.  1.
         23    2    1    2    0    0  0.17004711818E+02 -0.75543450582E+02 -0.10142754118E+03  0.17862808120E+03  0.12499788851E+03 0.  0.
          5    1    3    3  502    0  0.61638902513E+02 -0.36356912871E+02 -0.94520423340E+02  0.11864813460E+03  0.47000000000E+01 0.  1.
         -5    1    3    3    0  502 -0.44634190695E+02 -0.39186537710E+02 -0.69071178405E+01  0.59979946595E+02  0.47000000000E+01 0.  1.
        -11    1    1    2    0    0  0.19995212818E+02  0.18210159246E+02 -0.74762391049E+02  0.79503670046E+02  0.00000000000E+00 0.  1.
         11    1    1    2    0    0 -0.36999924636E+02  0.57333291336E+02 -0.15473090246E+02  0.69967972961E+02  0.00000000000E+00 0. -1.
<mgrwt>
<rscale>  0 0.13951076E+03</rscale>
<asrwt>0</asrwt>
<pdfrwt beam="1">  1        1 0.10495131E-01 0.14703892E+03</pdfrwt>
<pdfrwt beam="2">  1       -1 0.39981751E-01 0.14703892E+03</pdfrwt>
<totfact> 0.35838862E+03</totfact>
</mgrwt>
</event>
<event>
 7    1  0.8712071E-006  0.1465818E+03  0.7546771E-02  0.1216625E+00
          4   -1    0    0  501    0  0.00000000000E+00  0.00000000000E+00  0.15837722144E+03  0.15837722144E+03  0.00000000000E+00 0. -1.
         -4   -1    0    0    0  501 -0.00000000000E+00 -0.00000000000E+00 -0.10698431477E+03  0.10698431477E+03  0.00000000000E+00 0.  1.
         23    2    1    2    0    0  0.73370511769E+02 -0.21853657420E+02  0.28351401003E+02  0.14929842990E+03  0.12500161955E+03 0.  0.
          5    1    3    3  502    0  0.81062422808E+02  0.55258388522E+01 -0.27945919963E+02  0.86050657923E+02  0.47000000000E+01 0. -1.
         -5    1    3    3    0  502 -0.76919110386E+01 -0.27379496272E+02  0.56297320966E+02  0.63247771972E+02  0.47000000000E+01 0. -1.
        -11    1    1    2    0    0  0.59256173420E+01  0.21056810916E+02  0.29244832963E+02  0.36520713052E+02  0.00000000000E+00 0. -1.
         11    1    1    2    0    0 -0.79296129111E+02  0.79684650403E+00 -0.62033272905E+01  0.79542393262E+02  0.00000000000E+00 0.  1.
<mgrwt>
<rscale>  0 0.13757853E+03</rscale>
<asrwt>0</asrwt>
<pdfrwt beam="1">  1        4 0.24365726E-01 0.14658178E+03</pdfrwt>
<pdfrwt beam="2">  1       -4 0.16459125E-01 0.14658178E+03</pdfrwt>
<totfact> 0.84390851E+02</totfact>
</mgrwt>
</event>
<event>
 7    1  0.8712071E-006  0.1281671E+03  0.7546771E-02  0.1251489E+00
         -1   -1    0    0    0  501 -0.00000000000E+00  0.00000000000E+00  0.78094491331E+02  0.78094491331E+02  0.00000000000E+00 0.  1.
          1   -1    0    0  501    0  0.00000000000E+00 -0.00000000000E+00 -0.15484365510E+03  0.15484365510E+03  0.00000000000E+00 0. -1.
         23    2    1    2    0    0 -0.20108898959E+02  0.19918042068E+02 -0.14451552991E+02  0.12897923805E+03  0.12500280096E+03 0.  0.
          5    1    3    3  502    0 -0.11070345616E+02 -0.20493185500E+02  0.48196393228E+02  0.53735514552E+02  0.47000000000E+01 0. -1.
         -5    1    3    3    0  502 -0.90385533433E+01  0.40411227568E+02 -0.62647946219E+02  0.75243723496E+02  0.47000000000E+01 0. -1.
        -11    1    1    2    0    0  0.17803592698E+02  0.68458218888E+00  0.15395822374E+02  0.23547142338E+02  0.00000000000E+00 0.  1.
         11    1    1    2    0    0  0.23053062614E+01 -0.20602624257E+02 -0.77693433155E+02  0.80411766046E+02  0.00000000000E+00 0. -1.
<mgrwt>
<rscale>  0 0.11505255E+03</rscale>
<asrwt>0</asrwt>
<pdfrwt beam="2">  1        1 0.23822101E-01 0.12816706E+03</pdfrwt>
<pdfrwt beam="1">  1       -1 0.12014537E-01 0.12816706E+03</pdfrwt>
<totfact> 0.87465434E+03</totfact>
</mgrwt>
</event>
<event>
 7    1  0.8712071E-006  0.1404045E+03  0.7546771E-02  0.1225328E+00
          1   -1    0    0  501    0  0.00000000000E+00  0.00000000000E+00  0.40562630439E+02  0.40562630439E+02  0.00000000000E+00 0. -1.
         -1   -1    0    0    0  501 -0.00000000000E+00 -0.00000000000E+00 -0.39857153671E+03  0.39857153671E+03  0.00000000000E+00 0.  1.
         23    2    1    2    0    0  0.46985679643E+02 -0.43365926739E+02 -0.24856844807E+03  0.28548153095E+03  0.12500069378E+03 0.  0.
          5    1    3    3  502    0  0.69186713590E+02 -0.12384920826E+02 -0.23405754062E+03  0.24442833289E+03  0.47000000000E+01 0.  1.
         -5    1    3    3    0  502 -0.22201033947E+02 -0.30981005913E+02 -0.14510907448E+02  0.41053198056E+02  0.47000000000E+01 0.  1.
        -11    1    1    2    0    0 -0.32093013267E+02 -0.36499854045E+01  0.14053016156E+01  0.32330461900E+02  0.00000000000E+00 0. -1.
         11    1    1    2    0    0 -0.14892666376E+02  0.47015912143E+02 -0.11084575982E+03  0.12132217430E+03  0.00000000000E+00 0.  1.
<mgrwt>
<rscale>  0 0.13144445E+03</rscale>
<asrwt>0</asrwt>
<pdfrwt beam="1">  1        1 0.62404043E-02 0.14040453E+03</pdfrwt>
<pdfrwt beam="2">  1       -1 0.61318701E-01 0.14040453E+03</pdfrwt>
<totfact> 0.32870303E+03</totfact>
</mgrwt>
</event>
<event>
 7    1  0.8712071E-006  0.1401212E+03  0.7546771E-02  0.1224839E+00
          3   -1    0    0  501    0  0.00000000000E+00  0.00000000000E+00  0.12220076678E+02  0.12220076678E+02  0.00000000000E+00 0. -1.
         -3   -1    0    0    0  501 -0.00000000000E+00 -0.00000000000E+00 -0.13319195791E+04  0.13319195791E+04  0.00000000000E+00 0.  1.
         23    2    1    2    0    0 -0.50017054575E+02  0.38822087224E+02 -0.87383472566E+03  0.88499779157E+03  0.12500041241E+03 0.  0.
          5    1    3    3  502    0  0.38524802993E+02  0.32262722376E+02 -0.36146452222E+03  0.36497086805E+03  0.47000000000E+01 0.  1.
         -5    1    3    3    0  502 -0.88541857568E+02  0.65593648475E+01 -0.51237020344E+03  0.52002692352E+03  0.47000000000E+01 0.  1.
        -11    1    1    2    0    0 -0.23220428074E+02  0.27895641574E+01 -0.13771645040E+03  0.13968819084E+03  0.00000000000E+00 0.  1.
         11    1    1    2    0    0  0.73237482649E+02 -0.41611651381E+02 -0.30814832639E+03  0.31945367341E+03  0.00000000000E+00 0. -1.
<mgrwt>
<rscale>  0 0.13177934E+03</rscale>
<asrwt>0</asrwt>
<pdfrwt beam="1">  1        3 0.18800128E-02 0.14012125E+03</pdfrwt>
<pdfrwt beam="2">  1       -3 0.20491059E+00 0.14012125E+03</pdfrwt>
<totfact> 0.36820343E+02</totfact>
</mgrwt>
</event>
<event>
 7    1  0.8712071E-006  0.3140036E+03  0.7546771E-02  0.1080048E+00
          2   -1    0    0  501    0  0.00000000000E+00  0.00000000000E+00  0.76028162723E+02  0.76028162723E+02  0.00000000000E+00 0. -1.
         -2   -1    0    0    0  501 -0.00000000000E+00 -0.00000000000E+00 -0.12802870756E+04  0.12802870756E+04  0.00000000000E+00 0.  1.
         23    2    1    2    0    0  0.28784417579E+03 -0.10933456510E+02 -0.73126311071E+03  0.79582911527E+03  0.12499773446E+03 0.  0.
          5    1    3    3  502    0  0.75662937973E+02 -0.37641510450E+01 -0.77649178238E+02  0.10858422490E+03  0.47000000000E+01 0.  1.
         -5    1    3    3    0  502  0.21218123782E+03 -0.71693054649E+01 -0.65361393247E+03  0.68724489037E+03  0.47000000000E+01 0.  1.
        -11    1    1    2    0    0 -0.18005416989E+03  0.47989258512E+02 -0.30695766345E+03  0.35908979403E+03  0.00000000000E+00 0.  1.
         11    1    1    2    0    0 -0.10779000591E+03 -0.37055802003E+02 -0.16603813872E+03  0.20139632903E+03  0.00000000000E+00 0. -1.
<mgrwt>
<rscale>  0 0.31062314E+03</rscale>
<asrwt>0</asrwt>
<pdfrwt beam="1">  1        2 0.11696640E-01 0.31400357E+03</pdfrwt>
<pdfrwt beam="2">  1       -2 0.19696725E+00 0.31400357E+03</pdfrwt>
<totfact> 0.79271807E+01</totfact>
</mgrwt>
</event>
<event>
 7    1  0.8712071E-006  0.2384018E+03  0.7546771E-02  0.1123616E+00
         -1   -1    0    0    0  501 -0.00000000000E+00  0.00000000000E+00  0.92201071634E+02  0.92201071634E+02  0.00000000000E+00 0.  1.
          1   -1    0    0  501    0  0.00000000000E+00 -0.00000000000E+00 -0.57912237090E+03  0.57912237090E+03  0.00000000000E+00 0. -1.
         23    2    1    2    0    0 -0.20288440567E+03  0.69448904605E+01 -0.22809393264E+03  0.32994284068E+03  0.12500048977E+03 0.  0.
          5    1    3    3  502    0 -0.12002727172E+03 -0.29979463759E+02 -0.19935750912E+03  0.23467172955E+03  0.47000000000E+01 0. -1.
         -5    1    3    3    0  502 -0.82857133947E+02  0.36924354219E+02 -0.28736423520E+02  0.95271111136E+02  0.47000000000E+01 0. -1.
        -11    1    1    2    0    0  0.18803995835E+03  0.14349496295E+02 -0.18948013141E+03  0.26733434904E+03  0.00000000000E+00 0.  1.
         11    1    1    2    0    0  0.14844447320E+02 -0.21294386756E+02 -0.69347235217E+02  0.74046252814E+02  0.00000000000E+00 0. -1.
<mgrwt>
<rscale>  0 0.23434823E+03</rscale>
<asrwt>0</asrwt>
<pdfrwt beam="2">  1        1 0.89095752E-01 0.23840184E+03</pdfrwt>
<pdfrwt beam="1">  1       -1 0.14184780E-01 0.23840184E+03</pdfrwt>
<totfact> 0.12980507E+03</totfact>
</mgrwt>
</event>
<event>
 7    1  0.8712071E-006  0.1356291E+03  0.7546771E-02  0.1231563E+00
          1   -1    0    0  501    0  0.00000000000E+00  0.00000000000E+00  0.41030531519E+03  0.41030531519E+03  0.00000000000E+00 0. -1.
         -1   -1    0    0    0  501 -0.00000000000E+00 -0.00000000000E+00 -0.36050332448E+02  0.36050332448E+02  0.00000000000E+00 0.  1.
         23    2    1    2    0    0 -0.57605266150E+01 -0.52262466912E+02  0.17896295101E+03  0.22455062368E+03  0.12502278050E+03 0.  0.
          5    1    3    3  502    0 -0.36205206964E+02  0.82409170947E+01  0.14280542611E+03  0.14762862003E+03  0.47000000000E+01 0.  1.
         -5    1    3    3    0  502  0.30444680349E+02 -0.60503384007E+02  0.36157524897E+02  0.76922003643E+02  0.47000000000E+01 0.  1.
        -11    1    1    2    0    0 -0.28184090658E+02  0.27727603098E+02  0.16612923971E+03  0.17076910501E+03  0.00000000000E+00 0. -1.
         11    1    1    2    0    0  0.33944617273E+02  0.24534863814E+02  0.29162792018E+02  0.51035918945E+02  0.00000000000E+00 0.  1.
<mgrwt>
<rscale>  0 0.12727015E+03</rscale>
<asrwt>0</asrwt>
<pdfrwt beam="1">  1        1 0.63123891E-01 0.13562907E+03</pdfrwt>
<pdfrwt beam="2">  1       -1 0.55462053E-02 0.13562907E+03</pdfrwt>
<totfact> 0.84033257E+03</totfact>
</mgrwt>
</event>
<event>
 7    1  0.8712071E-006  0.1279778E+03  0.7546771E-02  0.1240004E+00
         -1   -1    0    0    0  501 -0.00000000000E+00  0.00000000000E+00  0.36397284224E+03  0.36397284224E+03  0.00000000000E+00 0.  1.
          1   -1    0    0  501    0  0.00000000000E+00 -0.00000000000E+00 -0.46839237217E+02  0.46839237217E+02  0.00000000000E+00 0. -1.
         23    2    1    2    0    0 -0.49332572351E+02 -0.16322889866E+02  0.26278481155E+03  0.29229123115E+03  0.11695369681E+03 0.  0.
          5    1    3    3  502    0 -0.75013946732E+02  0.15400614271E+02  0.11023790128E+03  0.13430843608E+03  0.47000000000E+01 0. -1.
         -5    1    3    3    0  502  0.25681374381E+02 -0.31723504136E+02  0.15254691027E+03  0.15798279507E+03  0.47000000000E+01 0.  1.
        -11    1    1    2    0    0 -0.28368541520E+01 -0.32827846393E+02  0.23588093455E+02  0.40522998323E+02  0.00000000000E+00 0.  1.
         11    1    1    2    0    0  0.52169426503E+02  0.49150736259E+02  0.30760700019E+02  0.77997849984E+02  0.00000000000E+00 0. -1.
<mgrwt>
<rscale>  0 0.12189446E+03</rscale>
<asrwt>0</asrwt>
<pdfrwt beam="2">  1        1 0.72060367E-02 0.12797776E+03</pdfrwt>
<pdfrwt beam="1">  1       -1 0.55995820E-01 0.12797776E+03</pdfrwt>
<totfact> 0.31956999E+03</totfact>
</mgrwt>
</event>
<event>
 7    1  0.8712071E-006  0.1412792E+03  0.7546771E-02  0.1222725E+00
         -2   -1    0    0    0  501 -0.00000000000E+00  0.00000000000E+00  0.80687639828E+02  0.80687639828E+02  0.00000000000E+00 0. -1.
          2   -1    0    0  501    0  0.00000000000E+00 -0.00000000000E+00 -0.24689010834E+03  0.24689010834E+03  0.00000000000E+00 0.  1.
         23    2    1    2    0    0 -0.61374586156E+02  0.23808391311E+02 -0.18696584773E+02  0.14251100189E+03  0.12500457614E+03 0.  0.
          5    1    3    3  502    0 -0.30768241514E+02  0.71647488475E+01  0.53444107947E+02  0.62260589349E+02  0.47000000000E+01 0.  1.
         -5    1    3    3    0  502 -0.30606344642E+02  0.16643642464E+02 -0.72140692720E+02  0.80250412541E+02  0.47000000000E+01 0.  1.
        -11    1    1    2    0    0  0.77323473299E+02 -0.68361787304E+00 -0.76798240887E+02  0.10898328615E+03  0.00000000000E+00 0.  1.
         11    1    1    2    0    0 -0.15948887144E+02 -0.23124773438E+02 -0.70707642852E+02  0.76083460130E+02  0.00000000000E+00 0. -1.
<mgrwt>
<rscale>  0 0.13324058E+03</rscale>
<asrwt>0</asrwt>
<pdfrwt beam="2">  1        2 0.37983093E-01 0.14127924E+03</pdfrwt>
<pdfrwt beam="1">  1       -2 0.12413483E-01 0.14127924E+03</pdfrwt>
<totfact> 0.60487167E+03</totfact>
</mgrwt>
</event>
<event>
 7    1  0.8712071E-006  0.2177917E+03  0.7546771E-02  0.1138444E+00
          2   -1    0    0  501    0  0.00000000000E+00  0.00000000000E+00  0.11341871519E+03  0.11341871519E+03  0.00000000000E+00 0. -1.
         -2   -1    0    0    0  501 -0.00000000000E+00 -0.00000000000E+00 -0.39123205231E+03  0.39123205231E+03  0.00000000000E+00 0.  1.
         23    2    1    2    0    0  0.35382987191E+02 -0.17481160183E+03 -0.13121286490E+03  0.25426374796E+03  0.12498874227E+03 0.  0.
          5    1    3    3  502    0  0.62547645692E+02 -0.13875135980E+03 -0.48313725963E+02  0.15975122517E+03  0.47000000000E+01 0. -1.
         -5    1    3    3    0  502 -0.27164658501E+02 -0.36060242031E+02 -0.82899138940E+02  0.94512522788E+02  0.47000000000E+01 0. -1.
        -11    1    1    2    0    0 -0.54956229563E+02  0.11724061520E+03 -0.13755630063E+03  0.18891078546E+03  0.00000000000E+00 0.  1.
         11    1    1    2    0    0  0.19573242372E+02  0.57570986624E+02 -0.90441715869E+01  0.61476234087E+02  0.00000000000E+00 0. -1.
<mgrwt>
<rscale>  0 0.21399113E+03</rscale>
<asrwt>0</asrwt>
<pdfrwt beam="1">  1        2 0.17449033E-01 0.21779173E+03</pdfrwt>
<pdfrwt beam="2">  1       -2 0.60189547E-01 0.21779173E+03</pdfrwt>
<totfact> 0.85203541E+02</totfact>
</mgrwt>
</event>
<event>
 7    1  0.8712071E-006  0.1729607E+03  0.7546771E-02  0.1181700E+00
          2   -1    0    0  501    0  0.00000000000E+00  0.00000000000E+00  0.32961543113E+02  0.32961543113E+02  0.00000000000E+00 0. -1.
         -2   -1    0    0    0  501 -0.00000000000E+00 -0.00000000000E+00 -0.78458764880E+03  0.78458764880E+03  0.00000000000E+00 0.  1.
         23    2    1    2    0    0 -0.11893787065E+03  0.12086709911E+02 -0.43063301871E+03  0.46406917151E+03  0.12499237383E+03 0.  0.
          5    1    3    3  502    0 -0.96059309161E+02  0.39431296610E+02 -0.15832430657E+03  0.18939613006E+03  0.47000000000E+01 0.  1.
         -5    1    3    3    0  502 -0.22878561491E+02 -0.27344586699E+02 -0.27230871214E+03  0.27467304146E+03  0.47000000000E+01 0.  1.
        -11    1    1    2    0    0  0.60558872627E+02  0.26128666145E+01 -0.58744906316E+02  0.84410711073E+02  0.00000000000E+00 0. -1.
         11    1    1    2    0    0  0.58378998026E+02 -0.14699576525E+02 -0.26224818067E+03  0.26906930933E+03  0.00000000000E+00 0.  1.
<mgrwt>
<rscale>  0 0.16635839E+03</rscale>
<asrwt>0</asrwt>
<pdfrwt beam="1">  1        2 0.50710071E-02 0.17296069E+03</pdfrwt>
<pdfrwt beam="2">  1       -2 0.12070578E+00 0.17296069E+03</pdfrwt>
<totfact> 0.83048154E+02</totfact>
</mgrwt>
</event>
<event>
 6    1  0.8712071E-006  0.1596152E+03  0.7546771E-02  0.1212388E+00
         -2   -1    0    0    0  501 -0.00000000000E+00  0.00000000000E+00  0.17290685760E+02  0.17290685760E+02  0.00000000000E+00 0.  1.
          2   -1    0    0  501    0  0.00000000000E+00 -0.00000000000E+00 -0.10023074652E+04  0.10023074652E+04  0.00000000000E+00 0. -1.
          5    1    1    2  502    0  0.87375597948E+02 -0.20836441058E+02 -0.37384826611E+03  0.38451692871E+03  0.47000000000E+01 0. -1.
         -5    1    1    2    0  502 -0.60249241716E+02 -0.11482336739E+01 -0.11795584468E+03  0.13254041218E+03  0.47000000000E+01 0.  1.
        -11    1    1    2    0    0 -0.56490705793E+02 -0.46551349064E+01 -0.28244316574E+03  0.28807466392E+03  0.00000000000E+00 0. -1.
         11    1    1    2    0    0  0.29364349561E+02  0.26639809638E+02 -0.21076950287E+03  0.21446614610E+03  0.00000000000E+00 0.  1.
<mgrwt>
<rscale>  0 0.14070160E+03</rscale>
<asrwt>0</asrwt>
<pdfrwt beam="2">  1        2 0.15420115E+00 0.15961519E+03</pdfrwt>
<pdfrwt beam="1">  1       -2 0.26601054E-02 0.15961519E+03</pdfrwt>
<totfact> 0.12862007E+04</totfact>
</mgrwt>
</event>
<event>
 7    1  0.8712071E-006  0.1433795E+03  0.7546771E-02  0.1219334E+00
          1   -1    0    0  501    0  0.00000000000E+00  0.00000000000E+00  0.36778024087E+02  0.36778024087E+02  0.00000000000E+00 0. -1.
         -1   -1    0    0    0  501 -0.00000000000E+00 -0.00000000000E+00 -0.46069743826E+03  0.46069743826E+03  0.00000000000E+00 0.  1.
         23    2    1    2    0    0  0.36059325537E+02 -0.60267877613E+02 -0.26676620629E+03  0.30285624058E+03  0.12500080642E+03 0.  0.
          5    1    3    3  502    0  0.52891617071E+02 -0.58964509894E+02 -0.27296733235E+03  0.28426676048E+03  0.47000000000E+01 0.  1.
         -5    1    3    3    0  502 -0.16832291534E+02 -0.13033677196E+01  0.62011260620E+01  0.18589480093E+02  0.47000000000E+01 0.  1.
        -11    1    1    2    0    0  0.53810340646E+01  0.11882309667E+02  0.95445620359E+01  0.16163028029E+02  0.00000000000E+00 0. -1.
         11    1    1    2    0    0 -0.41440359602E+02  0.48385567947E+02 -0.16669776992E+03  0.17845619374E+03  0.00000000000E+00 0.  1.
<mgrwt>
<rscale>  0 0.13562908E+03</rscale>
<asrwt>0</asrwt>
<pdfrwt beam="1">  1        1 0.56581577E-02 0.14337954E+03</pdfrwt>
<pdfrwt beam="2">  1       -1 0.70876528E-01 0.14337954E+03</pdfrwt>
<totfact> 0.28363103E+03</totfact>
</mgrwt>
</event>
<event>
 7    1  0.8712071E-006  0.1319277E+03  0.7546771E-02  0.1237624E+00
         -2   -1    0    0    0  501 -0.00000000000E+00  0.00000000000E+00  0.14075855830E+02  0.14075855830E+02  0.00000000000E+00 0.  1.
          2   -1    0    0  501    0  0.00000000000E+00 -0.00000000000E+00 -0.96352171710E+03  0.96352171710E+03  0.00000000000E+00 0. -1.
         23    2    1    2    0    0  0.42264901255E+02 -0.10022205385E+01 -0.52594846595E+03  0.54224228572E+03  0.12497032152E+03 0.  0.
          5    1    3    3  502    0  0.72448241623E+02  0.12305244142E+02 -0.47925789979E+03  0.48488183227E+03  0.47000000000E+01 0.  1.
         -5    1    3    3    0  502 -0.30183340368E+02 -0.13307464681E+02 -0.46690566157E+02  0.57360453451E+02  0.47000000000E+01 0.  1.
        -11    1    1    2    0    0  0.22744272726E+02 -0.11806354590E+02 -0.51729189016E+02  0.57728683917E+02  0.00000000000E+00 0.  1.
         11    1    1    2    0    0 -0.65009173981E+02  0.12808575128E+02 -0.37176820630E+03  0.37762660329E+03  0.00000000000E+00 0. -1.
<mgrwt>
<rscale>  0 0.12337940E+03</rscale>
<asrwt>0</asrwt>
<pdfrwt beam="2">  1        2 0.14823415E+00 0.13192766E+03</pdfrwt>
<pdfrwt beam="1">  1       -2 0.21655157E-02 0.13192766E+03</pdfrwt>
<totfact> 0.18112424E+04</totfact>
</mgrwt>
</event>
<event>
 7    1  0.8712071E-006  0.1490521E+03  0.7546771E-02  0.1210955E+00
          4   -1    0    0  501    0  0.00000000000E+00  0.00000000000E+00  0.44320920936E+03  0.44320920936E+03  0.00000000000E+00 0. -1.
         -4   -1    0    0    0  501 -0.00000000000E+00 -0.00000000000E+00 -0.42792030278E+02  0.42792030278E+02  0.00000000000E+00 0.  1.
         23    2    1    2    0    0  0.31616229012E+02  0.74780198290E+02  0.17668336907E+03  0.23115694694E+03  0.12499942887E+03 0.  0.
          5    1    3    3  502    0 -0.23062490345E+02  0.50867222067E+02  0.15922123431E+03  0.16879823517E+03  0.47000000000E+01 0.  1.
         -5    1    3    3    0  502  0.54678719357E+02  0.23912976223E+02  0.17462134762E+02  0.62358711763E+02  0.47000000000E+01 0.  1.
        -11    1    1    2    0    0 -0.14999507900E+02 -0.33906869295E+02  0.20252282490E+03  0.20588869718E+03  0.00000000000E+00 0. -1.
         11    1    1    2    0    0 -0.16616721112E+02 -0.40873328995E+02  0.21210985117E+02  0.48955595526E+02  0.00000000000E+00 0.  1.
<mgrwt>
<rscale>  0 0.14177869E+03</rscale>
<asrwt>0</asrwt>
<pdfrwt beam="1">  1        4 0.68186029E-01 0.14905208E+03</pdfrwt>
<pdfrwt beam="2">  1       -4 0.65833896E-02 0.14905208E+03</pdfrwt>
<totfact> 0.52011048E+02</totfact>
</mgrwt>
</event>
<event>
 7    1  0.8712071E-006  0.2243128E+03  0.7546771E-02  0.1134827E+00
          2   -1    0    0  501    0  0.00000000000E+00  0.00000000000E+00  0.79254291201E+03  0.79254291201E+03  0.00000000000E+00 0.  1.
         -2   -1    0    0    0  501 -0.00000000000E+00 -0.00000000000E+00 -0.73557816601E+02  0.73557816601E+02  0.00000000000E+00 0. -1.
         23    2    1    2    0    0 -0.30828435424E+02 -0.18381361396E+03  0.17183878018E+03  0.28256819706E+03  0.12481339076E+03 0.  0.
          5    1    3    3  502    0 -0.60813873600E+02 -0.80740741842E+02  0.31824569442E+02  0.10607680159E+03  0.47000000000E+01 0. -1.
         -5    1    3    3    0  502  0.29985438176E+02 -0.10307287212E+03  0.14001421073E+03  0.17649139547E+03  0.47000000000E+01 0. -1.
        -11    1    1    2    0    0 -0.20380081061E+02  0.18093892823E+02  0.10767646686E+03  0.11107186042E+03  0.00000000000E+00 0.  1.
         11    1    1    2    0    0  0.51208516485E+02  0.16571972114E+03  0.43946984837E+03  0.47246067112E+03  0.00000000000E+00 0. -1.
<mgrwt>
<rscale>  0 0.21873840E+03</rscale>
<asrwt>0</asrwt>
<pdfrwt beam="1">  1        2 0.12192967E+00 0.22431277E+03</pdfrwt>
<pdfrwt beam="2">  1       -2 0.11316588E-01 0.22431277E+03</pdfrwt>
<totfact> 0.19462797E+03</totfact>
</mgrwt>
</event>
<event>
 7    1  0.8712071E-006  0.1257523E+03  0.7546771E-02  0.1249566E+00
          2   -1    0    0  501    0  0.00000000000E+00  0.00000000000E+00  0.51013675994E+03  0.51013675994E+03  0.00000000000E+00 0. -1.
         -2   -1    0    0    0  501 -0.00000000000E+00 -0.00000000000E+00 -0.23763210406E+02  0.23763210406E+02  0.00000000000E+00 0.  1.
         23    2    1    2    0    0  0.87767239220E+01 -0.10544462160E+02  0.23786204793E+03  0.26905760500E+03  0.12500169758E+03 0.  0.
          5    1    3    3  502    0  0.33121265794E+02 -0.36776863518E+01  0.41222076870E+01  0.33906138396E+02  0.47000000000E+01 0.  1.
         -5    1    3    3    0  502 -0.24344541872E+02 -0.68667758079E+01  0.23373984025E+03  0.23515146661E+03  0.47000000000E+01 0.  1.
        -11    1    1    2    0    0 -0.47868248849E+02  0.18910066667E+02  0.14646552284E+03  0.15524531958E+03  0.00000000000E+00 0. -1.
         11    1    1    2    0    0  0.39091524928E+02 -0.83656045073E+01  0.10204597876E+03  0.10959704577E+03  0.00000000000E+00 0.  1.
<mgrwt>
<rscale>  0 0.11616230E+03</rscale>
<asrwt>0</asrwt>
<pdfrwt beam="1">  1        2 0.78482570E-01 0.12575230E+03</pdfrwt>
<pdfrwt beam="2">  1       -2 0.36558789E-02 0.12575230E+03</pdfrwt>
<totfact> 0.17942491E+04</totfact>
</mgrwt>
</event>
<event>
 7    1  0.8712071E-006  0.1416460E+03  0.7546771E-02  0.1217880E+00
         -1   -1    0    0    0  501 -0.00000000000E+00  0.00000000000E+00  0.36335109889E+02  0.36335109889E+02  0.00000000000E+00 0.  1.
          1   -1    0    0  501    0  0.00000000000E+00 -0.00000000000E+00 -0.55987494121E+03  0.55987494121E+03  0.00000000000E+00 0. -1.
         23    2    1    2    0    0  0.43066421133E+02 -0.50842181807E+02 -0.16621271066E+03  0.21838100071E+03  0.12499580876E+03 0.  0.
          5    1    3    3  502    0  0.58235818042E+02 -0.43455645799E+02 -0.18122952942E+03  0.19531010211E+03  0.47000000000E+01 0. -1.
         -5    1    3    3    0  502 -0.15169396909E+02 -0.73865360073E+01  0.15016818755E+02  0.23070898602E+02  0.47000000000E+01 0. -1.
        -11    1    1    2    0    0 -0.21604753177E+02  0.68350907594E+02 -0.33403313266E+03  0.34163832579E+03  0.00000000000E+00 0.  1.
         11    1    1    2    0    0 -0.21461667957E+02 -0.17508725788E+02 -0.23293987995E+02  0.36190724597E+02  0.00000000000E+00 0. -1.
<mgrwt>
<rscale>  0 0.13667060E+03</rscale>
<asrwt>0</asrwt>
<pdfrwt beam="2">  1        1 0.86134603E-01 0.14164602E+03</pdfrwt>
<pdfrwt beam="1">  1       -1 0.55900171E-02 0.14164602E+03</pdfrwt>
<totfact> 0.55643163E+03</totfact>
</mgrwt>
</event>
<event>
 7    1  0.8712071E-006  0.1309170E+03  0.7546771E-02  0.1239006E+00
         -1   -1    0    0    0  501 -0.00000000000E+00  0.00000000000E+00  0.20186317616E+02  0.20186317616E+02  0.00000000000E+00 0.  1.
          1   -1    0    0  501    0  0.00000000000E+00 -0.00000000000E+00 -0.66846884731E+03  0.66846884731E+03  0.00000000000E+00 0. -1.
         23    2    1    2    0    0 -0.27113258254E+02  0.27939343759E+02 -0.39821309877E+03  0.41918125758E+03  0.12499407574E+03 0.  0.
          5    1    3    3  502    0 -0.74615890828E+01  0.52286112732E+02 -0.37785688473E+03  0.38155920672E+03  0.47000000000E+01 0.  1.
         -5    1    3    3    0  502 -0.19651669171E+02 -0.24346768974E+02 -0.20356214042E+02  0.37622050859E+02  0.47000000000E+01 0.  1.
        -11    1    1    2    0    0  0.45493865894E+02 -0.13223797605E+02 -0.23864649928E+03  0.24330374489E+03  0.00000000000E+00 0. -1.
         11    1    1    2    0    0 -0.18380607640E+02 -0.14715546154E+02 -0.11422931640E+02  0.26170162458E+02  0.00000000000E+00 0.  1.
<mgrwt>
<rscale>  0 0.12251448E+03</rscale>
<asrwt>0</asrwt>
<pdfrwt beam="2">  1        1 0.10284136E+00 0.13091698E+03</pdfrwt>
<pdfrwt beam="1">  1       -1 0.31055874E-02 0.13091698E+03</pdfrwt>
<totfact> 0.10311942E+04</totfact>
</mgrwt>
</event>
<event>
 7    1  0.8712071E-006  0.4683977E+03  0.7546771E-02  0.1022895E+00
         -1   -1    0    0    0  501 -0.00000000000E+00  0.00000000000E+00  0.25415521792E+03  0.25415521792E+03  0.00000000000E+00 0.  1.
          1   -1    0    0  501    0  0.00000000000E+00 -0.00000000000E+00 -0.91017461644E+03  0.91017461644E+03  0.00000000000E+00 0. -1.
         23    2    1    2    0    0 -0.12865139370E+03  0.43268754932E+03 -0.18052491696E+03  0.50198172258E+03  0.12500683073E+03 0.  0.
          5    1    3    3  502    0 -0.67914652701E+02  0.28620005350E+03 -0.17692983594E+03  0.34329160712E+03  0.47000000000E+01 0. -1.
         -5    1    3    3    0  502 -0.60736740995E+02  0.14648749581E+03 -0.35950810234E+01  0.15869011546E+03  0.47000000000E+01 0. -1.
        -11    1    1    2    0    0  0.55657396204E+02 -0.30320068907E+03 -0.27753343940E+03  0.41479297678E+03  0.00000000000E+00 0.  1.
         11    1    1    2    0    0  0.72993997492E+02 -0.12948686025E+03 -0.19796104217E+03  0.24755513500E+03  0.00000000000E+00 0. -1.
<mgrwt>
<rscale>  0 0.46656164E+03</rscale>
<asrwt>0</asrwt>
<pdfrwt beam="2">  1        1 0.14002686E+00 0.46839770E+03</pdfrwt>
<pdfrwt beam="1">  1       -1 0.39100803E-01 0.46839770E+03</pdfrwt>
<totfact> 0.11842493E+02</totfact>
</mgrwt>
</event>
<event>
 6    1  0.8712071E-006  0.1439997E+03  0.7546771E-02  0.1229077E+00
          1   -1    0    0  501    0  0.00000000000E+00  0.00000000000E+00  0.77244629361E+02  0.77244629361E+02  0.00000000000E+00 0. -1.
         -1   -1    0    0    0  501 -0.00000000000E+00 -0.00000000000E+00 -0.21133157270E+03  0.21133157270E+03  0.00000000000E+00 0.  1.
          5    1    1    2  502    0  0.14744669848E+02 -0.70480232686E+02 -0.68682283729E+02  0.99620352271E+02  0.47000000000E+01 0. -1.
         -5    1    1    2    0  502  0.10930781309E+01  0.71648758560E+02 -0.64400165621E+02  0.96458336887E+02  0.47000000000E+01 0.  1.
        -11    1    1    2    0    0 -0.49007182697E+02  0.19611984425E+02 -0.56243065383E+01  0.53084524233E+02  0.00000000000E+00 0.  1.
         11    1    1    2    0    0  0.33169434718E+02 -0.20780510299E+02  0.46198125513E+01  0.39412988669E+02  0.00000000000E+00 0. -1.
<mgrwt>
<rscale>  0 0.12891318E+03</rscale>
<asrwt>0</asrwt>
<pdfrwt beam="1">  1        1 0.11883789E-01 0.14399970E+03</pdfrwt>
<pdfrwt beam="2">  1       -1 0.32512550E-01 0.14399970E+03</pdfrwt>
<totfact> 0.43420428E+03</totfact>
</mgrwt>
</event>
<event>
 7    1  0.8712071E-006  0.1342045E+03  0.7546771E-02  0.1233448E+00
          3   -1    0    0  501    0  0.00000000000E+00  0.00000000000E+00  0.11596683373E+03  0.11596683373E+03  0.00000000000E+00 0. -1.
         -3   -1    0    0    0  501 -0.00000000000E+00 -0.00000000000E+00 -0.12348080839E+03  0.12348080839E+03  0.00000000000E+00 0.  1.
         23    2    1    2    0    0 -0.21172256904E+02  0.43123402433E+02 -0.13346295773E+02  0.13486651546E+03  0.12531145631E+03 0.  0.
          5    1    3    3  502    0  0.11648334630E+02  0.14176397540E+02  0.52416727360E+02  0.55733807101E+02  0.47000000000E+01 0.  1.
         -5    1    3    3    0  502 -0.32820591534E+02  0.28947004893E+02 -0.65763023133E+02  0.79132708361E+02  0.47000000000E+01 0.  1.
        -11    1    1    2    0    0  0.47197358956E+01 -0.51516926904E+02  0.40232832950E+02  0.65535871946E+02  0.00000000000E+00 0. -1.
         11    1    1    2    0    0  0.16452521009E+02  0.83935244705E+01 -0.34400511840E+02  0.39045254710E+02  0.00000000000E+00 0.  1.
<mgrwt>
<rscale>  0 0.12604325E+03</rscale>
<asrwt>0</asrwt>
<pdfrwt beam="1">  1        3 0.17841051E-01 0.13420452E+03</pdfrwt>
<pdfrwt beam="2">  1       -3 0.18997047E-01 0.13420452E+03</pdfrwt>
<totfact> 0.15475453E+03</totfact>
</mgrwt>
</event>
<event>
 7    1  0.8712071E-006  0.2215644E+03  0.7546771E-02  0.1136056E+00
          2   -1    0    0  501    0  0.00000000000E+00  0.00000000000E+00  0.61216758003E+03  0.61216758003E+03  0.00000000000E+00 0. -1.
         -2   -1    0    0    0  501 -0.00000000000E+00 -0.00000000000E+00 -0.78413632117E+02  0.78413632117E+02  0.00000000000E+00 0.  1.
         23    2    1    2    0    0 -0.45691316739E+01  0.18292161720E+03  0.19579149215E+03  0.29567732297E+03  0.12493828844E+03 0.  0.
          5    1    3    3  502    0 -0.33973245756E+02  0.25415788825E+02  0.10051458963E+03  0.10920355524E+03  0.47000000000E+01 0.  1.
         -5    1    3    3    0  502  0.29404114082E+02  0.15750582838E+03  0.95276902518E+02  0.18647376773E+03  0.47000000000E+01 0.  1.
        -11    1    1    2    0    0  0.10702551669E+02 -0.24932094550E+02  0.13461393522E+03  0.13732103082E+03  0.00000000000E+00 0. -1.
         11    1    1    2    0    0 -0.61334199950E+01 -0.15798952265E+03  0.20334852055E+03  0.25758285835E+03  0.00000000000E+00 0.  1.
<mgrwt>
<rscale>  0 0.21711088E+03</rscale>
<asrwt>0</asrwt>
<pdfrwt beam="1">  1        2 0.94179624E-01 0.22156437E+03</pdfrwt>
<pdfrwt beam="2">  1       -2 0.12063636E-01 0.22156437E+03</pdfrwt>
<totfact> 0.23999386E+03</totfact>
</mgrwt>
</event>
<event>
 7    1  0.8712071E-006  0.2540926E+03  0.7546771E-02  0.1113387E+00
         -1   -1    0    0    0  501 -0.00000000000E+00  0.00000000000E+00  0.18626506026E+03  0.18626506026E+03  0.00000000000E+00 0.  1.
          1   -1    0    0  501    0  0.00000000000E+00 -0.00000000000E+00 -0.32696601409E+03  0.32696601409E+03  0.00000000000E+00 0. -1.
         23    2    1    2    0    0  0.21529031876E+03  0.50886843932E+02 -0.50460596367E+02  0.25905464625E+03  0.12499458277E+03 0.  0.
          5    1    3    3  502    0  0.99638005764E+02 -0.38352137523E+02 -0.96121580104E+01  0.10729912500E+03  0.47000000000E+01 0.  1.
         -5    1    3    3    0  502  0.11565231300E+03  0.89238981455E+02 -0.40848438357E+02  0.15175552125E+03  0.47000000000E+01 0.  1.
        -11    1    1    2    0    0 -0.13155085276E+03 -0.73521887387E+02 -0.61903203499E+02  0.16292053704E+03  0.00000000000E+00 0. -1.
         11    1    1    2    0    0 -0.83739466005E+02  0.22635043454E+02 -0.28337153961E+02  0.91255891062E+02  0.00000000000E+00 0.  1.
<mgrwt>
<rscale>  0 0.24986984E+03</rscale>
<asrwt>0</asrwt>
<pdfrwt beam="2">  1        1 0.50302463E-01 0.25409258E+03</pdfrwt>
<pdfrwt beam="1">  1       -1 0.28656163E-01 0.25409258E+03</pdfrwt>
<totfact> 0.86939844E+02</totfact>
</mgrwt>
</event>
<event>
 7    1  0.8712071E-006  0.1836205E+03  0.7546771E-02  0.1169955E+00
          1   -1    0    0  501    0  0.00000000000E+00  0.00000000000E+00  0.27937787842E+03  0.27937787842E+03  0.00000000000E+00 0. -1.
         -1   -1    0    0    0  501 -0.00000000000E+00 -0.00000000000E+00 -0.10896856907E+03  0.10896856907E+03  0.00000000000E+00 0.  1.
         23    2    1    2    0    0 -0.13214156951E+03 -0.25131369300E+02  0.61532866121E+02  0.19365633879E+03  0.12499401515E+03 0.  0.
          5    1    3    3  502    0 -0.15121190562E+03 -0.48520981691E+00  0.43817778813E+02  0.15750353510E+03  0.47000000000E+01 0.  1.
         -5    1    3    3    0  502  0.19070336102E+02 -0.24646159483E+02  0.17715087308E+02  0.36152803690E+02  0.47000000000E+01 0.  1.
        -11    1    1    2    0    0  0.23791761439E+02  0.34444260147E+02  0.65233165213E+02  0.77510133616E+02  0.00000000000E+00 0. -1.
         11    1    1    2    0    0  0.10834980807E+03 -0.93128908468E+01  0.43643278008E+02  0.11717997508E+03  0.00000000000E+00 0.  1.
<mgrwt>
<rscale>  0 0.17779402E+03</rscale>
<asrwt>0</asrwt>
<pdfrwt beam="1">  1        1 0.42981212E-01 0.18362049E+03</pdfrwt>
<pdfrwt beam="2">  1       -1 0.16764395E-01 0.18362049E+03</pdfrwt>
<totfact> 0.25362921E+03</totfact>
</mgrwt>
</event>
<event>
 7    1  0.8712071E-006  0.1257635E+03  0.7546771E-02  0.1249412E+00
          2   -1    0    0  501    0  0.00000000000E+00  0.00000000000E+00  0.37071073512E+03  0.37071073512E+03  0.00000000000E+00 0. -1.
         -2   -1    0    0    0  501 -0.00000000000E+00 -0.00000000000E+00 -0.31929251490E+02  0.31929251490E+02  0.00000000000E+00 0.  1.
         23    2    1    2    0    0  0.10228361898E+02  0.88994450005E+01  0.19400261194E+03  0.23120009245E+03  0.12503059546E+03 0.  0.
          5    1    3    3  502    0  0.37242586178E+01  0.43322679653E+02  0.11385043328E+02  0.45193294704E+02  0.47000000000E+01 0.  1.
         -5    1    3    3    0  502  0.65041032801E+01 -0.34423234653E+02  0.18261756861E+03  0.18600679775E+03  0.47000000000E+01 0.  1.
        -11    1    1    2    0    0  0.34290156156E+02 -0.37178263807E+01  0.22436813478E+02  0.41146660147E+02  0.00000000000E+00 0.  1.
         11    1    1    2    0    0 -0.44518518053E+02 -0.51816186198E+01  0.12234205822E+03  0.13029323401E+03  0.00000000000E+00 0. -1.
<mgrwt>
<rscale>  0 0.11625165E+03</rscale>
<asrwt>0</asrwt>
<pdfrwt beam="1">  1        2 0.57032418E-01 0.12576355E+03</pdfrwt>
<pdfrwt beam="2">  1       -2 0.49121928E-02 0.12576355E+03</pdfrwt>
<totfact> 0.16304972E+04</totfact>
</mgrwt>
</event>
<event>
 7    1  0.8712071E-006  0.1259024E+03  0.7546771E-02  0.1249219E+00
         -2   -1    0    0    0  501 -0.00000000000E+00  0.00000000000E+00  0.27466421233E+02  0.27466421233E+02  0.00000000000E+00 0.  1.
          2   -1    0    0  501    0  0.00000000000E+00 -0.00000000000E+00 -0.43165864846E+03  0.43165864846E+03  0.00000000000E+00 0. -1.
         23    2    1    2    0    0  0.11387695443E+02 -0.98801821817E+01 -0.23327802761E+03  0.26508499753E+03  0.12499648053E+03 0.  0.
          5    1    3    3  502    0  0.19152460385E+02 -0.55128949211E+02 -0.52938698645E+02  0.78934235881E+02  0.47000000000E+01 0.  1.
         -5    1    3    3    0  502 -0.77647649412E+01  0.45248767030E+02 -0.18033932896E+03  0.18615076165E+03  0.47000000000E+01 0.  1.
        -11    1    1    2    0    0  0.24494608231E+02  0.40835712357E+01 -0.65182484054E+01  0.25673896251E+02  0.00000000000E+00 0.  1.
         11    1    1    2    0    0 -0.35882303674E+02  0.57966109459E+01 -0.16439595122E+03  0.16836617591E+03  0.00000000000E+00 0. -1.
<mgrwt>
<rscale>  0 0.11636372E+03</rscale>
<asrwt>0</asrwt>
<pdfrwt beam="2">  1        2 0.66409020E-01 0.12590241E+03</pdfrwt>
<pdfrwt beam="1">  1       -2 0.42256034E-02 0.12590241E+03</pdfrwt>
<totfact> 0.17355239E+04</totfact>
</mgrwt>
</event>
<event>
 6    1  0.8712071E-006  0.1726310E+03  0.7546771E-02  0.1189325E+00
         -2   -1    0    0    0  501 -0.00000000000E+00  0.00000000000E+00  0.20273835649E+02  0.20273835649E+02  0.00000000000E+00 0.  1.
          2   -1    0    0  501    0  0.00000000000E+00 -0.00000000000E+00 -0.12240390650E+04  0.12240390650E+04  0.00000000000E+00 0. -1.
          5    1    1    2  502    0  0.47122755999E+02 -0.41112706582E+02 -0.48778392435E+03  0.49179879588E+03  0.47000000000E+01 0. -1.
         -5    1    1    2    0  502  0.20209489899E+02 -0.16391555796E+02 -0.87484583472E+00  0.26456793808E+02  0.47000000000E+01 0.  1.
        -11    1    1    2    0    0  0.11675877669E+02  0.43662707910E+02 -0.23753825809E+03  0.24179988056E+03  0.00000000000E+00 0.  1.
         11    1    1    2    0    0 -0.79008123567E+02  0.13841554468E+02 -0.47756820107E+03  0.48425743039E+03  0.00000000000E+00 0. -1.
<mgrwt>
<rscale>  0 0.15944439E+03</rscale>
<asrwt>0</asrwt>
<pdfrwt beam="2">  1        2 0.18831374E+00 0.17263100E+03</pdfrwt>
<pdfrwt beam="1">  1       -2 0.31190510E-02 0.17263100E+03</pdfrwt>
<totfact> 0.76078960E+03</totfact>
</mgrwt>
</event>
<event>
 7    1  0.8712071E-006  0.1251451E+03  0.7546771E-02  0.1249387E+00
         -1   -1    0    0    0  501 -0.00000000000E+00  0.00000000000E+00  0.35018177233E+02  0.35018177233E+02  0.00000000000E+00 0.  1.
          1   -1    0    0  501    0  0.00000000000E+00 -0.00000000000E+00 -0.34597773390E+03  0.34597773390E+03  0.00000000000E+00 0. -1.
         23    2    1    2    0    0  0.59966832210E+01  0.13588879090E+01 -0.15403249889E+03  0.19846232453E+03  0.12499390689E+03 0.  0.
          5    1    3    3  502    0  0.49113764870E+02 -0.40077251853E+02 -0.63399401146E+02  0.89777068795E+02  0.47000000000E+01 0. -1.
         -5    1    3    3    0  502 -0.43117081649E+02  0.41436139762E+02 -0.90633097741E+02  0.10868525574E+03  0.47000000000E+01 0. -1.
        -11    1    1    2    0    0 -0.27454724544E+02 -0.32655311701E+02 -0.36096137951E+02  0.55884366839E+02  0.00000000000E+00 0.  1.
         11    1    1    2    0    0  0.21458041323E+02  0.31296423792E+02 -0.12083091983E+03  0.12664921976E+03  0.00000000000E+00 0. -1.
<mgrwt>
<rscale>  0 0.11626601E+03</rscale>
<asrwt>0</asrwt>
<pdfrwt beam="2">  1        1 0.53227344E-01 0.12514505E+03</pdfrwt>
<pdfrwt beam="1">  1       -1 0.53874118E-02 0.12514505E+03</pdfrwt>
<totfact> 0.10798186E+04</totfact>
</mgrwt>
</event>
<event>
 7    1  0.8712071E-006  0.1264383E+03  0.7546771E-02  0.1248864E+00
         -1   -1    0    0    0  501 -0.00000000000E+00  0.00000000000E+00  0.56303867595E+03  0.56303867595E+03  0.00000000000E+00 0.  1.
          1   -1    0    0  501    0  0.00000000000E+00 -0.00000000000E+00 -0.21699079934E+02  0.21699079934E+02  0.00000000000E+00 0. -1.
         23    2    1    2    0    0  0.18738734162E+02  0.33089099856E+01  0.36248136571E+03  0.38390021600E+03  0.12499818524E+03 0.  0.
          5    1    3    3  502    0  0.29544482942E+02 -0.33088226553E+02  0.33200409209E+03  0.33498733465E+03  0.47000000000E+01 0. -1.
         -5    1    3    3    0  502 -0.10805748780E+02  0.36397136538E+02  0.30477273621E+02  0.48912881353E+02  0.47000000000E+01 0. -1.
        -11    1    1    2    0    0 -0.49807852380E+02  0.14215183906E+01  0.60499385090E+02  0.78377410454E+02  0.00000000000E+00 0.  1.
         11    1    1    2    0    0  0.31069118218E+02 -0.47304283762E+01  0.11835884521E+03  0.12246012943E+03  0.00000000000E+00 0. -1.
<mgrwt>
<rscale>  0 0.11657089E+03</rscale>
<asrwt>0</asrwt>
<pdfrwt beam="2">  1        1 0.33383204E-02 0.12643827E+03</pdfrwt>
<pdfrwt beam="1">  1       -1 0.86621324E-01 0.12643827E+03</pdfrwt>
<totfact> 0.38600790E+03</totfact>
</mgrwt>
</event>
<event>
 7    1  0.8712071E-006  0.1252711E+03  0.7546771E-02  0.1250218E+00
         -2   -1    0    0    0  501 -0.00000000000E+00  0.00000000000E+00  0.27585355752E+03  0.27585355752E+03  0.00000000000E+00 0.  1.
          2   -1    0    0  501    0  0.00000000000E+00 -0.00000000000E+00 -0.48033624337E+02  0.48033624337E+02  0.00000000000E+00 0. -1.
         23    2    1    2    0    0 -0.71795587889E+01  0.40930583441E+01  0.18377151788E+03  0.22240686179E+03  0.12499816877E+03 0.  0.
          5    1    3    3  502    0  0.22879770424E+02  0.55726933275E+02  0.12308035163E+03  0.13711250105E+03  0.47000000000E+01 0. -1.
         -5    1    3    3    0  502 -0.30059329213E+02 -0.51633874930E+02  0.60691166248E+02  0.85294360737E+02  0.47000000000E+01 0. -1.
        -11    1    1    2    0    0  0.33070407774E+02 -0.18102327058E+02 -0.10812192900E+02  0.39220525629E+02  0.00000000000E+00 0. -1.
         11    1    1    2    0    0 -0.25890848985E+02  0.14009268714E+02  0.54860608204E+02  0.62259794439E+02  0.00000000000E+00 0.  1.
<mgrwt>
<rscale>  0 0.11578461E+03</rscale>
<asrwt>0</asrwt>
<pdfrwt beam="2">  1        2 0.73897885E-02 0.12527107E+03</pdfrwt>
<pdfrwt beam="1">  1       -2 0.42439008E-01 0.12527107E+03</pdfrwt>
<totfact> 0.47279946E+03</totfact>
</mgrwt>
</event>
<event>
 7    1  0.8712071E-006  0.1522029E+03  0.7546771E-02  0.1206944E+00
          2   -1    0    0  501    0  0.00000000000E+00  0.00000000000E+00  0.10039068694E+04  0.10039068694E+04  0.00000000000E+00 0. -1.
         -2   -1    0    0    0  501 -0.00000000000E+00 -0.00000000000E+00 -0.19205217483E+02  0.19205217483E+02  0.00000000000E+00 0.  1.
         23    2    1    2    0    0  0.86581377118E+02 -0.66473634756E+01  0.57520737949E+03  0.59500357606E+03  0.12500081518E+03 0.  0.
          5    1    3    3  502    0  0.28327256018E+01 -0.10031389696E+02  0.40556569474E+03  0.40572684883E+03  0.47000000000E+01 0.  1.
         -5    1    3    3    0  502  0.83748651516E+02  0.33840262200E+01  0.16964168475E+03  0.18927672722E+03  0.47000000000E+01 0.  1.
        -11    1    1    2    0    0 -0.35944683867E+02  0.41421802306E+02  0.11676126537E+03  0.12899991897E+03  0.00000000000E+00 0.  1.
         11    1    1    2    0    0 -0.50636693251E+02 -0.34774438831E+02  0.29273300711E+03  0.29910859190E+03  0.00000000000E+00 0. -1.
<mgrwt>
<rscale>  0 0.14485305E+03</rscale>
<asrwt>0</asrwt>
<pdfrwt beam="1">  1        2 0.15444717E+00 0.15220291E+03</pdfrwt>
<pdfrwt beam="2">  1       -2 0.29546496E-02 0.15220291E+03</pdfrwt>
<totfact> 0.10966610E+04</totfact>
</mgrwt>
</event>
<event>
 7    1  0.8712071E-006  0.3898693E+03  0.7546771E-02  0.1048188E+00
         -2   -1    0    0    0  501 -0.00000000000E+00  0.00000000000E+00  0.11151483662E+03  0.11151483662E+03  0.00000000000E+00 0. -1.
          2   -1    0    0  501    0  0.00000000000E+00 -0.00000000000E+00 -0.15545162389E+04  0.15545162389E+04  0.00000000000E+00 0.  1.
         23    2    1    2    0    0 -0.30300573740E+03 -0.21109319865E+03 -0.41288952434E+03  0.56786952805E+03  0.12500090462E+03 0.  0.
          5    1    3    3  502    0 -0.24379562145E+03 -0.10010711637E+03 -0.29130155675E+03  0.39285675093E+03  0.47000000000E+01 0.  1.
         -5    1    3    3    0  502 -0.59210115953E+02 -0.11098608228E+03 -0.12158796759E+03  0.17501277712E+03  0.47000000000E+01 0.  1.
        -11    1    1    2    0    0  0.66790670603E+02  0.17912778207E+02 -0.12308646967E+03  0.14118123217E+03  0.00000000000E+00 0. -1.
         11    1    1    2    0    0  0.23621506680E+03  0.19318042044E+03 -0.90702540827E+03  0.95698031530E+03  0.00000000000E+00 0.  1.
<mgrwt>
<rscale>  0 0.38752161E+03</rscale>
<asrwt>0</asrwt>
<pdfrwt beam="2">  1        2 0.23915631E+00 0.38986926E+03</pdfrwt>
<pdfrwt beam="1">  1       -2 0.17156131E-01 0.38986926E+03</pdfrwt>
<totfact> 0.34470638E+02</totfact>
</mgrwt>
</event>
<event>
 7    1  0.8712071E-006  0.1366880E+03  0.7546771E-02  0.1229300E+00
         -2   -1    0    0    0  501 -0.00000000000E+00  0.00000000000E+00  0.47603677972E+02  0.47603677972E+02  0.00000000000E+00 0.  1.
          2   -1    0    0  501    0  0.00000000000E+00 -0.00000000000E+00 -0.39286272045E+03  0.39286272045E+03  0.00000000000E+00 0. -1.
         23    2    1    2    0    0  0.10343802607E+02  0.54278308428E+02 -0.90592593029E+02  0.16398358164E+03  0.12502187055E+03 0.  0.
          5    1    3    3  502    0  0.97783002539E+01 -0.28253619721E+02  0.11713183054E+02  0.32452593740E+02  0.47000000000E+01 0. -1.
         -5    1    3    3    0  502  0.56550235330E+00  0.82531928149E+02 -0.10230577608E+03  0.13153098790E+03  0.47000000000E+01 0. -1.
        -11    1    1    2    0    0  0.72597022762E+01 -0.58722893629E+02 -0.25110334239E+03  0.25798056142E+03  0.00000000000E+00 0. -1.
         11    1    1    2    0    0 -0.17603504883E+02  0.44445852006E+01 -0.35631070646E+01  0.18502255369E+02  0.00000000000E+00 0.  1.
<mgrwt>
<rscale>  0 0.12876492E+03</rscale>
<asrwt>0</asrwt>
<pdfrwt beam="2">  1        2 0.60440417E-01 0.13668796E+03</pdfrwt>
<pdfrwt beam="1">  1       -2 0.73236429E-02 0.13668796E+03</pdfrwt>
<totfact> 0.84230084E+03</totfact>
</mgrwt>
</event>
<event>
 7    1  0.8712071E-006  0.1759349E+03  0.7546771E-02  0.1177643E+00
         -1   -1    0    0    0  501 -0.00000000000E+00  0.00000000000E+00  0.19981554473E+03  0.19981554473E+03  0.00000000000E+00 0.  1.
          1   -1    0    0  501    0  0.00000000000E+00 -0.00000000000E+00 -0.17403464286E+03  0.17403464286E+03  0.00000000000E+00 0. -1.
         23    2    1    2    0    0 -0.62432886968E+02  0.10690632360E+03  0.10049193054E+03  0.20261221088E+03  0.12500500988E+03 0.  0.
          5    1    3    3  502    0 -0.14287296286E+02 -0.49184247162E+01 -0.23788249261E+02  0.28570763724E+02  0.47000000000E+01 0. -1.
         -5    1    3    3    0  502 -0.48145590681E+02  0.11182474831E+03  0.12428017980E+03  0.17404144716E+03  0.47000000000E+01 0. -1.
        -11    1    1    2    0    0  0.42463919109E+02 -0.11300607757E+03 -0.33891417435E+02  0.12538814206E+03  0.00000000000E+00 0.  1.
         11    1    1    2    0    0  0.19968967859E+02  0.60997539748E+01 -0.40819611235E+02  0.45849834649E+02  0.00000000000E+00 0. -1.
<mgrwt>
<rscale>  0 0.17019651E+03</rscale>
<asrwt>0</asrwt>
<pdfrwt beam="2">  1        1 0.26774560E-01 0.17593487E+03</pdfrwt>
<pdfrwt beam="1">  1       -1 0.30740853E-01 0.17593487E+03</pdfrwt>
<totfact> 0.16942811E+03</totfact>
</mgrwt>
</event>
<event>
 7    1  0.8712071E-006  0.1211029E+03  0.7546771E-02  0.1255347E+00
         -2   -1    0    0    0  501 -0.00000000000E+00  0.00000000000E+00  0.33143820827E+02  0.33143820827E+02  0.00000000000E+00 0.  1.
          2   -1    0    0  501    0  0.00000000000E+00 -0.00000000000E+00 -0.51957620116E+03  0.51957620116E+03  0.00000000000E+00 0. -1.
         23    2    1    2    0    0 -0.14027194082E+02  0.11308415302E+02 -0.10433756283E+03  0.15985071500E+03  0.11975509024E+03 0.  0.
          5    1    3    3  502    0  0.29722766812E+02  0.35364260492E-01 -0.11003171505E+03  0.11407239997E+03  0.47000000000E+01 0. -1.
         -5    1    3    3    0  502 -0.43749960894E+02  0.11273051042E+02  0.56941522164E+01  0.45778315035E+02  0.47000000000E+01 0.  1.
        -11    1    1    2    0    0 -0.35455828529E+02  0.10886537157E+02 -0.14851791604E+03  0.15307907712E+03  0.00000000000E+00 0. -1.
         11    1    1    2    0    0  0.49483022611E+02 -0.22194952459E+02 -0.23357690146E+03  0.23979022987E+03  0.00000000000E+00 0.  1.
<mgrwt>
<rscale>  0 0.11286930E+03</rscale>
<asrwt>0</asrwt>
<pdfrwt beam="2">  1        2 0.79934799E-01 0.12110295E+03</pdfrwt>
<pdfrwt beam="1">  1       -2 0.50990495E-02 0.12110295E+03</pdfrwt>
<totfact> 0.10687264E+04</totfact>
</mgrwt>
</event>
<event>
 7    1  0.8712071E-006  0.1295695E+03  0.7546771E-02  0.1250350E+00
         -2   -1    0    0    0  501 -0.00000000000E+00  0.00000000000E+00  0.44077588712E+02  0.44077588712E+02  0.00000000000E+00 0. -1.
          2   -1    0    0  501    0  0.00000000000E+00 -0.00000000000E+00 -0.27838951342E+03  0.27838951342E+03  0.00000000000E+00 0.  1.
         23    2    1    2    0    0  0.11549727810E+02  0.32094717264E+02 -0.95208830808E+02  0.16078863929E+03  0.12499919189E+03 0.  0.
          5    1    3    3  502    0  0.61169952450E+02  0.25686729764E+02 -0.18413239729E+02  0.69012379803E+02  0.47000000000E+01 0.  1.
         -5    1    3    3    0  502 -0.49620224640E+02  0.64079874999E+01 -0.76795591078E+02  0.91776259491E+02  0.47000000000E+01 0.  1.
        -11    1    1    2    0    0 -0.38060303167E+02 -0.81810050197E+01 -0.37775060434E+02  0.54244545450E+02  0.00000000000E+00 0. -1.
         11    1    1    2    0    0  0.26510575356E+02 -0.23913712244E+02 -0.10132803347E+03  0.10743391739E+03  0.00000000000E+00 0.  1.
<mgrwt>
<rscale>  0 0.11570788E+03</rscale>
<asrwt>0</asrwt>
<pdfrwt beam="2">  1        2 0.42829155E-01 0.12956954E+03</pdfrwt>
<pdfrwt beam="1">  1       -2 0.67811677E-02 0.12956954E+03</pdfrwt>
<totfact> 0.13600664E+04</totfact>
</mgrwt>
</event>
<event>
 7    1  0.8712071E-006  0.1801619E+03  0.7546771E-02  0.1173278E+00
          1   -1    0    0  501    0  0.00000000000E+00  0.00000000000E+00  0.51576014778E+02  0.51576014778E+02  0.00000000000E+00 0. -1.
         -1   -1    0    0    0  501 -0.00000000000E+00 -0.00000000000E+00 -0.55969484732E+03  0.55969484732E+03  0.00000000000E+00 0.  1.
         23    2    1    2    0    0  0.89431984851E+02  0.93997674321E+02 -0.24423564176E+03  0.30349525682E+03  0.12499871804E+03 0.  0.
          5    1    3    3  502    0  0.11535921283E+02 -0.27773402990E+02 -0.19195364902E+02  0.35985989318E+02  0.47000000000E+01 0. -1.
         -5    1    3    3    0  502  0.77896063568E+02  0.12177107731E+03 -0.22504027686E+03  0.26750926750E+03  0.47000000000E+01 0. -1.
        -11    1    1    2    0    0 -0.95419353872E+02 -0.10711656469E+03 -0.23177021084E+03  0.27257337022E+03  0.00000000000E+00 0. -1.
         11    1    1    2    0    0  0.59873690211E+01  0.13118890364E+02 -0.32112979937E+02  0.35202235051E+02  0.00000000000E+00 0.  1.
<mgrwt>
<rscale>  0 0.17445687E+03</rscale>
<asrwt>0</asrwt>
<pdfrwt beam="1">  1        1 0.79347712E-02 0.18016193E+03</pdfrwt>
<pdfrwt beam="2">  1       -1 0.86106903E-01 0.18016193E+03</pdfrwt>
<totfact> 0.12151604E+03</totfact>
</mgrwt>
</event>
<event>
 7    1  0.8712071E-006  0.1472077E+03  0.7546771E-02  0.1213965E+00
          2   -1    0    0  501    0  0.00000000000E+00  0.00000000000E+00  0.32949738010E+03  0.32949738010E+03  0.00000000000E+00 0. -1.
         -2   -1    0    0    0  501 -0.00000000000E+00 -0.00000000000E+00 -0.54552721927E+02  0.54552721927E+02  0.00000000000E+00 0.  1.
         23    2    1    2    0    0 -0.75846982304E+02 -0.17114839505E+02  0.12793349400E+03  0.19503101401E+03  0.12499774032E+03 0.  0.
          5    1    3    3  502    0 -0.26241383597E+02  0.53141335970E+02  0.66700002151E+02  0.89350949008E+02  0.47000000000E+01 0. -1.
         -5    1    3    3    0  502 -0.49605598707E+02 -0.70256175475E+02  0.61233491851E+02  0.10568006501E+03  0.47000000000E+01 0. -1.
        -11    1    1    2    0    0  0.28568806378E+02 -0.18278924205E+02  0.38246337133E+01  0.34130977000E+02  0.00000000000E+00 0.  1.
         11    1    1    2    0    0  0.47278175927E+02  0.35393763710E+02  0.14318653045E+03  0.15488811101E+03  0.00000000000E+00 0. -1.
<mgrwt>
<rscale>  0 0.13952810E+03</rscale>
<asrwt>0</asrwt>
<pdfrwt beam="1">  1        2 0.50691903E-01 0.14720774E+03</pdfrwt>
<pdfrwt beam="2">  1       -2 0.83927267E-02 0.14720774E+03</pdfrwt>
<totfact> 0.82721247E+03</totfact>
</mgrwt>
</event>
<event>
 7    1  0.8712071E-006  0.1270629E+03  0.7546771E-02  0.1247250E+00
         -2   -1    0    0    0  501 -0.00000000000E+00  0.00000000000E+00  0.26706851167E+03  0.26706851167E+03  0.00000000000E+00 0.  1.
          2   -1    0    0  501    0  0.00000000000E+00 -0.00000000000E+00 -0.49423957153E+02  0.49423957153E+02  0.00000000000E+00 0. -1.
         23    2    1    2    0    0 -0.20340444479E+02 -0.10252046883E+02  0.16937241606E+03  0.21173567725E+03  0.12500457412E+03 0.  0.
          5    1    3    3  502    0 -0.53057275226E+02  0.28303530208E+02  0.39016620828E+02  0.71836975002E+02  0.47000000000E+01 0. -1.
         -5    1    3    3    0  502  0.32716830747E+02 -0.38555577091E+02  0.13035579523E+03  0.13989870224E+03  0.47000000000E+01 0. -1.
        -11    1    1    2    0    0  0.55843047614E+02  0.12980960347E+02  0.28423377333E+02  0.63990934337E+02  0.00000000000E+00 0.  1.
         11    1    1    2    0    0 -0.35502603135E+02 -0.27289134637E+01  0.19848761118E+02  0.40765857234E+02  0.00000000000E+00 0. -1.
<mgrwt>
<rscale>  0 0.11751738E+03</rscale>
<asrwt>0</asrwt>
<pdfrwt beam="2">  1        2 0.76036859E-02 0.12706290E+03</pdfrwt>
<pdfrwt beam="1">  1       -2 0.41087463E-01 0.12706290E+03</pdfrwt>
<totfact> 0.48562847E+03</totfact>
</mgrwt>
</event>
<event>
 7    1  0.8712071E-006  0.1497675E+03  0.7546771E-02  0.1207600E+00
         -1   -1    0    0    0  501 -0.00000000000E+00  0.00000000000E+00  0.31334880327E+03  0.31334880327E+03  0.00000000000E+00 0.  1.
          1   -1    0    0  501    0  0.00000000000E+00 -0.00000000000E+00 -0.71494729814E+02  0.71494729814E+02  0.00000000000E+00 0. -1.
         23    2    1    2    0    0  0.90467925206E+02 -0.24812583584E+02  0.19824698626E+03  0.24845962121E+03  0.11674847328E+03 0.  0.
          5    1    3    3  502    0  0.10899411863E+03 -0.10086116782E+02  0.10360265309E+03  0.15078808764E+03  0.47000000000E+01 0. -1.
         -5    1    3    3    0  502 -0.18526193422E+02 -0.14726466802E+02  0.94644333175E+02  0.97671533567E+02  0.47000000000E+01 0.  1.
        -11    1    1    2    0    0  0.14220214476E+02  0.43692976225E+01 -0.90666205750E+01  0.17421505965E+02  0.00000000000E+00 0. -1.
         11    1    1    2    0    0 -0.10468813968E+03  0.20443285961E+02  0.52673707770E+02  0.11896240591E+03  0.00000000000E+00 0.  1.
<mgrwt>
<rscale>  0 0.14434427E+03</rscale>
<asrwt>0</asrwt>
<pdfrwt beam="2">  1        1 0.10999189E-01 0.14976754E+03</pdfrwt>
<pdfrwt beam="1">  1       -1 0.48207507E-01 0.14976754E+03</pdfrwt>
<totfact> 0.24136971E+03</totfact>
</mgrwt>
</event>
<event>
 7    1  0.8712071E-006  0.1757141E+03  0.7546771E-02  0.1177944E+00
         -1   -1    0    0    0  501 -0.00000000000E+00  0.00000000000E+00  0.42894809839E+02  0.42894809839E+02  0.00000000000E+00 0.  1.
          1   -1    0    0  501    0  0.00000000000E+00 -0.00000000000E+00 -0.64441290846E+03  0.64441290846E+03  0.00000000000E+00 0. -1.
         23    2    1    2    0    0  0.12025134578E+03 -0.28123819646E+02 -0.27319513373E+03  0.32482461603E+03  0.12499645871E+03 0.  0.
          5    1    3    3  502    0  0.30546013066E+02 -0.42397004325E+02 -0.20372933389E+03  0.21037655853E+03  0.47000000000E+01 0.  1.
         -5    1    3    3    0  502  0.89705332716E+02  0.14273184679E+02 -0.69465799838E+02  0.11444805750E+03  0.47000000000E+01 0.  1.
        -11    1    1    2    0    0 -0.55381241920E+02  0.27998907464E+02 -0.26375196028E+03  0.27095408712E+03  0.00000000000E+00 0. -1.
         11    1    1    2    0    0 -0.64870103861E+02  0.12491218198E+00 -0.64571004612E+02  0.91529015151E+02  0.00000000000E+00 0.  1.
<mgrwt>
<rscale>  0 0.16990825E+03</rscale>
<asrwt>0</asrwt>
<pdfrwt beam="2">  1        1 0.99140441E-01 0.17571411E+03</pdfrwt>
<pdfrwt beam="1">  1       -1 0.65992020E-02 0.17571411E+03</pdfrwt>
<totfact> 0.36140125E+03</totfact>
</mgrwt>
</event>
<event>
 7    1  0.1342894E-005  0.2492965E+03  0.7546771E-02  0.1116278E+00
         -1   -1    0    0    0  501 -0.00000000000E+00  0.00000000000E+00  0.49319134535E+03  0.49319134535E+03  0.00000000000E+00 0.  1.
          1   -1    0    0  501    0  0.00000000000E+00 -0.00000000000E+00 -0.13090761501E+03  0.13090761501E+03  0.00000000000E+00 0. -1.
         23    2    1    2    0    0 -0.21045421352E+03  0.47249719979E+02  0.28298224842E+03  0.37713084816E+03  0.12500084672E+03 0.  0.
          5    1    3    3  502    0 -0.19078930571E+03 -0.59983243318E+01  0.23392316767E+03  0.30195807232E+03  0.47000000000E+01 0. -1.
         -5    1    3    3    0  502 -0.19664907812E+02  0.53248044310E+02  0.49059080755E+02  0.75172775835E+02  0.47000000000E+01 0. -1.
        -11    1    1    2    0    0  0.76008870700E+02 -0.41162883725E+02 -0.75906919909E+01  0.86771827379E+02  0.00000000000E+00 0. -1.
         11    1    1    2    0    0  0.13444534282E+03 -0.60868362532E+01  0.86892173908E+02  0.16019628482E+03  0.00000000000E+00 0.  1.
<mgrwt>
<rscale>  0 0.24535222E+03</rscale>
<asrwt>0</asrwt>
<pdfrwt beam="2">  1        1 0.20139633E-01 0.24929646E+03</pdfrwt>
<pdfrwt beam="1">  1       -1 0.75875591E-01 0.24929646E+03</pdfrwt>
<totfact> 0.46209991E+02</totfact>
</mgrwt>
</event>
<event>
 7    1  0.8712071E-006  0.1267496E+03  0.7546771E-02  0.1249103E+00
          2   -1    0    0  501    0  0.00000000000E+00  0.00000000000E+00  0.29658068081E+03  0.29658068081E+03  0.00000000000E+00 0. -1.
         -2   -1    0    0    0  501 -0.00000000000E+00 -0.00000000000E+00 -0.43567908117E+02  0.43567908117E+02  0.00000000000E+00 0.  1.
         23    2    1    2    0    0  0.18978678404E+02 -0.90193736690E+01  0.95826015277E+02  0.15889649756E+03  0.12499572952E+03 0.  0.
          5    1    3    3  502    0  0.29516599685E+01  0.28568447017E+01 -0.30391551611E+02  0.31025961186E+02  0.47000000000E+01 0. -1.
         -5    1    3    3    0  502  0.16027018435E+02 -0.11876218371E+02  0.12621756689E+03  0.12787053638E+03  0.47000000000E+01 0. -1.
        -11    1    1    2    0    0 -0.69657671088E+01 -0.22084380386E+02  0.28230352911E+01  0.23328336775E+02  0.00000000000E+00 0.  1.
         11    1    1    2    0    0 -0.12012911295E+02  0.31103754055E+02  0.15436372212E+03  0.15792375458E+03  0.00000000000E+00 0. -1.
<mgrwt>
<rscale>  0 0.11643112E+03</rscale>
<asrwt>0</asrwt>
<pdfrwt beam="1">  1        2 0.45627796E-01 0.12674964E+03</pdfrwt>
<pdfrwt beam="2">  1       -2 0.67027553E-02 0.12674964E+03</pdfrwt>
<totfact> 0.12923388E+04</totfact>
</mgrwt>
</event>
<event>
 7    1  0.8712071E-006  0.1405760E+03  0.7546771E-02  0.1226053E+00
          1   -1    0    0  501    0  0.00000000000E+00  0.00000000000E+00  0.30278891926E+03  0.30278891926E+03  0.00000000000E+00 0. -1.
         -1   -1    0    0    0  501 -0.00000000000E+00 -0.00000000000E+00 -0.50152919181E+02  0.50152919181E+02  0.00000000000E+00 0.  1.
         23    2    1    2    0    0 -0.58246780466E+02 -0.27273921020E+02  0.14116519854E+03  0.19922156515E+03  0.12500025815E+03 0.  0.
          5    1    3    3  502    0 -0.54926359379E+02  0.42410371368E+02  0.57954260694E+02  0.90533589826E+02  0.47000000000E+01 0.  1.
         -5    1    3    3    0  502 -0.33204210874E+01 -0.69684292387E+02  0.83210937850E+02  0.10868797532E+03  0.47000000000E+01 0.  1.
        -11    1    1    2    0    0  0.75011356511E+02  0.14230373376E+01  0.77880079545E+02  0.10813896352E+03  0.00000000000E+00 0.  1.
         11    1    1    2    0    0 -0.16764576045E+02  0.25850883682E+02  0.33590721993E+02  0.45581309779E+02  0.00000000000E+00 0. -1.
<mgrwt>
<rscale>  0 0.13095014E+03</rscale>
<asrwt>0</asrwt>
<pdfrwt beam="1">  1        1 0.46582909E-01 0.14057602E+03</pdfrwt>
<pdfrwt beam="2">  1       -1 0.77158339E-02 0.14057602E+03</pdfrwt>
<totfact> 0.75147840E+03</totfact>
</mgrwt>
</event>
<event>
 7    1  0.8712071E-006  0.1288283E+03  0.7546771E-02  0.1242940E+00
         -2   -1    0    0    0  501 -0.00000000000E+00  0.00000000000E+00  0.57548036387E+02  0.57548036387E+02  0.00000000000E+00 0.  1.
          2   -1    0    0  501    0  0.00000000000E+00 -0.00000000000E+00 -0.22403002298E+03  0.22403002298E+03  0.00000000000E+00 0. -1.
         23    2    1    2    0    0  0.29976447780E+02  0.86127836150E+01 -0.81873676757E+02  0.15264345046E+03  0.12499582617E+03 0.  0.
          5    1    3    3  502    0 -0.31590417656E+02  0.43451705967E+02 -0.54429909706E+02  0.76620560620E+02  0.47000000000E+01 0.  1.
         -5    1    3    3    0  502  0.61566865436E+02 -0.34838922352E+02 -0.27443767051E+02  0.76022889844E+02  0.47000000000E+01 0.  1.
        -11    1    1    2    0    0 -0.41416179160E+02 -0.30546735008E+02 -0.89945753421E+02  0.10362741661E+03  0.00000000000E+00 0. -1.
         11    1    1    2    0    0  0.11439731380E+02  0.21933951393E+02  0.53374435796E+01  0.25307192292E+02  0.00000000000E+00 0.  1.
<mgrwt>
<rscale>  0 0.12009550E+03</rscale>
<asrwt>0</asrwt>
<pdfrwt beam="2">  1        2 0.34466158E-01 0.12882827E+03</pdfrwt>
<pdfrwt beam="1">  1       -2 0.88535440E-02 0.12882827E+03</pdfrwt>
<totfact> 0.11362301E+04</totfact>
</mgrwt>
</event>
<event>
 7    1  0.8712071E-006  0.1921887E+03  0.7546771E-02  0.1161512E+00
          2   -1    0    0  501    0  0.00000000000E+00  0.00000000000E+00  0.14684604286E+03  0.14684604286E+03  0.00000000000E+00 0. -1.
         -2   -1    0    0    0  501 -0.00000000000E+00 -0.00000000000E+00 -0.22648820361E+03  0.22648820361E+03  0.00000000000E+00 0.  1.
         23    2    1    2    0    0  0.86051781099E+01 -0.14573123320E+03 -0.24945626414E+02  0.19380089376E+03  0.12499944290E+03 0.  0.
          5    1    3    3  502    0 -0.11463425579E+02 -0.40779077069E+02 -0.66558059530E+02  0.79034223860E+02  0.47000000000E+01 0.  1.
         -5    1    3    3    0  502  0.20068603689E+02 -0.10495215613E+03  0.41612433116E+02  0.11476666990E+03  0.47000000000E+01 0.  1.
        -11    1    1    2    0    0  0.25582071877E+02  0.84491631437E+02 -0.63643361783E+02  0.10882902041E+03  0.00000000000E+00 0.  1.
         11    1    1    2    0    0 -0.34187249987E+02  0.61239601758E+02  0.89468274451E+01  0.70704332304E+02  0.00000000000E+00 0. -1.
<mgrwt>
<rscale>  0 0.18665690E+03</rscale>
<asrwt>0</asrwt>
<pdfrwt beam="1">  1        2 0.22591699E-01 0.19218871E+03</pdfrwt>
<pdfrwt beam="2">  1       -2 0.34844339E-01 0.19218871E+03</pdfrwt>
<totfact> 0.18445398E+03</totfact>
</mgrwt>
</event>
<event>
 7    1  0.8712071E-006  0.2257972E+03  0.7546771E-02  0.1133060E+00
         -1   -1    0    0    0  501 -0.00000000000E+00  0.00000000000E+00  0.11240151290E+03  0.11240151290E+03  0.00000000000E+00 0.  1.
          1   -1    0    0  501    0  0.00000000000E+00 -0.00000000000E+00 -0.57960183720E+03  0.57960183720E+03  0.00000000000E+00 0. -1.
         23    2    1    2    0    0  0.18195942400E+03 -0.47444273878E+02 -0.57969257084E+02  0.23311970406E+03  0.12499668215E+03 0.  0.
          5    1    3    3  502    0  0.15824787918E+02 -0.30401370157E+02  0.28659470822E+02  0.44923518204E+02  0.47000000000E+01 0.  1.
         -5    1    3    3    0  502  0.16613463608E+03 -0.17042903721E+02 -0.86628727906E+02  0.18819618586E+03  0.47000000000E+01 0.  1.
        -11    1    1    2    0    0 -0.47729742560E+02  0.55277069416E+02 -0.13650145293E+03  0.15481062425E+03  0.00000000000E+00 0.  1.
         11    1    1    2    0    0 -0.13422968144E+03 -0.78327955384E+01 -0.27272961428E+03  0.30407302178E+03  0.00000000000E+00 0. -1.
<mgrwt>
<rscale>  0 0.22110763E+03</rscale>
<asrwt>0</asrwt>
<pdfrwt beam="2">  1        1 0.89169514E-01 0.22579717E+03</pdfrwt>
<pdfrwt beam="1">  1       -1 0.17292540E-01 0.22579717E+03</pdfrwt>
<totfact> 0.94545473E+02</totfact>
</mgrwt>
</event>
<event>
 7    1  0.8712071E-006  0.1995412E+03  0.7546771E-02  0.1155032E+00
         -1   -1    0    0    0  501 -0.00000000000E+00  0.00000000000E+00  0.51214430750E+03  0.51214430750E+03  0.00000000000E+00 0.  1.
          1   -1    0    0  501    0  0.00000000000E+00 -0.00000000000E+00 -0.69488618553E+02  0.69488618553E+02  0.00000000000E+00 0. -1.
         23    2    1    2    0    0  0.13822097150E+03 -0.71318119013E+02  0.23147514345E+03  0.30560991796E+03  0.12500147541E+03 0.  0.
          5    1    3    3  502    0  0.42174534312E+02 -0.29997072171E+02  0.18305553345E+03  0.19028908011E+03  0.47000000000E+01 0.  1.
         -5    1    3    3    0  502  0.96046437191E+02 -0.41321046842E+02  0.48419610005E+02  0.11532083785E+03  0.47000000000E+01 0.  1.
        -11    1    1    2    0    0 -0.17601439540E+02  0.39137072553E+02  0.10013479797E+03  0.10894264035E+03  0.00000000000E+00 0.  1.
         11    1    1    2    0    0 -0.12061953196E+03  0.32181046460E+02  0.11104574752E+03  0.16708036774E+03  0.00000000000E+00 0. -1.
<mgrwt>
<rscale>  0 0.19385216E+03</rscale>
<asrwt>0</asrwt>
<pdfrwt beam="2">  1        1 0.10690557E-01 0.19954117E+03</pdfrwt>
<pdfrwt beam="1">  1       -1 0.78791430E-01 0.19954117E+03</pdfrwt>
<totfact> 0.98149616E+02</totfact>
</mgrwt>
</event>
<event>
 7    1  0.8712071E-006  0.1275346E+03  0.7546771E-02  0.1246555E+00
          1   -1    0    0  501    0  0.00000000000E+00  0.00000000000E+00  0.53233998696E+02  0.53233998696E+02  0.00000000000E+00 0. -1.
         -1   -1    0    0    0  501 -0.00000000000E+00 -0.00000000000E+00 -0.24982699076E+03  0.24982699076E+03  0.00000000000E+00 0.  1.
         23    2    1    2    0    0  0.15377893879E+02  0.20091918279E+02 -0.15566567684E+03  0.20123838508E+03  0.12499967953E+03 0.  0.
          5    1    3    3  502    0 -0.34321898905E+02 -0.24522126119E+02 -0.11576073093E+03  0.12329624584E+03  0.47000000000E+01 0.  1.
         -5    1    3    3    0  502  0.49699792784E+02  0.44614044398E+02 -0.39904945908E+02  0.77942139234E+02  0.47000000000E+01 0.  1.
        -11    1    1    2    0    0 -0.23786128466E+02  0.20848671056E+02  0.12482173332E+02  0.34003700436E+02  0.00000000000E+00 0.  1.
         11    1    1    2    0    0  0.84082345870E+01 -0.40940589335E+02 -0.53409488559E+02  0.67818903943E+02  0.00000000000E+00 0. -1.
<mgrwt>
<rscale>  0 0.11792777E+03</rscale>
<asrwt>0</asrwt>
<pdfrwt beam="1">  1        1 0.81898460E-02 0.12753464E+03</pdfrwt>
<pdfrwt beam="2">  1       -1 0.38434921E-01 0.12753464E+03</pdfrwt>
<totfact> 0.52947696E+03</totfact>
</mgrwt>
</event>
<event>
 7    1  0.8712071E-006  0.1264250E+03  0.7546771E-02  0.1248030E+00
         -1   -1    0    0    0  501 -0.00000000000E+00  0.00000000000E+00  0.26809901907E+02  0.26809901907E+02  0.00000000000E+00 0.  1.
          1   -1    0    0  501    0  0.00000000000E+00 -0.00000000000E+00 -0.45941381262E+03  0.45941381262E+03  0.00000000000E+00 0. -1.
         23    2    1    2    0    0 -0.28381922128E+01  0.23526942653E+02 -0.21176819620E+03  0.24663543807E+03  0.12418412952E+03 0.  0.
          5    1    3    3  502    0  0.33667181922E+02 -0.37544308143E+02 -0.57120997592E+02  0.76341028146E+02  0.47000000000E+01 0.  1.
         -5    1    3    3    0  502 -0.36505374135E+02  0.61071250796E+02 -0.15464719861E+03  0.17029440992E+03  0.47000000000E+01 0.  1.
        -11    1    1    2    0    0  0.35195354312E+02 -0.24048078459E+02 -0.49953005731E+02  0.65668301519E+02  0.00000000000E+00 0. -1.
         11    1    1    2    0    0 -0.32357162099E+02  0.52113580644E+00 -0.17088270879E+03  0.17391997494E+03  0.00000000000E+00 0.  1.
<mgrwt>
<rscale>  0 0.11705823E+03</rscale>
<asrwt>0</asrwt>
<pdfrwt beam="2">  1        1 0.70679049E-01 0.12642496E+03</pdfrwt>
<pdfrwt beam="1">  1       -1 0.41246002E-02 0.12642496E+03</pdfrwt>
<totfact> 0.11209323E+04</totfact>
</mgrwt>
</event>
<event>
 7    1  0.8712071E-006  0.1835911E+03  0.7546771E-02  0.1169444E+00
          1   -1    0    0  501    0  0.00000000000E+00  0.00000000000E+00  0.75895368443E+02  0.75895368443E+02  0.00000000000E+00 0. -1.
         -1   -1    0    0    0  501 -0.00000000000E+00 -0.00000000000E+00 -0.50836465360E+03  0.50836465360E+03  0.00000000000E+00 0.  1.
         23    2    1    2    0    0 -0.13015962660E+03 -0.33739293571E+02 -0.36288014128E+03  0.40667884308E+03  0.12500326453E+03 0.  0.
          5    1    3    3  502    0 -0.71560049097E+02  0.30879067893E+02 -0.26122390286E+03  0.27264331073E+03  0.47000000000E+01 0.  1.
         -5    1    3    3    0  502 -0.58599577498E+02 -0.64618361464E+02 -0.10165623842E+03  0.13403553235E+03  0.47000000000E+01 0.  1.
        -11    1    1    2    0    0  0.67040489465E+02 -0.70527685424E+01 -0.76675452955E+02  0.10209453393E+03  0.00000000000E+00 0. -1.
         11    1    1    2    0    0  0.63119137130E+02  0.40792062113E+02  0.70863090772E+01  0.75486645043E+02  0.00000000000E+00 0.  1.
<mgrwt>
<rscale>  0 0.17831472E+03</rscale>
<asrwt>0</asrwt>
<pdfrwt beam="1">  1        1 0.11676210E-01 0.18359108E+03</pdfrwt>
<pdfrwt beam="2">  1       -1 0.78209949E-01 0.18359108E+03</pdfrwt>
<totfact> 0.88489757E+02</totfact>
</mgrwt>
</event>
<event>
 7    1  0.8712071E-006  0.1336852E+03  0.7546771E-02  0.1235465E+00
          2   -1    0    0  501    0  0.00000000000E+00  0.00000000000E+00  0.17091537037E+03  0.17091537037E+03  0.00000000000E+00 0. -1.
         -2   -1    0    0    0  501 -0.00000000000E+00 -0.00000000000E+00 -0.82170789104E+02  0.82170789104E+02  0.00000000000E+00 0.  1.
         23    2    1    2    0    0 -0.20032668426E+02  0.42962127773E+02  0.34243784165E+02  0.13800138001E+03  0.12499876761E+03 0.  0.
          5    1    3    3  502    0  0.29780522440E+02  0.30919682344E+02  0.65007102017E+02  0.78044343714E+02  0.47000000000E+01 0. -1.
         -5    1    3    3    0  502 -0.49813190866E+02  0.12042445429E+02 -0.30763317852E+02  0.59957036296E+02  0.47000000000E+01 0. -1.
        -11    1    1    2    0    0  0.96174965406E+01 -0.12512449805E+02  0.75188738976E+02  0.76827105299E+02  0.00000000000E+00 0. -1.
         11    1    1    2    0    0  0.10415171885E+02 -0.30449677968E+02 -0.20687941873E+02  0.38257674168E+02  0.00000000000E+00 0.  1.
<mgrwt>
<rscale>  0 0.12474724E+03</rscale>
<asrwt>0</asrwt>
<pdfrwt beam="1">  1        2 0.26294672E-01 0.13368524E+03</pdfrwt>
<pdfrwt beam="2">  1       -2 0.12641660E-01 0.13368524E+03</pdfrwt>
<totfact> 0.87065806E+03</totfact>
</mgrwt>
</event>
<event>
 7    1  0.2296180E-005  0.2352144E+03  0.7546771E-02  0.1125794E+00
          1   -1    0    0  501    0  0.00000000000E+00  0.00000000000E+00  0.45919275118E+02  0.45919275118E+02  0.00000000000E+00 0. -1.
         -1   -1    0    0    0  501 -0.00000000000E+00 -0.00000000000E+00 -0.11537374786E+04  0.11537374786E+04  0.00000000000E+00 0.  1.
         23    2    1    2    0    0 -0.18680224825E+03 -0.69319575817E+02 -0.66523263601E+03  0.70559213546E+03  0.12500207224E+03 0.  0.
          5    1    3    3  502    0 -0.12350803005E+03 -0.66164924869E+02 -0.59317434061E+03  0.60951613525E+03  0.47000000000E+01 0. -1.
         -5    1    3    3    0  502 -0.63294218202E+02 -0.31546509474E+01 -0.72058295404E+02  0.96076000213E+02  0.47000000000E+01 0. -1.
        -11    1    1    2    0    0  0.11835012759E+03  0.54601812894E+02 -0.37396816207E+03  0.39603067674E+03  0.00000000000E+00 0.  1.
         11    1    1    2    0    0  0.68452120659E+02  0.14717762923E+02 -0.68617405413E+02  0.98033941540E+02  0.00000000000E+00 0. -1.
<mgrwt>
<rscale>  0 0.23120589E+03</rscale>
<asrwt>0</asrwt>
<pdfrwt beam="1">  1        1 0.70645038E-02 0.23521437E+03</pdfrwt>
<pdfrwt beam="2">  1       -1 0.17749808E+00 0.23521437E+03</pdfrwt>
<totfact> 0.24619267E+02</totfact>
</mgrwt>
</event>
<event>
 7    1  0.8712071E-006  0.1519151E+03  0.7546771E-02  0.1205510E+00
         -1   -1    0    0    0  501 -0.00000000000E+00  0.00000000000E+00  0.66805264407E+03  0.66805264407E+03  0.00000000000E+00 0.  1.
          1   -1    0    0  501    0  0.00000000000E+00 -0.00000000000E+00 -0.31687946492E+02  0.31687946492E+02  0.00000000000E+00 0. -1.
         23    2    1    2    0    0  0.55509027441E+02 -0.73992453862E+02  0.43060748852E+03  0.45661909482E+03  0.12050748204E+03 0.  0.
          5    1    3    3  502    0 -0.21757464402E+02  0.14368817544E+02  0.15147369935E+03  0.15377328041E+03  0.47000000000E+01 0. -1.
         -5    1    3    3    0  502  0.77266491843E+02 -0.88361271406E+02  0.27913378917E+03  0.30284581441E+03  0.47000000000E+01 0.  1.
        -11    1    1    2    0    0 -0.26370499459E+02 -0.15541229398E+02  0.25847453608E+02  0.40062749668E+02  0.00000000000E+00 0.  1.
         11    1    1    2    0    0 -0.29138527982E+02  0.89533683261E+02  0.17990975545E+03  0.20305874607E+03  0.00000000000E+00 0. -1.
<mgrwt>
<rscale>  0 0.14597344E+03</rscale>
<asrwt>0</asrwt>
<pdfrwt beam="2">  1        1 0.48750692E-02 0.15191507E+03</pdfrwt>
<pdfrwt beam="1">  1       -1 0.10277732E+00 0.15191507E+03</pdfrwt>
<totfact> 0.16004565E+03</totfact>
</mgrwt>
</event>
<event>
 7    1  0.8712071E-006  0.1150355E+03  0.7546771E-02  0.1261868E+00
          1   -1    0    0  501    0  0.00000000000E+00  0.00000000000E+00  0.48503498653E+03  0.48503498653E+03  0.00000000000E+00 0. -1.
         -1   -1    0    0    0  501 -0.00000000000E+00 -0.00000000000E+00 -0.25518379317E+02  0.25518379317E+02  0.00000000000E+00 0.  1.
         23    2    1    2    0    0  0.56234597754E+01 -0.22940143318E+02  0.16255253235E+03  0.19913936494E+03  0.11258457897E+03 0.  0.
          5    1    3    3  502    0 -0.50265257384E+02  0.77635621320E+01  0.70476470381E+02  0.87039599460E+02  0.47000000000E+01 0. -1.
         -5    1    3    3    0  502  0.55888717159E+02 -0.30703705450E+02  0.92076061968E+02  0.11209976548E+03  0.47000000000E+01 0.  1.
        -11    1    1    2    0    0  0.36796013885E+02  0.31443667869E+02  0.12374539235E+03  0.13287427522E+03  0.00000000000E+00 0. -1.
         11    1    1    2    0    0 -0.42419473660E+02 -0.85035245515E+01  0.17321868251E+03  0.17853972568E+03  0.00000000000E+00 0.  1.
<mgrwt>
<rscale>  0 0.10930216E+03</rscale>
<asrwt>0</asrwt>
<pdfrwt beam="1">  1        1 0.74620760E-01 0.11503548E+03</pdfrwt>
<pdfrwt beam="2">  1       -1 0.39259049E-02 0.11503548E+03</pdfrwt>
<totfact> 0.11156577E+04</totfact>
</mgrwt>
</event>
<event>
 7    1  0.8712071E-006  0.1390167E+03  0.7546771E-02  0.1226358E+00
          1   -1    0    0  501    0  0.00000000000E+00  0.00000000000E+00  0.27410561799E+02  0.27410561799E+02  0.00000000000E+00 0. -1.
         -1   -1    0    0    0  501 -0.00000000000E+00 -0.00000000000E+00 -0.56303314853E+03  0.56303314853E+03  0.00000000000E+00 0.  1.
         23    2    1    2    0    0 -0.13152339257E+01 -0.60795066722E+02 -0.27862508254E+03  0.31138010135E+03  0.12501144316E+03 0.  0.
          5    1    3    3  502    0 -0.43902379746E+02 -0.47803414762E+01 -0.31653928657E+02  0.54537434955E+02  0.47000000000E+01 0.  1.
         -5    1    3    3    0  502  0.42587145820E+02 -0.56014725246E+02 -0.24697115388E+03  0.25684266640E+03  0.47000000000E+01 0.  1.
        -11    1    1    2    0    0 -0.26639072287E+02  0.67611926966E+02 -0.13084254435E+03  0.14966891545E+03  0.00000000000E+00 0. -1.
         11    1    1    2    0    0  0.27954306213E+02 -0.68168602438E+01 -0.12615495985E+03  0.12939469353E+03  0.00000000000E+00 0.  1.
<mgrwt>
<rscale>  0 0.13074275E+03</rscale>
<asrwt>0</asrwt>
<pdfrwt beam="1">  1        1 0.42170095E-02 0.13901666E+03</pdfrwt>
<pdfrwt beam="2">  1       -1 0.86620484E-01 0.13901666E+03</pdfrwt>
<totfact> 0.28141581E+03</totfact>
</mgrwt>
</event>
<event>
 7    1  0.8712071E-006  0.1570790E+03  0.7546771E-02  0.1200310E+00
         -1   -1    0    0    0  501 -0.00000000000E+00  0.00000000000E+00  0.47384630017E+02  0.47384630017E+02  0.00000000000E+00 0.  1.
          1   -1    0    0  501    0  0.00000000000E+00 -0.00000000000E+00 -0.45295743918E+03  0.45295743918E+03  0.00000000000E+00 0. -1.
         23    2    1    2    0    0 -0.95096185648E+02  0.24531629749E+01 -0.17535600379E+03  0.23542206282E+03  0.12499806824E+03 0.  0.
          5    1    3    3  502    0 -0.11233008411E+03 -0.24340798782E+02 -0.96166754820E+02  0.14993550952E+03  0.47000000000E+01 0.  1.
         -5    1    3    3    0  502  0.17233898466E+02  0.26793961756E+02 -0.79189248968E+02  0.85486553300E+02  0.47000000000E+01 0.  1.
        -11    1    1    2    0    0  0.46513010802E+02 -0.45254109299E+02 -0.13481991382E+03  0.14962554509E+03  0.00000000000E+00 0.  1.
         11    1    1    2    0    0  0.48583174846E+02  0.42800946325E+02 -0.95396891562E+02  0.11529446129E+03  0.00000000000E+00 0. -1.
<mgrwt>
<rscale>  0 0.15013277E+03</rscale>
<asrwt>0</asrwt>
<pdfrwt beam="2">  1        1 0.69685758E-01 0.15707902E+03</pdfrwt>
<pdfrwt beam="1">  1       -1 0.72899432E-02 0.15707902E+03</pdfrwt>
<totfact> 0.49634606E+03</totfact>
</mgrwt>
</event>
<event>
 7    1  0.8712071E-006  0.1516504E+03  0.7546771E-02  0.1206824E+00
          1   -1    0    0  501    0  0.00000000000E+00  0.00000000000E+00  0.32444939407E+03  0.32444939407E+03  0.00000000000E+00 0. -1.
         -1   -1    0    0    0  501 -0.00000000000E+00 -0.00000000000E+00 -0.59640157233E+02  0.59640157233E+02  0.00000000000E+00 0.  1.
         23    2    1    2    0    0  0.84043451196E+02 -0.17646350270E+02  0.14427767791E+03  0.20931765753E+03  0.12499255196E+03 0.  0.
          5    1    3    3  502    0  0.79630378072E+02  0.27705292000E+02  0.13975750963E+03  0.16328757397E+03  0.47000000000E+01 0.  1.
         -5    1    3    3    0  502  0.44130731244E+01 -0.45351642270E+02  0.45201682757E+01  0.46030083557E+02  0.47000000000E+01 0.  1.
        -11    1    1    2    0    0 -0.77552962590E+02  0.44903965376E+02  0.11568727577E+03  0.14633650907E+03  0.00000000000E+00 0.  1.
         11    1    1    2    0    0 -0.64904886059E+01 -0.27257615105E+02  0.48442831621E+01  0.28435384698E+02  0.00000000000E+00 0. -1.
<mgrwt>
<rscale>  0 0.14494607E+03</rscale>
<asrwt>0</asrwt>
<pdfrwt beam="1">  1        1 0.49915290E-01 0.15165037E+03</pdfrwt>
<pdfrwt beam="2">  1       -1 0.91754090E-02 0.15165037E+03</pdfrwt>
<totfact> 0.53289874E+03</totfact>
</mgrwt>
</event>
<event>
 7    1  0.8712071E-006  0.1673034E+03  0.7546771E-02  0.1188396E+00
          1   -1    0    0  501    0  0.00000000000E+00  0.00000000000E+00  0.24417571444E+03  0.24417571444E+03  0.00000000000E+00 0. -1.
         -1   -1    0    0    0  501 -0.00000000000E+00 -0.00000000000E+00 -0.11765928639E+03  0.11765928639E+03  0.00000000000E+00 0.  1.
         23    2    1    2    0    0  0.92323153448E+02 -0.62004841957E+02 -0.73915368691E+01  0.16746659940E+03  0.12498904756E+03 0.  0.
          5    1    3    3  502    0  0.26823652781E+02  0.52849049197E+01  0.50094911966E+02  0.57262804449E+02  0.47000000000E+01 0. -1.
         -5    1    3    3    0  502  0.65499500667E+02 -0.67289746876E+02 -0.57486448835E+02  0.11020379495E+03  0.47000000000E+01 0. -1.
        -11    1    1    2    0    0 -0.80622771521E+02  0.35092272396E+01  0.85234196050E+02  0.11737637812E+03  0.00000000000E+00 0.  1.
         11    1    1    2    0    0 -0.11700381927E+02  0.58495614717E+02  0.48673768867E+02  0.76992023314E+02  0.00000000000E+00 0. -1.
<mgrwt>
<rscale>  0 0.16026638E+03</rscale>
<asrwt>0</asrwt>
<pdfrwt beam="1">  1        1 0.37565494E-01 0.16730340E+03</pdfrwt>
<pdfrwt beam="2">  1       -1 0.18101429E-01 0.16730340E+03</pdfrwt>
<totfact> 0.26447807E+03</totfact>
</mgrwt>
</event>
<event>
 7    1  0.8712071E-006  0.1295419E+03  0.7546771E-02  0.1242302E+00
          3   -1    0    0  501    0  0.00000000000E+00  0.00000000000E+00  0.15774304108E+03  0.15774304108E+03  0.00000000000E+00 0. -1.
         -3   -1    0    0    0  501 -0.00000000000E+00 -0.00000000000E+00 -0.81935834504E+02  0.81935834504E+02  0.00000000000E+00 0.  1.
         23    2    1    2    0    0  0.31647036160E+02  0.12395606859E+02  0.32778712853E+02  0.13362467961E+03  0.12500370002E+03 0.  0.
          5    1    3    3  502    0  0.35166503869E+02  0.31109140331E+02 -0.37744390035E+02  0.60425082421E+02  0.47000000000E+01 0.  1.
         -5    1    3    3    0  502 -0.35194677093E+01 -0.18713533472E+02  0.70523102887E+02  0.73199597190E+02  0.47000000000E+01 0.  1.
        -11    1    1    2    0    0  0.28723731495E+02 -0.11410786965E+02 -0.16364542837E+01  0.30950553998E+02  0.00000000000E+00 0.  1.
         11    1    1    2    0    0 -0.60370767655E+02 -0.98481989325E+00  0.44664948009E+02  0.75103641977E+02  0.00000000000E+00 0. -1.
<mgrwt>
<rscale>  0 0.12048303E+03</rscale>
<asrwt>0</asrwt>
<pdfrwt beam="1">  1        3 0.24268160E-01 0.12954193E+03</pdfrwt>
<pdfrwt beam="2">  1       -3 0.12605513E-01 0.12954193E+03</pdfrwt>
<totfact> 0.18040939E+03</totfact>
</mgrwt>
</event>
<event>
 7    1  0.8712071E-006  0.2294554E+03  0.7546771E-02  0.1130148E+00
          2   -1    0    0  501    0  0.00000000000E+00  0.00000000000E+00  0.95435280941E+03  0.95435280941E+03  0.00000000000E+00 0. -1.
         -2   -1    0    0    0  501 -0.00000000000E+00 -0.00000000000E+00 -0.51404282628E+02  0.51404282628E+02  0.00000000000E+00 0.  1.
         23    2    1    2    0    0 -0.14563649914E+03 -0.12577084460E+03  0.43398905716E+03  0.49091369919E+03  0.12498585154E+03 0.  0.
          5    1    3    3  502    0 -0.14097039204E+03 -0.48138194965E+02  0.24914016887E+03  0.29031508915E+03  0.47000000000E+01 0. -1.
         -5    1    3    3    0  502 -0.46661070934E+01 -0.77632649639E+02  0.18484888829E+03  0.20059861003E+03  0.47000000000E+01 0. -1.
        -11    1    1    2    0    0  0.10376143650E+03  0.52285276214E+02  0.35073341302E+03  0.36947816285E+03  0.00000000000E+00 0.  1.
         11    1    1    2    0    0  0.41875062639E+02  0.73485568390E+02  0.11822605660E+03  0.14536522999E+03  0.00000000000E+00 0. -1.
<mgrwt>
<rscale>  0 0.22508405E+03</rscale>
<asrwt>0</asrwt>
<pdfrwt beam="1">  1        2 0.14682350E+00 0.22945535E+03</pdfrwt>
<pdfrwt beam="2">  1       -2 0.79083519E-02 0.22945535E+03</pdfrwt>
<totfact> 0.26889323E+03</totfact>
</mgrwt>
</event>
<event>
 7    1  0.8712071E-006  0.1250635E+03  0.7546771E-02  0.1251640E+00
          2   -1    0    0  501    0  0.00000000000E+00  0.00000000000E+00  0.27227975300E+03  0.27227975300E+03  0.00000000000E+00 0. -1.
         -2   -1    0    0    0  501 -0.00000000000E+00 -0.00000000000E+00 -0.43936780123E+02  0.43936780123E+02  0.00000000000E+00 0.  1.
         23    2    1    2    0    0  0.38410258053E+01  0.85030576715E-01  0.16352065739E+03  0.20586374097E+03  0.12500445490E+03 0.  0.
          5    1    3    3  502    0 -0.40637179627E+02  0.31353763854E+02  0.13453762369E+03  0.14407255486E+03  0.47000000000E+01 0.  1.
         -5    1    3    3    0  502  0.44478205432E+02 -0.31268733277E+02  0.28983033702E+02  0.61791186117E+02  0.47000000000E+01 0.  1.
        -11    1    1    2    0    0  0.96058014240E+01  0.43049524901E+02  0.30937539134E+02  0.53876380195E+02  0.00000000000E+00 0.  1.
         11    1    1    2    0    0 -0.13446827229E+02 -0.43134555478E+02  0.33884776359E+02  0.56476411959E+02  0.00000000000E+00 0. -1.
<mgrwt>
<rscale>  0 0.11496608E+03</rscale>
<asrwt>0</asrwt>
<pdfrwt beam="1">  1        2 0.41889192E-01 0.12506348E+03</pdfrwt>
<pdfrwt beam="2">  1       -2 0.67595048E-02 0.12506348E+03</pdfrwt>
<totfact> 0.13949284E+04</totfact>
</mgrwt>
</event>
<event>
 7    1  0.8712071E-006  0.1661933E+03  0.7546771E-02  0.1188740E+00
         -1   -1    0    0    0  501 -0.00000000000E+00  0.00000000000E+00  0.15506287503E+03  0.15506287503E+03  0.00000000000E+00 0.  1.
          1   -1    0    0  501    0  0.00000000000E+00 -0.00000000000E+00 -0.16698703475E+03  0.16698703475E+03  0.00000000000E+00 0. -1.
         23    2    1    2    0    0 -0.81941943566E+02 -0.72660587275E+02  0.38805265387E+02  0.17066360965E+03  0.12500470382E+03 0.  0.
          5    1    3    3  502    0 -0.91627563698E+02 -0.85672267882E+02  0.63555311788E+02  0.14070080160E+03  0.47000000000E+01 0. -1.
         -5    1    3    3    0  502  0.96856201323E+01  0.13011680607E+02 -0.24750046401E+02  0.29962808053E+02  0.47000000000E+01 0. -1.
        -11    1    1    2    0    0  0.36921342193E+02  0.19977581760E+02  0.24899919075E+02  0.48808762044E+02  0.00000000000E+00 0.  1.
         11    1    1    2    0    0  0.45020601373E+02  0.52683005515E+02 -0.75629344179E+02  0.10257753808E+03  0.00000000000E+00 0. -1.
<mgrwt>
<rscale>  0 0.15996155E+03</rscale>
<asrwt>0</asrwt>
<pdfrwt beam="2">  1        1 0.25690313E-01 0.16619332E+03</pdfrwt>
<pdfrwt beam="1">  1       -1 0.23855827E-01 0.16619332E+03</pdfrwt>
<totfact> 0.27193668E+03</totfact>
</mgrwt>
</event>
<event>
 7    1  0.8712071E-006  0.1358484E+03  0.7546771E-02  0.1231116E+00
          1   -1    0    0  501    0  0.00000000000E+00  0.00000000000E+00  0.32329838389E+03  0.32329838389E+03  0.00000000000E+00 0. -1.
         -1   -1    0    0    0  501 -0.00000000000E+00 -0.00000000000E+00 -0.45513849733E+02  0.45513849733E+02  0.00000000000E+00 0.  1.
         23    2    1    2    0    0 -0.91412119409E+01 -0.52415338167E+02  0.13840757320E+03  0.19393668465E+03  0.12499540752E+03 0.  0.
          5    1    3    3  502    0  0.45600387416E+02 -0.61588407186E+02  0.10087261422E+03  0.12676711534E+03  0.47000000000E+01 0.  1.
         -5    1    3    3    0  502 -0.54741599357E+02  0.91730690190E+01  0.37534958984E+02  0.67169569311E+02  0.47000000000E+01 0.  1.
        -11    1    1    2    0    0  0.11162836664E+02  0.76279409686E+02  0.12523858902E+03  0.14706414058E+03  0.00000000000E+00 0.  1.
         11    1    1    2    0    0 -0.20216247231E+01 -0.23864071519E+02  0.14138371939E+02  0.27811408398E+02  0.00000000000E+00 0. -1.
<mgrwt>
<rscale>  0 0.12756369E+03</rscale>
<asrwt>0</asrwt>
<pdfrwt beam="1">  1        1 0.49738211E-01 0.13584838E+03</pdfrwt>
<pdfrwt beam="2">  1       -1 0.70021309E-02 0.13584838E+03</pdfrwt>
<totfact> 0.79979862E+03</totfact>
</mgrwt>
</event>
<event>
 7    1  0.8712071E-006  0.1129355E+03  0.7546771E-02  0.1267654E+00
         -2   -1    0    0    0  501 -0.00000000000E+00  0.00000000000E+00  0.28377502995E+03  0.28377502995E+03  0.00000000000E+00 0.  1.
          2   -1    0    0  501    0  0.00000000000E+00 -0.00000000000E+00 -0.62099925115E+02  0.62099925115E+02  0.00000000000E+00 0. -1.
         23    2    1    2    0    0 -0.11472982609E+02  0.13660845615E+02  0.23074215563E+03  0.25689756698E+03  0.11151757487E+03 0.  0.
          5    1    3    3  502    0  0.41679620535E+02  0.12938697189E+02  0.17209723791E+03  0.17760672833E+03  0.47000000000E+01 0. -1.
         -5    1    3    3    0  502 -0.53152603144E+02  0.72214842598E+00  0.58644917716E+02  0.79290838646E+02  0.47000000000E+01 0.  1.
        -11    1    1    2    0    0  0.34629043677E+02  0.20943390207E+02 -0.21095075739E+02  0.45637687055E+02  0.00000000000E+00 0. -1.
         11    1    1    2    0    0 -0.23156061069E+02 -0.34604235822E+02  0.12028024944E+02  0.43339701027E+02  0.00000000000E+00 0.  1.
<mgrwt>
<rscale>  0 0.10626151E+03</rscale>
<asrwt>0</asrwt>
<pdfrwt beam="2">  1        2 0.95538348E-02 0.11293546E+03</pdfrwt>
<pdfrwt beam="1">  1       -2 0.43657696E-01 0.11293546E+03</pdfrwt>
<totfact> 0.32299514E+03</totfact>
</mgrwt>
</event>
<event>
 7    1  0.8712071E-006  0.1998354E+03  0.7546771E-02  0.1154086E+00
         -2   -1    0    0    0  501 -0.00000000000E+00  0.00000000000E+00  0.31127606249E+02  0.31127606249E+02  0.00000000000E+00 0.  1.
          2   -1    0    0  501    0  0.00000000000E+00 -0.00000000000E+00 -0.11878661877E+04  0.11878661877E+04  0.00000000000E+00 0. -1.
         23    2    1    2    0    0  0.12174233449E+03 -0.97408396730E+02 -0.52105791338E+03  0.55806410447E+03  0.12499841532E+03 0.  0.
          5    1    3    3  502    0  0.10563253091E+03 -0.97381607002E+02 -0.52182786480E+03  0.54126501776E+03  0.47000000000E+01 0. -1.
         -5    1    3    3    0  502  0.16109803576E+02 -0.26789727543E-01  0.76995141519E+00  0.16799086706E+02  0.47000000000E+01 0. -1.
        -11    1    1    2    0    0 -0.50306716143E+02  0.61535660854E+02 -0.16083490358E+03  0.17940253470E+03  0.00000000000E+00 0.  1.
         11    1    1    2    0    0 -0.71435618343E+02  0.35872735875E+02 -0.47484576445E+03  0.48152715475E+03  0.00000000000E+00 0. -1.
<mgrwt>
<rscale>  0 0.19493333E+03</rscale>
<asrwt>0</asrwt>
<pdfrwt beam="2">  1        2 0.18274860E+00 0.19983542E+03</pdfrwt>
<pdfrwt beam="1">  1       -2 0.47888636E-02 0.19983542E+03</pdfrwt>
<totfact> 0.42157255E+03</totfact>
</mgrwt>
</event>
<event>
 7    1  0.8712071E-006  0.1248103E+03  0.7546771E-02  0.1249101E+00
         -2   -1    0    0    0  501 -0.00000000000E+00  0.00000000000E+00  0.57413146217E+02  0.57413146217E+02  0.00000000000E+00 0.  1.
          2   -1    0    0  501    0  0.00000000000E+00 -0.00000000000E+00 -0.30199228718E+03  0.30199228718E+03  0.00000000000E+00 0. -1.
         23    2    1    2    0    0  0.16212124077E+01  0.24869153086E+02 -0.35201589895E+02  0.12967942784E+03  0.12229676598E+03 0.  0.
          5    1    3    3  502    0  0.58478255283E+02 -0.48528438311E+01 -0.27224849032E+02  0.64857835603E+02  0.47000000000E+01 0. -1.
         -5    1    3    3    0  502 -0.56857042876E+02  0.29721996917E+02 -0.79767408626E+01  0.64821592237E+02  0.47000000000E+01 0.  1.
        -11    1    1    2    0    0  0.39050301712E+02 -0.16647422922E+02 -0.15843122428E+03  0.16401986337E+03  0.00000000000E+00 0. -1.
         11    1    1    2    0    0 -0.40671514119E+02 -0.82217301641E+01 -0.50946326786E+02  0.65706142183E+02  0.00000000000E+00 0.  1.
<mgrwt>
<rscale>  0 0.11643272E+03</rscale>
<asrwt>0</asrwt>
<pdfrwt beam="2">  1        2 0.46460352E-01 0.12481026E+03</pdfrwt>
<pdfrwt beam="1">  1       -2 0.88327917E-02 0.12481026E+03</pdfrwt>
<totfact> 0.82851765E+03</totfact>
</mgrwt>
</event>
<event>
 7    1  0.8712071E-006  0.1464213E+03  0.7546771E-02  0.1214856E+00
         -1   -1    0    0    0  501 -0.00000000000E+00  0.00000000000E+00  0.71770604509E+02  0.71770604509E+02  0.00000000000E+00 0.  1.
          1   -1    0    0  501    0  0.00000000000E+00 -0.00000000000E+00 -0.24444049904E+03  0.24444049904E+03  0.00000000000E+00 0. -1.
         23    2    1    2    0    0  0.75519248598E+02 -0.10532968175E+02 -0.94481919187E+02  0.17425852789E+03  0.12500040465E+03 0.  0.
          5    1    3    3  502    0  0.98754673597E+02  0.17239017766E+02 -0.38642975719E+02  0.10754087066E+03  0.47000000000E+01 0. -1.
         -5    1    3    3    0  502 -0.23235425000E+02 -0.27771985940E+02 -0.55838943468E+02  0.66717657225E+02  0.47000000000E+01 0. -1.
        -11    1    1    2    0    0 -0.46166729761E+02 -0.70133141841E+01  0.96583501148E+01  0.47684769472E+02  0.00000000000E+00 0.  1.
         11    1    1    2    0    0 -0.29352518837E+02  0.17546282359E+02 -0.87846325460E+02  0.94267806188E+02  0.00000000000E+00 0. -1.
<mgrwt>
<rscale>  0 0.13887152E+03</rscale>
<asrwt>0</asrwt>
<pdfrwt beam="2">  1        1 0.37606231E-01 0.14642132E+03</pdfrwt>
<pdfrwt beam="1">  1       -1 0.11041631E-01 0.14642132E+03</pdfrwt>
<totfact> 0.56920992E+03</totfact>
</mgrwt>
</event>
<event>
 7    1  0.8712071E-006  0.1281995E+03  0.7546771E-02  0.1244680E+00
         -1   -1    0    0    0  501 -0.00000000000E+00  0.00000000000E+00  0.54913400674E+02  0.54913400674E+02  0.00000000000E+00 0.  1.
          1   -1    0    0  501    0  0.00000000000E+00 -0.00000000000E+00 -0.24158211931E+03  0.24158211931E+03  0.00000000000E+00 0. -1.
         23    2    1    2    0    0  0.12251812845E+01 -0.28489302776E+02 -0.70780025547E+02  0.14644088672E+03  0.12498791880E+03 0.  0.
          5    1    3    3  502    0 -0.13620285962E+02  0.18379889551E+02 -0.90347814536E+02  0.93317469538E+02  0.47000000000E+01 0. -1.
         -5    1    3    3    0  502  0.14845467246E+02 -0.46869192327E+02  0.19567788989E+02  0.53123417182E+02  0.47000000000E+01 0. -1.
        -11    1    1    2    0    0  0.17882801889E+02 -0.19408474071E+02 -0.87066088858E+02  0.90977949516E+02  0.00000000000E+00 0. -1.
         11    1    1    2    0    0 -0.19107983173E+02  0.47897776847E+02 -0.28822604228E+02  0.59076683745E+02  0.00000000000E+00 0.  1.
<mgrwt>
<rscale>  0 0.11904541E+03</rscale>
<asrwt>0</asrwt>
<pdfrwt beam="2">  1        1 0.37166480E-01 0.12819954E+03</pdfrwt>
<pdfrwt beam="1">  1       -1 0.84482155E-02 0.12819954E+03</pdfrwt>
<totfact> 0.86076209E+03</totfact>
</mgrwt>
</event>
<event>
 7    1  0.8712071E-006  0.2823663E+03  0.7546771E-02  0.1096067E+00
          2   -1    0    0  501    0  0.00000000000E+00  0.00000000000E+00  0.43422068708E+02  0.43422068708E+02  0.00000000000E+00 0. -1.
         -2   -1    0    0    0  501 -0.00000000000E+00 -0.00000000000E+00 -0.38142620924E+04  0.38142620924E+04  0.00000000000E+00 0.  1.
         23    2    1    2    0    0 -0.23595713840E+03  0.91819576800E+02 -0.33201460019E+04  0.33321314829E+04  0.12499655671E+03 0.  0.
          5    1    3    3  502    0 -0.17810811151E+03  0.12289989038E+03 -0.25793343619E+04  0.25884000315E+04  0.47000000000E+01 0.  1.
         -5    1    3    3    0  502 -0.57849026888E+02 -0.31080313576E+02 -0.74081164004E+03  0.74373145141E+03  0.47000000000E+01 0.  1.
        -11    1    1    2    0    0  0.83178342897E+02 -0.37401663835E+02 -0.81511710484E+02  0.12231794689E+03  0.00000000000E+00 0. -1.
         11    1    1    2    0    0  0.15277879550E+03 -0.54417912965E+02 -0.36918231132E+03  0.40323473139E+03  0.00000000000E+00 0.  1.
<mgrwt>
<rscale>  0 0.27930897E+03</rscale>
<asrwt>0</asrwt>
<pdfrwt beam="1">  1        2 0.66803178E-02 0.28236633E+03</pdfrwt>
<pdfrwt beam="2">  1       -2 0.58680960E+00 0.28236633E+03</pdfrwt>
<totfact> 0.71345647E-01</totfact>
</mgrwt>
</event>
<event>
 6    1  0.8712071E-006  0.1806615E+03  0.7546771E-02  0.1174522E+00
          1   -1    0    0  501    0  0.00000000000E+00  0.00000000000E+00  0.16991032853E+03  0.16991032853E+03  0.00000000000E+00 0. -1.
         -1   -1    0    0    0  501 -0.00000000000E+00 -0.00000000000E+00 -0.16372599668E+03  0.16372599668E+03  0.00000000000E+00 0.  1.
          5    1    1    2  502    0  0.23313083093E+02  0.59048309334E+02 -0.51122064517E+02  0.81644094453E+02  0.47000000000E+01 0. -1.
         -5    1    1    2    0  502 -0.62598424570E+02  0.59116890435E+02  0.48705039805E+02  0.99033531674E+02  0.47000000000E+01 0.  1.
        -11    1    1    2    0    0  0.63049244229E+02 -0.10136441953E+03  0.21208099734E+02  0.12124246879E+03  0.00000000000E+00 0. -1.
         11    1    1    2    0    0 -0.23763902752E+02 -0.16800780241E+02 -0.12606743174E+02  0.31716230296E+02  0.00000000000E+00 0.  1.
<mgrwt>
<rscale>  0 0.17322906E+03</rscale>
<asrwt>0</asrwt>
<pdfrwt beam="1">  1        1 0.26140050E-01 0.18066146E+03</pdfrwt>
<pdfrwt beam="2">  1       -1 0.25188615E-01 0.18066146E+03</pdfrwt>
<totfact> 0.24403171E+03</totfact>
</mgrwt>
</event>
<event>
 7    1  0.8712071E-006  0.1571726E+03  0.7546771E-02  0.1199982E+00
          1   -1    0    0  501    0  0.00000000000E+00  0.00000000000E+00  0.28508664145E+03  0.28508664145E+03  0.00000000000E+00 0. -1.
         -1   -1    0    0    0  501 -0.00000000000E+00 -0.00000000000E+00 -0.74233875378E+02  0.74233875378E+02  0.00000000000E+00 0.  1.
         23    2    1    2    0    0 -0.87181129912E+02  0.38418054195E+02  0.93640725204E+02  0.18295301858E+03  0.12500690097E+03 0.  0.
          5    1    3    3  502    0  0.14854810476E+02 -0.19613890682E+02  0.53038806091E+02  0.58656415280E+02  0.47000000000E+01 0.  1.
         -5    1    3    3    0  502 -0.10203594039E+03  0.58031944877E+02  0.40601919113E+02  0.12429660330E+03  0.47000000000E+01 0.  1.
        -11    1    1    2    0    0  0.97923179311E+02 -0.28893157699E+02  0.62286643505E+02  0.11959677908E+03  0.00000000000E+00 0.  1.
         11    1    1    2    0    0 -0.10742049399E+02 -0.95248964966E+01  0.54925397363E+02  0.56770719161E+02  0.00000000000E+00 0. -1.
<mgrwt>
<rscale>  0 0.15039994E+03</rscale>
<asrwt>0</asrwt>
<pdfrwt beam="1">  1        1 0.43859483E-01 0.15717259E+03</pdfrwt>
<pdfrwt beam="2">  1       -1 0.11420596E-01 0.15717259E+03</pdfrwt>
<totfact> 0.44832186E+03</totfact>
</mgrwt>
</event>
<event>
 7    1  0.8712071E-006  0.1507938E+03  0.7546771E-02  0.1208515E+00
         -1   -1    0    0    0  501 -0.00000000000E+00  0.00000000000E+00  0.57690322511E+02  0.57690322511E+02  0.00000000000E+00 0.  1.
          1   -1    0    0  501    0  0.00000000000E+00 -0.00000000000E+00 -0.36928774578E+03  0.36928774578E+03  0.00000000000E+00 0. -1.
         23    2    1    2    0    0 -0.67854218128E+02 -0.50099824944E+02 -0.97742936661E+02  0.17970102582E+03  0.12499835854E+03 0.  0.
          5    1    3    3  502    0 -0.87490772583E+02 -0.38802832287E+02 -0.11583288988E+03  0.15033177794E+03  0.47000000000E+01 0.  1.
         -5    1    3    3    0  502  0.19636554455E+02 -0.11296992657E+02  0.18089953217E+02  0.29369247885E+02  0.47000000000E+01 0.  1.
        -11    1    1    2    0    0  0.24023868309E+01  0.33387079195E+02 -0.13943763867E+02  0.36261509489E+02  0.00000000000E+00 0.  1.
         11    1    1    2    0    0  0.65451831297E+02  0.16712745749E+02 -0.19991072274E+03  0.21101553298E+03  0.00000000000E+00 0. -1.
<mgrwt>
<rscale>  0 0.14363845E+03</rscale>
<asrwt>0</asrwt>
<pdfrwt beam="2">  1        1 0.56813498E-01 0.15079382E+03</pdfrwt>
<pdfrwt beam="1">  1       -1 0.88754345E-02 0.15079382E+03</pdfrwt>
<totfact> 0.47659122E+03</totfact>
</mgrwt>
</event>
<event>
 7    1  0.8712071E-006  0.1276383E+03  0.7546771E-02  0.1244493E+00
         -3   -1    0    0    0  501 -0.00000000000E+00  0.00000000000E+00  0.20855805747E+03  0.20855805747E+03  0.00000000000E+00 0.  1.
          3   -1    0    0  501    0  0.00000000000E+00 -0.00000000000E+00 -0.61048145046E+02  0.61048145046E+02  0.00000000000E+00 0. -1.
         23    2    1    2    0    0  0.16951634825E+02  0.19449204709E+02  0.96818996672E+02  0.16020437853E+03  0.12500358114E+03 0.  0.
          5    1    3    3  502    0 -0.80224140378E+01  0.14851581662E+02  0.12252193896E+03  0.12376851026E+03  0.47000000000E+01 0. -1.
         -5    1    3    3    0  502  0.24974048863E+02  0.45976230470E+01 -0.25702942291E+02  0.36435868271E+02  0.47000000000E+01 0. -1.
        -11    1    1    2    0    0  0.27033819596E+02 -0.22900540713E+02  0.54622142013E+02  0.65106378835E+02  0.00000000000E+00 0.  1.
         11    1    1    2    0    0 -0.43985454421E+02  0.34513360039E+01 -0.39312262633E+01  0.44295445147E+02  0.00000000000E+00 0. -1.
<mgrwt>
<rscale>  0 0.11915766E+03</rscale>
<asrwt>0</asrwt>
<pdfrwt beam="2">  1        3 0.93920224E-02 0.12763826E+03</pdfrwt>
<pdfrwt beam="1">  1       -3 0.32085855E-01 0.12763826E+03</pdfrwt>
<totfact> 0.17599770E+03</totfact>
</mgrwt>
</event>
<event>
 7    1  0.8712071E-006  0.2312633E+03  0.7546771E-02  0.1128729E+00
         -3   -1    0    0    0  501 -0.00000000000E+00  0.00000000000E+00  0.73724316592E+03  0.73724316592E+03  0.00000000000E+00 0.  1.
          3   -1    0    0  501    0  0.00000000000E+00 -0.00000000000E+00 -0.85636234820E+02  0.85636234820E+02  0.00000000000E+00 0. -1.
         23    2    1    2    0    0  0.17987847036E+03 -0.74174587900E+02  0.52447318589E+03  0.57319704780E+03  0.12499839720E+03 0.  0.
          5    1    3    3  502    0  0.17118528383E+03 -0.99763565793E+02  0.49357532861E+03  0.53187955918E+03  0.47000000000E+01 0. -1.
         -5    1    3    3    0  502  0.86931865279E+01  0.25588977893E+02  0.30897857276E+02  0.41317488621E+02  0.47000000000E+01 0. -1.
        -11    1    1    2    0    0 -0.26966108926E+02  0.11438170749E+02  0.68172148927E+02  0.74198683749E+02  0.00000000000E+00 0.  1.
         11    1    1    2    0    0 -0.15291236143E+03  0.62736417150E+02  0.58961596285E+02  0.17548366919E+03  0.00000000000E+00 0. -1.
<mgrwt>
<rscale>  0 0.22705696E+03</rscale>
<asrwt>0</asrwt>
<pdfrwt beam="2">  1        3 0.13174806E-01 0.23126334E+03</pdfrwt>
<pdfrwt beam="1">  1       -3 0.11342202E+00 0.23126334E+03</pdfrwt>
<totfact> 0.77391897E+01</totfact>
</mgrwt>
</event>
<event>
 7    1  0.8712071E-006  0.1252622E+03  0.7546771E-02  0.1249807E+00
         -1   -1    0    0    0  501 -0.00000000000E+00  0.00000000000E+00  0.72632444735E+02  0.72632444735E+02  0.00000000000E+00 0.  1.
          1   -1    0    0  501    0  0.00000000000E+00 -0.00000000000E+00 -0.25440762592E+03  0.25440762592E+03  0.00000000000E+00 0. -1.
         23    2    1    2    0    0 -0.68569368812E+01  0.42263744406E+01 -0.23151408581E+01  0.12528356573E+03  0.12500292853E+03 0.  0.
          5    1    3    3  502    0  0.33158088757E+02 -0.17531870882E+02  0.45450091957E+02  0.59115363532E+02  0.47000000000E+01 0.  1.
         -5    1    3    3    0  502 -0.40015025638E+02  0.21758245323E+02 -0.47765232815E+02  0.66168202199E+02  0.47000000000E+01 0.  1.
        -11    1    1    2    0    0 -0.33019809354E+02  0.25895907901E+02 -0.74469235038E+02  0.85478493336E+02  0.00000000000E+00 0. -1.
         11    1    1    2    0    0  0.39876746235E+02 -0.30122282342E+02 -0.10499080528E+03  0.11627801158E+03  0.00000000000E+00 0.  1.
<mgrwt>
<rscale>  0 0.11602215E+03</rscale>
<asrwt>0</asrwt>
<pdfrwt beam="2">  1        1 0.39139636E-01 0.12526217E+03</pdfrwt>
<pdfrwt beam="1">  1       -1 0.11174222E-01 0.12526217E+03</pdfrwt>
<totfact> 0.52686687E+03</totfact>
</mgrwt>
</event>
<event>
 7    1  0.8712071E-006  0.2151661E+03  0.7546771E-02  0.1140928E+00
          4   -1    0    0  501    0  0.00000000000E+00  0.00000000000E+00  0.15678608932E+03  0.15678608932E+03  0.00000000000E+00 0. -1.
         -4   -1    0    0    0  501 -0.00000000000E+00 -0.00000000000E+00 -0.27529219585E+03  0.27529219585E+03  0.00000000000E+00 0.  1.
         23    2    1    2    0    0  0.39940105434E+02  0.17052004668E+03 -0.83272438260E+02  0.23071794018E+03  0.12499668238E+03 0.  0.
          5    1    3    3  502    0 -0.59698564304E+01 -0.18791810539E+02 -0.91686808339E+01  0.22246933213E+02  0.47000000000E+01 0.  1.
         -5    1    3    3    0  502  0.45909961864E+02  0.18931185722E+03 -0.74103757426E+02  0.20847100697E+03  0.47000000000E+01 0.  1.
        -11    1    1    2    0    0  0.29050572003E+02 -0.74947663981E+02 -0.13973320623E+02  0.81586406706E+02  0.00000000000E+00 0. -1.
         11    1    1    2    0    0 -0.68990677437E+02 -0.95572382698E+02 -0.21260347647E+02  0.11977393827E+03  0.00000000000E+00 0.  1.
<mgrwt>
<rscale>  0 0.21080740E+03</rscale>
<asrwt>0</asrwt>
<pdfrwt beam="1">  1        4 0.24120937E-01 0.21516614E+03</pdfrwt>
<pdfrwt beam="2">  1       -4 0.42352645E-01 0.21516614E+03</pdfrwt>
<totfact> 0.15607644E+02</totfact>
</mgrwt>
</event>
<event>
 7    1  0.8712071E-006  0.1257972E+03  0.7546771E-02  0.1249382E+00
          3   -1    0    0  501    0  0.00000000000E+00  0.00000000000E+00  0.12225626248E+03  0.12225626248E+03  0.00000000000E+00 0. -1.
         -3   -1    0    0    0  501 -0.00000000000E+00 -0.00000000000E+00 -0.10450720980E+03  0.10450720980E+03  0.00000000000E+00 0.  1.
         23    2    1    2    0    0  0.14103208118E+02  0.71423026420E+00 -0.20236926485E+02  0.12741450528E+03  0.12500204941E+03 0.  0.
          5    1    3    3  502    0  0.38107579009E+02 -0.34139380529E+02 -0.52903986597E+02  0.73746909621E+02  0.47000000000E+01 0.  1.
         -5    1    3    3    0  502 -0.24004370891E+02  0.34853610793E+02  0.32667060112E+02  0.53667595656E+02  0.47000000000E+01 0.  1.
        -11    1    1    2    0    0  0.32497774372E+02  0.15585030453E+02 -0.15877232003E+01  0.36076576588E+02  0.00000000000E+00 0.  1.
         11    1    1    2    0    0 -0.46600982490E+02 -0.16299260717E+02  0.39573702365E+02  0.63272390407E+02  0.00000000000E+00 0. -1.
<mgrwt>
<rscale>  0 0.11626903E+03</rscale>
<asrwt>0</asrwt>
<pdfrwt beam="1">  1        3 0.18808656E-01 0.12579715E+03</pdfrwt>
<pdfrwt beam="2">  1       -3 0.16078032E-01 0.12579715E+03</pdfrwt>
<totfact> 0.18639386E+03</totfact>
</mgrwt>
</event>
<event>
 7    1  0.8712071E-006  0.1362045E+03  0.7546771E-02  0.1230367E+00
         -2   -1    0    0    0  501 -0.00000000000E+00  0.00000000000E+00  0.35329347908E+02  0.35329347908E+02  0.00000000000E+00 0.  1.
          2   -1    0    0  501    0  0.00000000000E+00 -0.00000000000E+00 -0.52174886475E+03  0.52174886475E+03  0.00000000000E+00 0. -1.
         23    2    1    2    0    0  0.50581697155E+02 -0.19183461565E+02 -0.14273849949E+03  0.19729658521E+03  0.12500060006E+03 0.  0.
          5    1    3    3  502    0  0.40555827226E+02  0.50743332287E+02 -0.62113842917E+02  0.89999335417E+02  0.47000000000E+01 0. -1.
         -5    1    3    3    0  502  0.10025869929E+02 -0.69926793852E+02 -0.80624656574E+02  0.10729724980E+03  0.47000000000E+01 0. -1.
        -11    1    1    2    0    0 -0.71400652445E+02 -0.62827616997E+01 -0.20223165815E+03  0.21455808030E+03  0.00000000000E+00 0.  1.
         11    1    1    2    0    0  0.20818955290E+02  0.25466223265E+02 -0.14144935919E+03  0.14522354714E+03  0.00000000000E+00 0. -1.
<mgrwt>
<rscale>  0 0.12805720E+03</rscale>
<asrwt>0</asrwt>
<pdfrwt beam="2">  1        2 0.80269054E-01 0.13620449E+03</pdfrwt>
<pdfrwt beam="1">  1       -2 0.54352844E-02 0.13620449E+03</pdfrwt>
<totfact> 0.97448746E+03</totfact>
</mgrwt>
</event>
<event>
 7    1  0.8712071E-006  0.1884943E+03  0.7546771E-02  0.1164335E+00
         -2   -1    0    0    0  501 -0.00000000000E+00  0.00000000000E+00  0.58931509971E+02  0.58931509971E+02  0.00000000000E+00 0.  1.
          2   -1    0    0  501    0  0.00000000000E+00 -0.00000000000E+00 -0.61663267179E+03  0.61663267179E+03  0.00000000000E+00 0. -1.
         23    2    1    2    0    0 -0.12130787574E+03  0.72040782435E+02 -0.17634846951E+03  0.25812570292E+03  0.12499848302E+03 0.  0.
          5    1    3    3  502    0 -0.24131296134E+01  0.68466571868E+02 -0.76032831289E+02  0.10245279934E+03  0.47000000000E+01 0. -1.
         -5    1    3    3    0  502 -0.11889474613E+03  0.35742105672E+01 -0.10031563822E+03  0.15567290358E+03  0.47000000000E+01 0. -1.
        -11    1    1    2    0    0  0.75317863913E+02 -0.27532196210E+02 -0.31580423838E+03  0.32582682429E+03  0.00000000000E+00 0. -1.
         11    1    1    2    0    0  0.45990011830E+02 -0.44508586225E+02 -0.65548453927E+02  0.91611654543E+02  0.00000000000E+00 0.  1.
<mgrwt>
<rscale>  0 0.18363050E+03</rscale>
<asrwt>0</asrwt>
<pdfrwt beam="2">  1        2 0.94866558E-01 0.18849429E+03</pdfrwt>
<pdfrwt beam="1">  1       -2 0.90663868E-02 0.18849429E+03</pdfrwt>
<totfact> 0.37334688E+03</totfact>
</mgrwt>
</event>
<event>
 7    1  0.8712071E-006  0.1423896E+03  0.7546771E-02  0.1225195E+00
         -1   -1    0    0    0  501 -0.00000000000E+00  0.00000000000E+00  0.21572220162E+02  0.21572220162E+02  0.00000000000E+00 0.  1.
          1   -1    0    0  501    0  0.00000000000E+00 -0.00000000000E+00 -0.70182804638E+03  0.70182804638E+03  0.00000000000E+00 0. -1.
         23    2    1    2    0    0 -0.46638097577E+02 -0.49738297052E+02 -0.39043961720E+03  0.41559340721E+03  0.12500310037E+03 0.  0.
          5    1    3    3  502    0 -0.48136799376E+02 -0.77252584596E+02 -0.16562120928E+03  0.18904387915E+03  0.47000000000E+01 0.  1.
         -5    1    3    3    0  502  0.14987017994E+01  0.27514287545E+02 -0.22481840792E+03  0.22654952806E+03  0.47000000000E+01 0.  1.
        -11    1    1    2    0    0  0.15727384917E+02  0.47749569573E+02 -0.25999207193E+03  0.26480794833E+03  0.00000000000E+00 0. -1.
         11    1    1    2    0    0  0.30910712660E+02  0.19887274785E+01 -0.29824137087E+02  0.42998910999E+02  0.00000000000E+00 0.  1.
<mgrwt>
<rscale>  0 0.13153547E+03</rscale>
<asrwt>0</asrwt>
<pdfrwt beam="2">  1        1 0.10797353E+00 0.14238956E+03</pdfrwt>
<pdfrwt beam="1">  1       -1 0.33188037E-02 0.14238956E+03</pdfrwt>
<totfact> 0.87814051E+03</totfact>
</mgrwt>
</event>
<event>
 7    1  0.8712071E-006  0.1464550E+03  0.7546771E-02  0.1214657E+00
         -1   -1    0    0    0  501 -0.00000000000E+00  0.00000000000E+00  0.15867671039E+03  0.15867671039E+03  0.00000000000E+00 0.  1.
          1   -1    0    0  501    0  0.00000000000E+00 -0.00000000000E+00 -0.17295949801E+03  0.17295949801E+03  0.00000000000E+00 0. -1.
         23    2    1    2    0    0  0.59906035767E+02  0.47282380905E+02  0.91337040696E+02  0.17260224946E+03  0.12499889940E+03 0.  0.
          5    1    3    3  502    0  0.87781926179E+02  0.23932366757E+01  0.78827040947E+02  0.11809820714E+03  0.47000000000E+01 0.  1.
         -5    1    3    3    0  502 -0.27875890413E+02  0.44889144229E+02  0.12509999749E+02  0.54504042324E+02  0.47000000000E+01 0.  1.
        -11    1    1    2    0    0  0.80540519962E+00 -0.20402389739E+02  0.12205989295E+02  0.23788492161E+02  0.00000000000E+00 0.  1.
         11    1    1    2    0    0 -0.60711440966E+02 -0.26879991166E+02 -0.11782581761E+03  0.13524546678E+03  0.00000000000E+00 0. -1.
<mgrwt>
<rscale>  0 0.13901768E+03</rscale>
<asrwt>0</asrwt>
<pdfrwt beam="2">  1        1 0.26609153E-01 0.14645505E+03</pdfrwt>
<pdfrwt beam="1">  1       -1 0.24411802E-01 0.14645505E+03</pdfrwt>
<totfact> 0.24919926E+03</totfact>
</mgrwt>
</event>
<event>
 7    1  0.8712071E-006  0.1337945E+03  0.7546771E-02  0.1233333E+00
         -1   -1    0    0    0  501 -0.00000000000E+00  0.00000000000E+00  0.10272097283E+03  0.10272097283E+03  0.00000000000E+00 0.  1.
          1   -1    0    0  501    0  0.00000000000E+00 -0.00000000000E+00 -0.14363890099E+03  0.14363890099E+03  0.00000000000E+00 0. -1.
         23    2    1    2    0    0 -0.46675457596E+02 -0.99034803676E+01 -0.20621593347E+01  0.13381042164E+03  0.12499719667E+03 0.  0.
          5    1    3    3  502    0 -0.26471975361E+02  0.45398446412E+02  0.35701132512E+02  0.63705928129E+02  0.47000000000E+01 0. -1.
         -5    1    3    3    0  502 -0.20203482234E+02 -0.55301926780E+02 -0.37763291847E+02  0.70104493516E+02  0.47000000000E+01 0. -1.
        -11    1    1    2    0    0  0.25755510037E+01 -0.31897250787E+02  0.11116758983E+02  0.33876989256E+02  0.00000000000E+00 0.  1.
         11    1    1    2    0    0  0.44099906592E+02  0.41800731155E+02 -0.49972527809E+02  0.78672462921E+02  0.00000000000E+00 0. -1.
<mgrwt>
<rscale>  0 0.12611744E+03</rscale>
<asrwt>0</asrwt>
<pdfrwt beam="2">  1        1 0.22098292E-01 0.13379453E+03</pdfrwt>
<pdfrwt beam="1">  1       -1 0.15803227E-01 0.13379453E+03</pdfrwt>
<totfact> 0.62959055E+03</totfact>
</mgrwt>
</event>
<event>
 7    1  0.1039882E-005  0.2525207E+03  0.7546771E-02  0.1114324E+00
          1   -1    0    0  501    0  0.00000000000E+00  0.00000000000E+00  0.34234209450E+03  0.34234209450E+03  0.00000000000E+00 0. -1.
         -1   -1    0    0    0  501 -0.00000000000E+00 -0.00000000000E+00 -0.19669965253E+03  0.19669965253E+03  0.00000000000E+00 0.  1.
         23    2    1    2    0    0  0.15859153862E+03 -0.15162541063E+03 -0.15395735100E+02  0.25298962008E+03  0.12500071174E+03 0.  0.
          5    1    3    3  502    0  0.64491784029E+02 -0.28925421918E+02 -0.59078823213E+02  0.92240270992E+02  0.47000000000E+01 0. -1.
         -5    1    3    3    0  502  0.94099754591E+02 -0.12269998871E+03  0.43683088114E+02  0.16074934909E+03  0.47000000000E+01 0. -1.
        -11    1    1    2    0    0 -0.16172838234E+03  0.12534578256E+03  0.15968494337E+03  0.25955137449E+03  0.00000000000E+00 0.  1.
         11    1    1    2    0    0  0.31368437204E+01  0.26279628068E+02  0.13532337062E+01  0.26500752468E+02  0.00000000000E+00 0. -1.
<mgrwt>
<rscale>  0 0.24839451E+03</rscale>
<asrwt>0</asrwt>
<pdfrwt beam="1">  1        1 0.52668014E-01 0.25252073E+03</pdfrwt>
<pdfrwt beam="2">  1       -1 0.30261485E-01 0.25252073E+03</pdfrwt>
<totfact> 0.74754081E+02</totfact>
</mgrwt>
</event>
<event>
 7    1  0.9259747E-006  0.1265931E+03  0.7546771E-02  0.1255598E+00
         -1   -1    0    0    0  501 -0.00000000000E+00  0.00000000000E+00  0.25353756504E+02  0.25353756504E+02  0.00000000000E+00 0.  1.
          1   -1    0    0  501    0  0.00000000000E+00 -0.00000000000E+00 -0.42650552606E+03  0.42650552606E+03  0.00000000000E+00 0. -1.
         23    2    1    2    0    0  0.55344009613E+01 -0.19239547897E+02 -0.21674748337E+03  0.25100855334E+03  0.12500013001E+03 0.  0.
          5    1    3    3  502    0 -0.10774198571E+02  0.19958228521E+02 -0.20554978700E+03  0.20685071712E+03  0.47000000000E+01 0.  1.
         -5    1    3    3    0  502  0.16308599533E+02 -0.39197776418E+02 -0.11197696372E+02  0.44157836211E+02  0.47000000000E+01 0.  1.
        -11    1    1    2    0    0  0.17399833337E+02  0.35616246127E+02 -0.15553636848E+03  0.16050804686E+03  0.00000000000E+00 0. -1.
         11    1    1    2    0    0 -0.22934234299E+02 -0.16376698230E+02 -0.28867917714E+02  0.40342682371E+02  0.00000000000E+00 0.  1.
<mgrwt>
<rscale>  0 0.11272887E+03</rscale>
<asrwt>0</asrwt>
<pdfrwt beam="2">  1        1 0.65616241E-01 0.12659314E+03</pdfrwt>
<pdfrwt beam="1">  1       -1 0.39005776E-02 0.12659314E+03</pdfrwt>
<totfact> 0.13375128E+04</totfact>
</mgrwt>
</event>
<event>
 7    1  0.8712071E-006  0.1641076E+03  0.7546771E-02  0.1191069E+00
          1   -1    0    0  501    0  0.00000000000E+00  0.00000000000E+00  0.63645687550E+03  0.63645687550E+03  0.00000000000E+00 0. -1.
         -1   -1    0    0    0  501 -0.00000000000E+00 -0.00000000000E+00 -0.39987952844E+02  0.39987952844E+02  0.00000000000E+00 0.  1.
         23    2    1    2    0    0 -0.95401267179E+02  0.46956391728E+02  0.21946111544E+03  0.27403375290E+03  0.12500004814E+03 0.  0.
          5    1    3    3  502    0 -0.79093951758E+02  0.10696643525E+02  0.21991347617E+03  0.23399636405E+03  0.47000000000E+01 0. -1.
         -5    1    3    3    0  502 -0.16307315422E+02  0.36259748203E+02 -0.45236072406E+00  0.40037388854E+02  0.47000000000E+01 0. -1.
        -11    1    1    2    0    0  0.10123008477E+03 -0.65601411295E+02  0.31105335248E+03  0.33362443453E+03  0.00000000000E+00 0. -1.
         11    1    1    2    0    0 -0.58288175868E+01  0.18645019567E+02  0.65954454732E+02  0.68786640913E+02  0.00000000000E+00 0.  1.
<mgrwt>
<rscale>  0 0.15791710E+03</rscale>
<asrwt>0</asrwt>
<pdfrwt beam="1">  1        1 0.97916435E-01 0.16410764E+03</pdfrwt>
<pdfrwt beam="2">  1       -1 0.61519932E-02 0.16410764E+03</pdfrwt>
<totfact> 0.40758196E+03</totfact>
</mgrwt>
</event>
<event>
 7    1  0.8712071E-006  0.1273416E+03  0.7546771E-02  0.1246421E+00
         -2   -1    0    0    0  501 -0.00000000000E+00  0.00000000000E+00  0.19087496194E+02  0.19087496194E+02  0.00000000000E+00 0.  1.
          2   -1    0    0  501    0  0.00000000000E+00 -0.00000000000E+00 -0.64127375063E+03  0.64127375063E+03  0.00000000000E+00 0. -1.
         23    2    1    2    0    0  0.20896011556E+02 -0.12490704256E+02 -0.36219934568E+03  0.38393262163E+03  0.12499292359E+03 0.  0.
          5    1    3    3  502    0  0.61716910230E+02 -0.67913584320E+01 -0.31499421466E+03  0.32108962118E+03  0.47000000000E+01 0.  1.
         -5    1    3    3    0  502 -0.40820898674E+02 -0.56993458243E+01 -0.47205131022E+02  0.62843000455E+02  0.47000000000E+01 0.  1.
        -11    1    1    2    0    0  0.28838992018E+02  0.14940535465E+00 -0.33438150464E+02  0.44156762665E+02  0.00000000000E+00 0.  1.
         11    1    1    2    0    0 -0.49735003574E+02  0.12341298902E+02 -0.22654875829E+03  0.23227186253E+03  0.00000000000E+00 0. -1.
<mgrwt>
<rscale>  0 0.11800730E+03</rscale>
<asrwt>0</asrwt>
<pdfrwt beam="2">  1        2 0.98657513E-01 0.12734163E+03</pdfrwt>
<pdfrwt beam="1">  1       -2 0.29365375E-02 0.12734163E+03</pdfrwt>
<totfact> 0.19175651E+04</totfact>
</mgrwt>
</event>
<event>
 7    1  0.8712071E-006  0.1189288E+03  0.7546771E-02  0.1255266E+00
         -1   -1    0    0    0  501 -0.00000000000E+00  0.00000000000E+00  0.56346955477E+03  0.56346955477E+03  0.00000000000E+00 0.  1.
          1   -1    0    0  501    0  0.00000000000E+00 -0.00000000000E+00 -0.63477152089E+02  0.63477152089E+02  0.00000000000E+00 0. -1.
         23    2    1    2    0    0 -0.24094266591E+02 -0.21552377659E+02  0.51553016460E+03  0.52907033366E+03  0.11445098808E+03 0.  0.
          5    1    3    3  502    0  0.29223917235E+02  0.33201831660E+01  0.38099971403E+03  0.38216218160E+03  0.47000000000E+01 0. -1.
         -5    1    3    3    0  502 -0.53318183826E+02 -0.24872560825E+02  0.13453045058E+03  0.14690815206E+03  0.47000000000E+01 0.  1.
        -11    1    1    2    0    0 -0.16141395263E+02 -0.16745163486E+02 -0.32346922862E+02  0.39840539152E+02  0.00000000000E+00 0. -1.
         11    1    1    2    0    0  0.40235661854E+02  0.38297541145E+02  0.16809160939E+02  0.58035834052E+02  0.00000000000E+00 0.  1.
<mgrwt>
<rscale>  0 0.11291437E+03</rscale>
<asrwt>0</asrwt>
<pdfrwt beam="2">  1        1 0.97657161E-02 0.11892883E+03</pdfrwt>
<pdfrwt beam="1">  1       -1 0.86687620E-01 0.11892883E+03</pdfrwt>
<totfact> 0.89787661E+02</totfact>
</mgrwt>
</event>
<event>
 7    1  0.8712071E-006  0.1478329E+03  0.7546771E-02  0.1212684E+00
         -2   -1    0    0    0  501 -0.00000000000E+00  0.00000000000E+00  0.11331239242E+04  0.11331239242E+04  0.00000000000E+00 0.  1.
          2   -1    0    0  501    0  0.00000000000E+00 -0.00000000000E+00 -0.16622168417E+02  0.16622168417E+02  0.00000000000E+00 0. -1.
         23    2    1    2    0    0  0.69961418517E+02 -0.36541626665E+02  0.73248060656E+03  0.74724989000E+03  0.12499867419E+03 0.  0.
          5    1    3    3  502    0  0.32562786942E+02  0.21369042533E+02  0.56102191404E+03  0.56239189992E+03  0.47000000000E+01 0. -1.
         -5    1    3    3    0  502  0.37398631575E+02 -0.57910669198E+02  0.17145869253E+03  0.18485799007E+03  0.47000000000E+01 0. -1.
        -11    1    1    2    0    0 -0.61030174759E+02 -0.13072600008E+01  0.33189462737E+03  0.33746175315E+03  0.00000000000E+00 0. -1.
         11    1    1    2    0    0 -0.89312437573E+01  0.37848886666E+02  0.52126521808E+02  0.65034449430E+02  0.00000000000E+00 0.  1.
<mgrwt>
<rscale>  0 0.14048017E+03</rscale>
<asrwt>0</asrwt>
<pdfrwt beam="2">  1        2 0.25572576E-02 0.14783288E+03</pdfrwt>
<pdfrwt beam="1">  1       -2 0.17432670E+00 0.14783288E+03</pdfrwt>
<totfact> 0.80825939E+02</totfact>
</mgrwt>
</event>
<event>
 7    1  0.1103426E-005  0.2347591E+03  0.7546771E-02  0.1126563E+00
          3   -1    0    0  501    0  0.00000000000E+00  0.00000000000E+00  0.18181292119E+03  0.18181292119E+03  0.00000000000E+00 0. -1.
         -3   -1    0    0    0  501 -0.00000000000E+00 -0.00000000000E+00 -0.28928847380E+03  0.28928847380E+03  0.00000000000E+00 0.  1.
         23    2    1    2    0    0 -0.10869534564E+03 -0.16634682695E+03 -0.97399971429E+02  0.25416250786E+03  0.12500352382E+03 0.  0.
          5    1    3    3  502    0 -0.46257206657E+02 -0.83049472694E+02  0.19924273991E+02  0.97242021660E+02  0.47000000000E+01 0.  1.
         -5    1    3    3    0  502 -0.62438138985E+02 -0.83297354255E+02 -0.11732424542E+03  0.15692048620E+03  0.47000000000E+01 0.  1.
        -11    1    1    2    0    0  0.35375249337E+02  0.93123424192E+02 -0.42585315125E+02  0.10833692567E+03  0.00000000000E+00 0. -1.
         11    1    1    2    0    0  0.73320096305E+02  0.73223402756E+02  0.32509733937E+02  0.10860196147E+03  0.00000000000E+00 0.  1.
<mgrwt>
<rscale>  0 0.23010917E+03</rscale>
<asrwt>0</asrwt>
<pdfrwt beam="1">  1        3 0.27971218E-01 0.23475908E+03</pdfrwt>
<pdfrwt beam="2">  1       -3 0.44505919E-01 0.23475908E+03</pdfrwt>
<totfact> 0.15275315E+02</totfact>
</mgrwt>
</event>
<event>
 7    1  0.8712071E-006  0.1508887E+03  0.7546771E-02  0.1208481E+00
          1   -1    0    0  501    0  0.00000000000E+00  0.00000000000E+00  0.49109541548E+03  0.49109541548E+03  0.00000000000E+00 0. -1.
         -1   -1    0    0    0  501 -0.00000000000E+00 -0.00000000000E+00 -0.38485521822E+02  0.38485521822E+02  0.00000000000E+00 0.  1.
         23    2    1    2    0    0  0.30967786205E+01 -0.84458257667E+02  0.24271383374E+03  0.28579261078E+03  0.12499849583E+03 0.  0.
          5    1    3    3  502    0 -0.18728018182E+02 -0.10874737892E+03  0.21863601734E+03  0.24495005443E+03  0.47000000000E+01 0.  1.
         -5    1    3    3    0  502  0.21824796803E+02  0.24289121251E+02  0.24077816403E+02  0.40842556352E+02  0.47000000000E+01 0.  1.
        -11    1    1    2    0    0 -0.77643638835E+01  0.67720441531E+02  0.21510586607E+03  0.22564768371E+03  0.00000000000E+00 0. -1.
         11    1    1    2    0    0  0.46675852630E+01  0.16737816136E+02 -0.52098061567E+01  0.18140642805E+02  0.00000000000E+00 0.  1.
<mgrwt>
<rscale>  0 0.14366449E+03</rscale>
<asrwt>0</asrwt>
<pdfrwt beam="1">  1        1 0.75553137E-01 0.15088874E+03</pdfrwt>
<pdfrwt beam="2">  1       -1 0.59208498E-02 0.15088874E+03</pdfrwt>
<totfact> 0.60935663E+03</totfact>
</mgrwt>
</event>
<event>
 7    1  0.8712071E-006  0.1351192E+03  0.7546771E-02  0.1235228E+00
         -2   -1    0    0    0  501 -0.00000000000E+00  0.00000000000E+00  0.49032102566E+02  0.49032102566E+02  0.00000000000E+00 0.  1.
          2   -1    0    0  501    0  0.00000000000E+00 -0.00000000000E+00 -0.35897409987E+03  0.35897409987E+03  0.00000000000E+00 0. -1.
         23    2    1    2    0    0  0.43821548636E+02  0.26665593291E+02 -0.78138000058E+02  0.15608569294E+03  0.12500325795E+03 0.  0.
          5    1    3    3  502    0  0.17358930354E+02  0.76013691421E+02 -0.36925438343E+02  0.86400183700E+02  0.47000000000E+01 0.  1.
         -5    1    3    3    0  502  0.26462618282E+02 -0.49348098130E+02 -0.41212561715E+02  0.69685509243E+02  0.47000000000E+01 0.  1.
        -11    1    1    2    0    0 -0.53994026988E+02 -0.18456543207E+02 -0.23193206545E+03  0.23884824035E+03  0.00000000000E+00 0. -1.
         11    1    1    2    0    0  0.10172478352E+02 -0.82090500839E+01  0.12806819724E+00  0.13072269144E+02  0.00000000000E+00 0.  1.
<mgrwt>
<rscale>  0 0.12489833E+03</rscale>
<asrwt>0</asrwt>
<pdfrwt beam="2">  1        2 0.55226783E-01 0.13511919E+03</pdfrwt>
<pdfrwt beam="1">  1       -2 0.75434007E-02 0.13511919E+03</pdfrwt>
<totfact> 0.88537112E+03</totfact>
</mgrwt>
</event>
<event>
 7    1  0.8712071E-006  0.1466433E+03  0.7546771E-02  0.1213135E+00
          1   -1    0    0  501    0  0.00000000000E+00  0.00000000000E+00  0.23391591484E+03  0.23391591484E+03  0.00000000000E+00 0. -1.
         -1   -1    0    0    0  501 -0.00000000000E+00 -0.00000000000E+00 -0.77564589083E+02  0.77564589083E+02  0.00000000000E+00 0.  1.
         23    2    1    2    0    0  0.63479111700E+02 -0.43013866750E+02  0.76491768828E+02  0.16539422509E+03  0.12499787455E+03 0.  0.
          5    1    3    3  502    0  0.10006987155E+03 -0.17288692757E+02  0.53783829826E+02  0.11501160133E+03  0.47000000000E+01 0.  1.
         -5    1    3    3    0  502 -0.36590759853E+02 -0.25725173993E+02  0.22707939002E+02  0.50382623764E+02  0.47000000000E+01 0.  1.
        -11    1    1    2    0    0 -0.77004682300E+02  0.10078061608E+02  0.26736168257E+02  0.82134713215E+02  0.00000000000E+00 0.  1.
         11    1    1    2    0    0  0.13525570600E+02  0.32935805142E+02  0.53123388675E+02  0.63951565616E+02  0.00000000000E+00 0. -1.
<mgrwt>
<rscale>  0 0.14014460E+03</rscale>
<asrwt>0</asrwt>
<pdfrwt beam="1">  1        1 0.35987063E-01 0.14664331E+03</pdfrwt>
<pdfrwt beam="2">  1       -1 0.11933014E-01 0.14664331E+03</pdfrwt>
<totfact> 0.53338553E+03</totfact>
</mgrwt>
</event>
<event>
 7    1  0.8712071E-006  0.1340532E+03  0.7546771E-02  0.1234179E+00
         -2   -1    0    0    0  501 -0.00000000000E+00  0.00000000000E+00  0.35725628312E+02  0.35725628312E+02  0.00000000000E+00 0.  1.
          2   -1    0    0  501    0  0.00000000000E+00 -0.00000000000E+00 -0.60644734947E+03  0.60644734947E+03  0.00000000000E+00 0. -1.
         23    2    1    2    0    0 -0.46976348392E+02  0.11799579406E+02 -0.12043191737E+03  0.18020573009E+03  0.12499700418E+03 0.  0.
          5    1    3    3  502    0 -0.89136188600E+02 -0.23626372667E+01 -0.82288144782E+02  0.12142598958E+03  0.47000000000E+01 0. -1.
         -5    1    3    3    0  502  0.42159840208E+02  0.14162216673E+02 -0.38143772592E+02  0.58779740515E+02  0.47000000000E+01 0. -1.
        -11    1    1    2    0    0  0.72893241835E+02 -0.19318429605E+02 -0.35555930296E+03  0.36346807886E+03  0.00000000000E+00 0. -1.
         11    1    1    2    0    0 -0.25916893443E+02  0.75188501987E+01 -0.94730500829E+02  0.98499168836E+02  0.00000000000E+00 0.  1.
<mgrwt>
<rscale>  0 0.12557148E+03</rscale>
<asrwt>0</asrwt>
<pdfrwt beam="2">  1        2 0.93299598E-01 0.13405319E+03</pdfrwt>
<pdfrwt beam="1">  1       -2 0.54962502E-02 0.13405319E+03</pdfrwt>
<totfact> 0.80860681E+03</totfact>
</mgrwt>
</event>
<event>
 7    1  0.8712071E-006  0.1386200E+03  0.7546771E-02  0.1225978E+00
          2   -1    0    0  501    0  0.00000000000E+00  0.00000000000E+00  0.71218242927E+03  0.71218242927E+03  0.00000000000E+00 0. -1.
         -2   -1    0    0    0  501 -0.00000000000E+00 -0.00000000000E+00 -0.25197061253E+02  0.25197061253E+02  0.00000000000E+00 0.  1.
         23    2    1    2    0    0  0.50338138143E+02  0.32519494979E+02  0.24225664641E+03  0.27911247736E+03  0.12499618627E+03 0.  0.
          5    1    3    3  502    0  0.87660212173E+02  0.42964373469E+02  0.19228796844E+03  0.21570118913E+03  0.47000000000E+01 0.  1.
         -5    1    3    3    0  502 -0.37322074030E+02 -0.10444878490E+02  0.49968677972E+02  0.63411288229E+02  0.47000000000E+01 0.  1.
        -11    1    1    2    0    0  0.34004986499E+01 -0.50050745594E+02  0.27004989861E+03  0.27466996244E+03  0.00000000000E+00 0. -1.
         11    1    1    2    0    0 -0.53738636793E+02  0.17531250615E+02  0.17467882299E+03  0.18359705072E+03  0.00000000000E+00 0.  1.
<mgrwt>
<rscale>  0 0.13100127E+03</rscale>
<asrwt>0</asrwt>
<pdfrwt beam="1">  1        2 0.10956651E+00 0.13861996E+03</pdfrwt>
<pdfrwt beam="2">  1       -2 0.38764715E-02 0.13861996E+03</pdfrwt>
<totfact> 0.11326633E+04</totfact>
</mgrwt>
</event>
<event>
 7    1  0.8712071E-006  0.1286925E+03  0.7546771E-02  0.1243711E+00
         -2   -1    0    0    0  501 -0.00000000000E+00  0.00000000000E+00  0.70097637558E+02  0.70097637558E+02  0.00000000000E+00 0.  1.
          2   -1    0    0  501    0  0.00000000000E+00 -0.00000000000E+00 -0.18027613669E+03  0.18027613669E+03  0.00000000000E+00 0. -1.
         23    2    1    2    0    0 -0.10572622821E+02 -0.28712195583E+02 -0.60607412131E+02  0.14224984747E+03  0.12500236066E+03 0.  0.
          5    1    3    3  502    0 -0.57004363314E+02  0.20279935872E+02 -0.33849620234E+02  0.69488560395E+02  0.47000000000E+01 0. -1.
         -5    1    3    3    0  502  0.46431740493E+02 -0.48992131455E+02 -0.26757791897E+02  0.72761287075E+02  0.47000000000E+01 0. -1.
        -11    1    1    2    0    0  0.16363468172E+01  0.61783182922E+02 -0.30613788782E+02  0.68971322928E+02  0.00000000000E+00 0. -1.
         11    1    1    2    0    0  0.89362760041E+01 -0.33070987339E+02 -0.18957298218E+02  0.39152603848E+02  0.00000000000E+00 0.  1.
<mgrwt>
<rscale>  0 0.11962878E+03</rscale>
<asrwt>0</asrwt>
<pdfrwt beam="2">  1        2 0.27734790E-01 0.12869250E+03</pdfrwt>
<pdfrwt beam="1">  1       -2 0.10784252E-01 0.12869250E+03</pdfrwt>
<totfact> 0.10545094E+04</totfact>
</mgrwt>
</event>
<event>
 6    1  0.8712071E-006  0.1746946E+03  0.7546771E-02  0.1220711E+00
          2   -1    0    0  501    0  0.00000000000E+00  0.00000000000E+00  0.10644617507E+03  0.10644617507E+03  0.00000000000E+00 0. -1.
         -2   -1    0    0    0  501 -0.00000000000E+00 -0.00000000000E+00 -0.13958284290E+03  0.13958284290E+03  0.00000000000E+00 0.  1.
          5    1    1    2  502    0  0.55887777703E+02  0.75355946674E+02 -0.61443070530E+01  0.94137160064E+02  0.47000000000E+01 0. -1.
         -5    1    1    2    0  502 -0.45831597620E+02 -0.59951848648E+02 -0.44575091935E+02  0.87771227163E+02  0.47000000000E+01 0.  1.
        -11    1    1    2    0    0  0.16265236214E+02 -0.12928496708E+01  0.28069713009E+02  0.32467493863E+02  0.00000000000E+00 0. -1.
         11    1    1    2    0    0 -0.26321416296E+02 -0.14111248355E+02 -0.10486981856E+02  0.31653136882E+02  0.00000000000E+00 0.  1.
<mgrwt>
<rscale>  0 0.13465282E+03</rscale>
<asrwt>0</asrwt>
<pdfrwt beam="1">  1        2 0.16376335E-01 0.17469460E+03</pdfrwt>
<pdfrwt beam="2">  1       -2 0.21474283E-01 0.17469460E+03</pdfrwt>
<totfact> 0.62949913E+03</totfact>
</mgrwt>
</event>
<event>
 7    1  0.8712071E-006  0.1338692E+03  0.7546771E-02  0.1234583E+00
          4   -1    0    0  501    0  0.00000000000E+00  0.00000000000E+00  0.50426097933E+02  0.50426097933E+02  0.00000000000E+00 0. -1.
         -4   -1    0    0    0  501 -0.00000000000E+00 -0.00000000000E+00 -0.28024011645E+03  0.28024011645E+03  0.00000000000E+00 0.  1.
         23    2    1    2    0    0 -0.15448309242E+02 -0.45365345935E+02 -0.14560334460E+03  0.19779104191E+03  0.12499718970E+03 0.  0.
          5    1    3    3  502    0  0.28245287217E+02 -0.75389942335E+02 -0.88194447214E+02  0.11950644407E+03  0.47000000000E+01 0. -1.
         -5    1    3    3    0  502 -0.43693596459E+02  0.30024596401E+02 -0.57408897384E+02  0.78284597843E+02  0.47000000000E+01 0. -1.
        -11    1    1    2    0    0 -0.13762287257E+02  0.10801227050E+02 -0.85827271518E+02  0.87592166274E+02  0.00000000000E+00 0.  1.
         11    1    1    2    0    0  0.29210596500E+02  0.34564118885E+02  0.16165976001E+01  0.45283006194E+02  0.00000000000E+00 0. -1.
<mgrwt>
<rscale>  0 0.12531151E+03</rscale>
<asrwt>0</asrwt>
<pdfrwt beam="1">  1        4 0.77578611E-02 0.13386920E+03</pdfrwt>
<pdfrwt beam="2">  1       -4 0.43113865E-01 0.13386920E+03</pdfrwt>
<totfact> 0.10027071E+03</totfact>
</mgrwt>
</event>
<event>
 7    1  0.8712071E-006  0.1531512E+03  0.7546771E-02  0.1205251E+00
          3   -1    0    0  501    0  0.00000000000E+00  0.00000000000E+00  0.33933405116E+03  0.33933405116E+03  0.00000000000E+00 0. -1.
         -3   -1    0    0    0  501 -0.00000000000E+00 -0.00000000000E+00 -0.89630380549E+02  0.89630380549E+02  0.00000000000E+00 0.  1.
         23    2    1    2    0    0 -0.47224156556E+02  0.74831995321E+02  0.50150737119E+01  0.15323326900E+03  0.12500134110E+03 0.  0.
          5    1    3    3  502    0 -0.13657550474E+02 -0.23657763985E+02 -0.32326711230E+02  0.42583150901E+02  0.47000000000E+01 0.  1.
         -5    1    3    3    0  502 -0.33566606082E+02  0.98489759306E+02  0.37341784942E+02  0.11065011810E+03  0.47000000000E+01 0.  1.
        -11    1    1    2    0    0  0.17653431600E+02 -0.72474773935E+02  0.84053011590E+02  0.11237946993E+03  0.00000000000E+00 0.  1.
         11    1    1    2    0    0  0.29570724956E+02 -0.23572213865E+01  0.16063558531E+03  0.16335169278E+03  0.00000000000E+00 0. -1.
<mgrwt>
<rscale>  0 0.14617705E+03</rscale>
<asrwt>0</asrwt>
<pdfrwt beam="1">  1        3 0.52205238E-01 0.15315118E+03</pdfrwt>
<pdfrwt beam="2">  1       -3 0.13789289E-01 0.15315118E+03</pdfrwt>
<totfact> 0.37136211E+02</totfact>
</mgrwt>
</event>
<event>
 7    1  0.8712071E-006  0.1340362E+03  0.7546771E-02  0.1235989E+00
          2   -1    0    0  501    0  0.00000000000E+00  0.00000000000E+00  0.51346037996E+03  0.51346037996E+03  0.00000000000E+00 0. -1.
         -2   -1    0    0    0  501 -0.00000000000E+00 -0.00000000000E+00 -0.26840339115E+02  0.26840339115E+02  0.00000000000E+00 0.  1.
         23    2    1    2    0    0 -0.40028317101E+02  0.27244196115E+02  0.25129512992E+03  0.28480685306E+03  0.12498475442E+03 0.  0.
          5    1    3    3  502    0  0.30507372033E+02  0.31968198197E+02  0.17556534613E+03  0.18110203258E+03  0.47000000000E+01 0. -1.
         -5    1    3    3    0  502 -0.70535689134E+02 -0.47240020816E+01  0.75729783796E+02  0.10370482048E+03  0.47000000000E+01 0. -1.
        -11    1    1    2    0    0  0.44569500626E+02  0.20876498894E+02  0.93555635765E+02  0.10571152054E+03  0.00000000000E+00 0. -1.
         11    1    1    2    0    0 -0.45411835246E+01 -0.48120695010E+02  0.14176927515E+03  0.14978234547E+03  0.00000000000E+00 0.  1.
<mgrwt>
<rscale>  0 0.12441339E+03</rscale>
<asrwt>0</asrwt>
<pdfrwt beam="1">  1        2 0.78993897E-01 0.13403619E+03</pdfrwt>
<pdfrwt beam="2">  1       -2 0.41292833E-02 0.13403619E+03</pdfrwt>
<totfact> 0.14951340E+04</totfact>
</mgrwt>
</event>
<event>
 7    1  0.8712071E-006  0.1290716E+03  0.7546771E-02  0.1243869E+00
          1   -1    0    0  501    0  0.00000000000E+00  0.00000000000E+00  0.10007315606E+03  0.10007315606E+03  0.00000000000E+00 0. -1.
         -1   -1    0    0    0  501 -0.00000000000E+00 -0.00000000000E+00 -0.14245363821E+03  0.14245363821E+03  0.00000000000E+00 0.  1.
         23    2    1    2    0    0 -0.30845380925E+02 -0.92523659930E+01 -0.65599326804E+02  0.14478514132E+03  0.12498968625E+03 0.  0.
          5    1    3    3  502    0 -0.21923066185E+02 -0.56496013842E+02 -0.73988768576E+02  0.95754103235E+02  0.47000000000E+01 0.  1.
         -5    1    3    3    0  502 -0.89223147402E+01  0.47243647849E+02  0.83894417721E+01  0.49031038084E+02  0.47000000000E+01 0.  1.
        -11    1    1    2    0    0  0.34287242391E+02 -0.33835931994E+02 -0.10233337150E+01  0.48182284053E+02  0.00000000000E+00 0.  1.
         11    1    1    2    0    0 -0.34418614653E+01  0.43088297987E+02  0.24242178366E+02  0.49559368900E+02  0.00000000000E+00 0. -1.
<mgrwt>
<rscale>  0 0.11953346E+03</rscale>
<asrwt>0</asrwt>
<pdfrwt beam="1">  1        1 0.15395870E-01 0.12907155E+03</pdfrwt>
<pdfrwt beam="2">  1       -1 0.21915944E-01 0.12907155E+03</pdfrwt>
<totfact> 0.59146420E+03</totfact>
</mgrwt>
</event>
<event>
 7    1  0.8712071E-006  0.2316612E+03  0.7546771E-02  0.1128503E+00
          2   -1    0    0  501    0  0.00000000000E+00  0.00000000000E+00  0.37675059422E+03  0.37675059422E+03  0.00000000000E+00 0.  1.
         -2   -1    0    0    0  501 -0.00000000000E+00 -0.00000000000E+00 -0.13422469662E+03  0.13422469662E+03  0.00000000000E+00 0. -1.
         23    2    1    2    0    0  0.14894713522E+03 -0.12592429409E+03  0.15572040106E+03  0.27913390938E+03  0.12499887651E+03 0.  0.
          5    1    3    3  502    0  0.67337048876E+02 -0.52919584666E+02  0.14570726204E+03  0.16907825644E+03  0.47000000000E+01 0.  1.
         -5    1    3    3    0  502  0.81610086339E+02 -0.73004709423E+02  0.10013139030E+02  0.11005565294E+03  0.47000000000E+01 0.  1.
        -11    1    1    2    0    0 -0.77151647072E+02  0.14675270210E+02  0.11082700269E+02  0.79313091271E+02  0.00000000000E+00 0. -1.
         11    1    1    2    0    0 -0.71795488143E+02  0.11124902388E+03  0.75722796267E+02  0.15252829018E+03  0.00000000000E+00 0.  1.
<mgrwt>
<rscale>  0 0.22737257E+03</rscale>
<asrwt>0</asrwt>
<pdfrwt beam="1">  1        2 0.57961629E-01 0.23166117E+03</pdfrwt>
<pdfrwt beam="2">  1       -2 0.20649953E-01 0.23166117E+03</pdfrwt>
<totfact> 0.16881453E+03</totfact>
</mgrwt>
</event>
<event>
 7    1  0.8712071E-006  0.1701703E+03  0.7546771E-02  0.1184224E+00
         -3   -1    0    0    0  501 -0.00000000000E+00  0.00000000000E+00  0.25967347962E+02  0.25967347962E+02  0.00000000000E+00 0.  1.
          3   -1    0    0  501    0  0.00000000000E+00 -0.00000000000E+00 -0.96859428181E+03  0.96859428181E+03  0.00000000000E+00 0. -1.
         23    2    1    2    0    0  0.47088861452E+02  0.10537662597E+03 -0.49223682375E+03  0.52082148193E+03  0.12504531664E+03 0.  0.
          5    1    3    3  502    0  0.87298800892E+02  0.93392074298E+02 -0.37377292777E+03  0.39505879526E+03  0.47000000000E+01 0. -1.
         -5    1    3    3    0  502 -0.40209939441E+02  0.11984551673E+02 -0.11846389598E+03  0.12576268667E+03  0.47000000000E+01 0. -1.
        -11    1    1    2    0    0  0.19814351252E+02 -0.49578207563E+02 -0.10849657977E+03  0.12092193764E+03  0.00000000000E+00 0.  1.
         11    1    1    2    0    0 -0.66903212704E+02 -0.55798418407E+02 -0.34189353033E+03  0.35281821020E+03  0.00000000000E+00 0. -1.
<mgrwt>
<rscale>  0 0.16402702E+03</rscale>
<asrwt>0</asrwt>
<pdfrwt beam="2">  1        3 0.14901449E+00 0.17017028E+03</pdfrwt>
<pdfrwt beam="1">  1       -3 0.39949770E-02 0.17017028E+03</pdfrwt>
<totfact> 0.27308063E+02</totfact>
</mgrwt>
</event>
<event>
 7    1  0.8712071E-006  0.1724584E+03  0.7546771E-02  0.1181995E+00
          1   -1    0    0  501    0  0.00000000000E+00  0.00000000000E+00  0.13184481871E+03  0.13184481871E+03  0.00000000000E+00 0.  1.
         -1   -1    0    0    0  501 -0.00000000000E+00 -0.00000000000E+00 -0.20609963191E+03  0.20609963191E+03  0.00000000000E+00 0. -1.
         23    2    1    2    0    0 -0.10847173913E+03  0.48456642483E+02 -0.90195893980E+00  0.17246071157E+03  0.12501087598E+03 0.  0.
          5    1    3    3  502    0 -0.46443126072E+02  0.66056307940E+02  0.45573255832E+02  0.92840785354E+02  0.47000000000E+01 0.  1.
         -5    1    3    3    0  502 -0.62028613060E+02 -0.17599665457E+02 -0.46475214772E+02  0.79619926215E+02  0.47000000000E+01 0.  1.
        -11    1    1    2    0    0  0.60123791667E+01 -0.14146508371E+02 -0.53447786691E+02  0.55614191575E+02  0.00000000000E+00 0. -1.
         11    1    1    2    0    0  0.10245935997E+03 -0.34310134112E+02 -0.19905067567E+02  0.10986954747E+03  0.00000000000E+00 0.  1.
<mgrwt>
<rscale>  0 0.16608348E+03</rscale>
<asrwt>0</asrwt>
<pdfrwt beam="1">  1        1 0.20283818E-01 0.17245835E+03</pdfrwt>
<pdfrwt beam="2">  1       -1 0.31707636E-01 0.17245835E+03</pdfrwt>
<totfact> 0.22849166E+03</totfact>
</mgrwt>
</event>
<event>
 7    1  0.8712071E-006  0.1252899E+03  0.7546771E-02  0.1250758E+00
          1   -1    0    0  501    0  0.00000000000E+00  0.00000000000E+00  0.13239530024E+03  0.13239530024E+03  0.00000000000E+00 0. -1.
         -1   -1    0    0    0  501 -0.00000000000E+00 -0.00000000000E+00 -0.10721065783E+03  0.10721065783E+03  0.00000000000E+00 0.  1.
         23    2    1    2    0    0  0.32349928886E+01  0.78986747838E+01 -0.36104434262E+02  0.13038821627E+03  0.12499881010E+03 0.  0.
          5    1    3    3  502    0  0.52251190430E+02 -0.97795574387E+01 -0.53194273506E+02  0.75349501517E+02  0.47000000000E+01 0. -1.
         -5    1    3    3    0  502 -0.49016197542E+02  0.17678232223E+02  0.17089839244E+02  0.55038714750E+02  0.47000000000E+01 0. -1.
        -11    1    1    2    0    0 -0.18551811869E+02  0.19499079730E+02 -0.12016231978E+02  0.29474966750E+02  0.00000000000E+00 0.  1.
         11    1    1    2    0    0  0.15316818980E+02 -0.27397754514E+02  0.73305308655E+02  0.79742775053E+02  0.00000000000E+00 0. -1.
<mgrwt>
<rscale>  0 0.11547266E+03</rscale>
<asrwt>0</asrwt>
<pdfrwt beam="1">  1        1 0.20368508E-01 0.12528989E+03</pdfrwt>
<pdfrwt beam="2">  1       -1 0.16493947E-01 0.12528989E+03</pdfrwt>
<totfact> 0.64948761E+03</totfact>
</mgrwt>
</event>
<event>
 7    1  0.8712071E-006  0.1376121E+03  0.7546771E-02  0.1227609E+00
         -2   -1    0    0    0  501 -0.00000000000E+00  0.00000000000E+00  0.64423795354E+02  0.64423795354E+02  0.00000000000E+00 0.  1.
          2   -1    0    0  501    0  0.00000000000E+00 -0.00000000000E+00 -0.38194474853E+03  0.38194474853E+03  0.00000000000E+00 0. -1.
         23    2    1    2    0    0 -0.50984403166E+02  0.26727931576E+02 -0.32886164477E+02  0.14148705596E+03  0.12499318180E+03 0.  0.
          5    1    3    3  502    0 -0.91697155872E+01  0.70945964902E+02 -0.36291584394E+02  0.80352863780E+02  0.47000000000E+01 0.  1.
         -5    1    3    3    0  502 -0.41814687579E+02 -0.44218033326E+02  0.34054199165E+01  0.61134192179E+02  0.47000000000E+01 0.  1.
        -11    1    1    2    0    0 -0.98823241109E+01 -0.39993324670E+02 -0.16420246561E+03  0.16929139394E+03  0.00000000000E+00 0. -1.
         11    1    1    2    0    0  0.60866727277E+02  0.13265393094E+02 -0.12043232309E+03  0.13559009399E+03  0.00000000000E+00 0.  1.
<mgrwt>
<rscale>  0 0.12989687E+03</rscale>
<asrwt>0</asrwt>
<pdfrwt beam="2">  1        2 0.58760731E-01 0.13761209E+03</pdfrwt>
<pdfrwt beam="1">  1       -2 0.99113531E-02 0.13761209E+03</pdfrwt>
<totfact> 0.54292033E+03</totfact>
</mgrwt>
</event>
<event>
 7    1  0.8712071E-006  0.1273732E+03  0.7546771E-02  0.1246364E+00
          1   -1    0    0  501    0  0.00000000000E+00  0.00000000000E+00  0.78524396330E+02  0.78524396330E+02  0.00000000000E+00 0. -1.
         -1   -1    0    0    0  501 -0.00000000000E+00 -0.00000000000E+00 -0.15991991010E+03  0.15991991010E+03  0.00000000000E+00 0.  1.
         23    2    1    2    0    0  0.23071343551E+02  0.84391738578E+01 -0.65263597616E+02  0.14311975713E+03  0.12498168329E+03 0.  0.
          5    1    3    3  502    0 -0.34725437640E+02  0.42645033523E+02 -0.10166830411E+02  0.56124053168E+02  0.47000000000E+01 0. -1.
         -5    1    3    3    0  502  0.57796781191E+02 -0.34205859665E+02 -0.55096767205E+02  0.86995703962E+02  0.47000000000E+01 0. -1.
        -11    1    1    2    0    0 -0.11519738142E+02  0.34324343802E+02  0.17009801775E+02  0.40002478683E+02  0.00000000000E+00 0. -1.
         11    1    1    2    0    0 -0.11551605409E+02 -0.42763517660E+02 -0.33141717931E+02  0.55322070619E+02  0.00000000000E+00 0.  1.
<mgrwt>
<rscale>  0 0.11804083E+03</rscale>
<asrwt>0</asrwt>
<pdfrwt beam="1">  1        1 0.12080676E-01 0.12737318E+03</pdfrwt>
<pdfrwt beam="2">  1       -1 0.24603063E-01 0.12737318E+03</pdfrwt>
<totfact> 0.67089712E+03</totfact>
</mgrwt>
</event>
<event>
 7    1  0.8712071E-006  0.1456690E+03  0.7546771E-02  0.1215740E+00
          2   -1    0    0  501    0  0.00000000000E+00  0.00000000000E+00  0.64244862816E+03  0.64244862816E+03  0.00000000000E+00 0.  1.
         -2   -1    0    0    0  501 -0.00000000000E+00 -0.00000000000E+00 -0.34761466736E+02  0.34761466736E+02  0.00000000000E+00 0. -1.
         23    2    1    2    0    0 -0.20338254031E+02 -0.71981376238E+02  0.17000976844E+03  0.22388115617E+03  0.12499795047E+03 0.  0.
          5    1    3    3  502    0 -0.49669121780E+02 -0.35902601407E+02  0.16595422794E+03  0.17697150679E+03  0.47000000000E+01 0. -1.
         -5    1    3    3    0  502  0.29330867749E+02 -0.36078774831E+02  0.40555405029E+01  0.46909649380E+02  0.47000000000E+01 0. -1.
        -11    1    1    2    0    0  0.55240038686E+02  0.55733509223E+02  0.26287437737E+03  0.27433669861E+03  0.00000000000E+00 0.  1.
         11    1    1    2    0    0 -0.34901784655E+02  0.16247867015E+02  0.17480301562E+03  0.17899224012E+03  0.00000000000E+00 0. -1.
<mgrwt>
<rscale>  0 0.13822292E+03</rscale>
<asrwt>0</asrwt>
<pdfrwt beam="1">  1        2 0.98838241E-01 0.14566898E+03</pdfrwt>
<pdfrwt beam="2">  1       -2 0.53479184E-02 0.14566898E+03</pdfrwt>
<totfact> 0.79241993E+03</totfact>
</mgrwt>
</event>
<event>
 7    1  0.8712071E-006  0.1370231E+03  0.7546771E-02  0.1229216E+00
         -2   -1    0    0    0  501 -0.00000000000E+00  0.00000000000E+00  0.19460235427E+03  0.19460235427E+03  0.00000000000E+00 0.  1.
          2   -1    0    0  501    0  0.00000000000E+00 -0.00000000000E+00 -0.90414996567E+02  0.90414996567E+02  0.00000000000E+00 0. -1.
         23    2    1    2    0    0 -0.54256415854E+02 -0.14388619654E+02  0.11300476780E+03  0.17761025990E+03  0.12499814334E+03 0.  0.
          5    1    3    3  502    0 -0.59873335199E+02  0.42651745209E+02  0.88376541159E+02  0.11504994856E+03  0.47000000000E+01 0. -1.
         -5    1    3    3    0  502  0.56169193450E+01 -0.57040364863E+02  0.24628226643E+02  0.62560311334E+02  0.47000000000E+01 0. -1.
        -11    1    1    2    0    0  0.30744438569E+02 -0.11361346078E+02 -0.45967385363E+02  0.56456188365E+02  0.00000000000E+00 0.  1.
         11    1    1    2    0    0  0.23511977285E+02  0.25749965732E+02  0.37149975262E+02  0.50950902572E+02  0.00000000000E+00 0. -1.
<mgrwt>
<rscale>  0 0.12882094E+03</rscale>
<asrwt>0</asrwt>
<pdfrwt beam="2">  1        2 0.13910000E-01 0.13702309E+03</pdfrwt>
<pdfrwt beam="1">  1       -2 0.29938824E-01 0.13702309E+03</pdfrwt>
<totfact> 0.41885779E+03</totfact>
</mgrwt>
</event>
<event>
 7    1  0.8712071E-006  0.1414700E+03  0.7546771E-02  0.1221880E+00
          4   -1    0    0  501    0  0.00000000000E+00  0.00000000000E+00  0.16175570970E+03  0.16175570970E+03  0.00000000000E+00 0. -1.
         -4   -1    0    0    0  501 -0.00000000000E+00 -0.00000000000E+00 -0.10191141607E+03  0.10191141607E+03  0.00000000000E+00 0.  1.
         23    2    1    2    0    0  0.64674619755E+02  0.14371384981E+02  0.49567919746E+02  0.14990243530E+03  0.12499767316E+03 0.  0.
          5    1    3    3  502    0  0.80716140870E+02  0.37273940174E+02  0.71393724897E+02  0.11412097076E+03  0.47000000000E+01 0. -1.
         -5    1    3    3    0  502 -0.16041521115E+02 -0.22902555193E+02 -0.21825805151E+02  0.35781464539E+02  0.47000000000E+01 0. -1.
        -11    1    1    2    0    0  0.91091486032E+01  0.57419467419E+01 -0.26721316830E+02  0.28809292143E+02  0.00000000000E+00 0.  1.
         11    1    1    2    0    0 -0.73783768358E+02 -0.20113331723E+02  0.36997690718E+02  0.84955398325E+02  0.00000000000E+00 0. -1.
<mgrwt>
<rscale>  0 0.13383058E+03</rscale>
<asrwt>0</asrwt>
<pdfrwt beam="1">  1        4 0.24885494E-01 0.14147000E+03</pdfrwt>
<pdfrwt beam="2">  1       -4 0.15678679E-01 0.14147000E+03</pdfrwt>
<totfact> 0.87784263E+02</totfact>
</mgrwt>
</event>
<event>
 7    1  0.8712071E-006  0.1672593E+03  0.7546771E-02  0.1187402E+00
          1   -1    0    0  501    0  0.00000000000E+00  0.00000000000E+00  0.18805020749E+03  0.18805020749E+03  0.00000000000E+00 0. -1.
         -1   -1    0    0    0  501 -0.00000000000E+00 -0.00000000000E+00 -0.13238446788E+03  0.13238446788E+03  0.00000000000E+00 0.  1.
         23    2    1    2    0    0 -0.24023258095E+02 -0.10849864833E+03  0.39635832841E+01  0.16730627579E+03  0.12500642507E+03 0.  0.
          5    1    3    3  502    0 -0.31229441523E+02 -0.13529930159E+03  0.61624238039E+01  0.13907280286E+03  0.47000000000E+01 0. -1.
         -5    1    3    3    0  502  0.72061834270E+01  0.26800653254E+02 -0.21988405198E+01  0.28233472937E+02  0.47000000000E+01 0. -1.
        -11    1    1    2    0    0  0.38441876092E+02  0.81240620034E+02  0.72886426553E+02  0.11571623636E+03  0.00000000000E+00 0. -1.
         11    1    1    2    0    0 -0.14418617997E+02  0.27258028298E+02 -0.21184270231E+02  0.37412163220E+02  0.00000000000E+00 0.  1.
<mgrwt>
<rscale>  0 0.16115207E+03</rscale>
<asrwt>0</asrwt>
<pdfrwt beam="1">  1        1 0.28930801E-01 0.16725932E+03</pdfrwt>
<pdfrwt beam="2">  1       -1 0.20366841E-01 0.16725932E+03</pdfrwt>
<totfact> 0.30312963E+03</totfact>
</mgrwt>
</event>
<event>
 7    1  0.8712071E-006  0.1347420E+03  0.7546771E-02  0.1233009E+00
         -1   -1    0    0    0  501 -0.00000000000E+00  0.00000000000E+00  0.15832902588E+02  0.15832902588E+02  0.00000000000E+00 0.  1.
          1   -1    0    0  501    0  0.00000000000E+00 -0.00000000000E+00 -0.98174578959E+03  0.98174578959E+03  0.00000000000E+00 0. -1.
         23    2    1    2    0    0  0.96207619070E+01 -0.49371935846E+02 -0.39765337385E+03  0.41986142476E+03  0.12500105263E+03 0.  0.
          5    1    3    3  502    0 -0.36767703497E+02  0.23506317963E+02 -0.87853893269E+02  0.98207981178E+02  0.47000000000E+01 0.  1.
         -5    1    3    3    0  502  0.46388465404E+02 -0.72878253809E+02 -0.30979948058E+03  0.32165344358E+03  0.47000000000E+01 0.  1.
        -11    1    1    2    0    0  0.38616033868E+02  0.37931405053E+02 -0.32188409101E+03  0.32640367278E+03  0.00000000000E+00 0.  1.
         11    1    1    2    0    0 -0.48236795775E+02  0.11440530794E+02 -0.24637542214E+03  0.25131359463E+03  0.00000000000E+00 0. -1.
<mgrwt>
<rscale>  0 0.12632746E+03</rscale>
<asrwt>0</asrwt>
<pdfrwt beam="2">  1        1 0.15103780E+00 0.13474201E+03</pdfrwt>
<pdfrwt beam="1">  1       -1 0.24358313E-02 0.13474201E+03</pdfrwt>
<totfact> 0.81920739E+03</totfact>
</mgrwt>
</event>
<event>
 7    1  0.8712071E-006  0.2020835E+03  0.7546771E-02  0.1152235E+00
         -2   -1    0    0    0  501 -0.00000000000E+00  0.00000000000E+00  0.47060345456E+02  0.47060345456E+02  0.00000000000E+00 0.  1.
          2   -1    0    0  501    0  0.00000000000E+00 -0.00000000000E+00 -0.98652478267E+03  0.98652478267E+03  0.00000000000E+00 0. -1.
         23    2    1    2    0    0 -0.15705878259E+03  0.23242157217E+02 -0.72083558711E+03  0.74862652384E+03  0.12502027636E+03 0.  0.
          5    1    3    3  502    0 -0.17603650195E+03  0.17149323493E+02 -0.58234969372E+03  0.60863470579E+03  0.47000000000E+01 0.  1.
         -5    1    3    3    0  502  0.18977719361E+02  0.60928337238E+01 -0.13848589339E+03  0.13999181805E+03  0.47000000000E+01 0.  1.
        -11    1    1    2    0    0  0.75187903978E+02  0.23340630985E+02 -0.54602630724E+02  0.95809463214E+02  0.00000000000E+00 0.  1.
         11    1    1    2    0    0  0.81870878612E+02 -0.46582788202E+02 -0.16402621938E+03  0.18914914107E+03  0.00000000000E+00 0. -1.
<mgrwt>
<rscale>  0 0.19707022E+03</rscale>
<asrwt>0</asrwt>
<pdfrwt beam="2">  1        2 0.15177302E+00 0.20208347E+03</pdfrwt>
<pdfrwt beam="1">  1       -2 0.72400542E-02 0.20208347E+03</pdfrwt>
<totfact> 0.29404299E+03</totfact>
</mgrwt>
</event>
<event>
 7    1  0.8712071E-006  0.1668828E+03  0.7546771E-02  0.1188495E+00
          1   -1    0    0  501    0  0.00000000000E+00  0.00000000000E+00  0.21755451949E+03  0.21755451949E+03  0.00000000000E+00 0. -1.
         -1   -1    0    0    0  501 -0.00000000000E+00 -0.00000000000E+00 -0.13352321164E+03  0.13352321164E+03  0.00000000000E+00 0.  1.
         23    2    1    2    0    0 -0.93996281995E+02 -0.58215184049E+02 -0.29604611453E+02  0.16948833788E+03  0.12500221988E+03 0.  0.
          5    1    3    3  502    0 -0.12248607571E+03 -0.60705331762E+02 -0.31769103817E+02  0.14042557461E+03  0.47000000000E+01 0.  1.
         -5    1    3    3    0  502  0.28489793717E+02  0.24901477130E+01  0.21644923644E+01  0.29062763269E+02  0.47000000000E+01 0.  1.
        -11    1    1    2    0    0  0.53826319027E+02 -0.15094112787E+02  0.30448138895E+02  0.63656845845E+02  0.00000000000E+00 0.  1.
         11    1    1    2    0    0  0.40169962969E+02  0.73309296836E+02  0.83187780409E+02  0.11793254740E+03  0.00000000000E+00 0. -1.
<mgrwt>
<rscale>  0 0.16017853E+03</rscale>
<asrwt>0</asrwt>
<pdfrwt beam="1">  1        1 0.33469926E-01 0.16688278E+03</pdfrwt>
<pdfrwt beam="2">  1       -1 0.20542033E-01 0.16688278E+03</pdfrwt>
<totfact> 0.24914629E+03</totfact>
</mgrwt>
</event>
<event>
 6    1  0.8712071E-006  0.2054258E+03  0.7546771E-02  0.1177988E+00
         -2   -1    0    0    0  501 -0.00000000000E+00  0.00000000000E+00  0.65035905434E+02  0.65035905434E+02  0.00000000000E+00 0.  1.
          2   -1    0    0  501    0  0.00000000000E+00 -0.00000000000E+00 -0.35969867434E+03  0.35969867434E+03  0.00000000000E+00 0. -1.
          5    1    1    2  502    0 -0.14274257423E+02 -0.16879187348E+02 -0.20542673294E+03  0.20666614139E+03  0.47000000000E+01 0. -1.
         -5    1    1    2    0  502  0.40135316477E+02 -0.74491062286E+01  0.39805398866E+02  0.57209200233E+02  0.47000000000E+01 0.  1.
        -11    1    1    2    0    0 -0.10678735278E+02  0.51983596076E+02 -0.11433572758E+03  0.12605153013E+03  0.00000000000E+00 0.  1.
         11    1    1    2    0    0 -0.15182323777E+02 -0.27655302499E+02 -0.14705707252E+02  0.34807708017E+02  0.00000000000E+00 0. -1.
<mgrwt>
<rscale>  0 0.16986590E+03</rscale>
<asrwt>0</asrwt>
<pdfrwt beam="2">  1        2 0.55338258E-01 0.20542583E+03</pdfrwt>
<pdfrwt beam="1">  1       -2 0.10005524E-01 0.20542583E+03</pdfrwt>
<totfact> 0.58278231E+03</totfact>
</mgrwt>
</event>
<event>
 7    1  0.8712071E-006  0.1304774E+03  0.7546771E-02  0.1263228E+00
         -1   -1    0    0    0  501 -0.00000000000E+00  0.00000000000E+00  0.22692004822E+03  0.22692004822E+03  0.00000000000E+00 0.  1.
          1   -1    0    0  501    0  0.00000000000E+00 -0.00000000000E+00 -0.43669764604E+02  0.43669764604E+02  0.00000000000E+00 0. -1.
         23    2    1    2    0    0  0.63755988780E+01  0.36861795709E+02  0.15304167037E+03  0.20111219746E+03  0.12499969142E+03 0.  0.
          5    1    3    3  502    0  0.21116318216E+02  0.14801959999E+02 -0.15485359554E+02  0.30444757764E+02  0.47000000000E+01 0.  1.
         -5    1    3    3    0  502 -0.14740719338E+02  0.22059835711E+02  0.16852702992E+03  0.17066743969E+03  0.47000000000E+01 0.  1.
        -11    1    1    2    0    0  0.10489650301E+02 -0.20836449778E+02 -0.80694271992E+01  0.24684125630E+02  0.00000000000E+00 0. -1.
         11    1    1    2    0    0 -0.16865249179E+02 -0.16025345931E+02  0.38278040452E+02  0.44793489739E+02  0.00000000000E+00 0.  1.
<mgrwt>
<rscale>  0 0.10857684E+03</rscale>
<asrwt>0</asrwt>
<pdfrwt beam="2">  1        1 0.67184255E-02 0.13047744E+03</pdfrwt>
<pdfrwt beam="1">  1       -1 0.34910776E-01 0.13047744E+03</pdfrwt>
<totfact> 0.81705157E+03</totfact>
</mgrwt>
</event>
<event>
 7    1  0.8712071E-006  0.1384763E+03  0.7546771E-02  0.1228035E+00
          2   -1    0    0  501    0  0.00000000000E+00  0.00000000000E+00  0.86438761415E+02  0.86438761415E+02  0.00000000000E+00 0. -1.
         -2   -1    0    0    0  501 -0.00000000000E+00 -0.00000000000E+00 -0.17439376104E+03  0.17439376104E+03  0.00000000000E+00 0.  1.
         23    2    1    2    0    0  0.52690798730E+02 -0.27916929959E+02 -0.39266955590E+02  0.14393603620E+03  0.12498005228E+03 0.  0.
          5    1    3    3  502    0 -0.90397537509E+01  0.39754496147E+02 -0.31793977451E+02  0.51914199540E+02  0.47000000000E+01 0.  1.
         -5    1    3    3    0  502  0.61730552480E+02 -0.67671426106E+02 -0.74729781392E+01  0.92021836664E+02  0.47000000000E+01 0.  1.
        -11    1    1    2    0    0 -0.41739965316E+02 -0.24813038369E+02 -0.75827157589E+01  0.49146812267E+02  0.00000000000E+00 0.  1.
         11    1    1    2    0    0 -0.10950833413E+02  0.52729968328E+02 -0.41105328279E+02  0.67749673986E+02  0.00000000000E+00 0. -1.
<mgrwt>
<rscale>  0 0.12961010E+03</rscale>
<asrwt>0</asrwt>
<pdfrwt beam="1">  1        2 0.13298271E-01 0.13847631E+03</pdfrwt>
<pdfrwt beam="2">  1       -2 0.26829809E-01 0.13847631E+03</pdfrwt>
<totfact> 0.53748091E+03</totfact>
</mgrwt>
</event>
<event>
 7    1  0.8712071E-006  0.1689792E+03  0.7546771E-02  0.1185842E+00
         -1   -1    0    0    0  501 -0.00000000000E+00  0.00000000000E+00  0.43052319837E+02  0.43052319837E+02  0.00000000000E+00 0.  1.
          1   -1    0    0  501    0  0.00000000000E+00 -0.00000000000E+00 -0.57875486676E+03  0.57875486676E+03  0.00000000000E+00 0. -1.
         23    2    1    2    0    0 -0.74670841471E+02 -0.85756733046E+02 -0.25337715153E+03  0.30455534803E+03  0.12499610901E+03 0.  0.
          5    1    3    3  502    0 -0.26023971399E+02 -0.45428550203E+01 -0.18681702424E+03  0.18873413885E+03  0.47000000000E+01 0.  1.
         -5    1    3    3    0  502 -0.48646870072E+02 -0.81213878026E+02 -0.66560127284E+02  0.11582120918E+03  0.47000000000E+01 0.  1.
        -11    1    1    2    0    0 -0.12764674546E+02  0.44862811018E+02 -0.71349041897E+02  0.85242562774E+02  0.00000000000E+00 0.  1.
         11    1    1    2    0    0  0.87435516016E+02  0.40893922029E+02 -0.21097635350E+03  0.23200927580E+03  0.00000000000E+00 0. -1.
<mgrwt>
<rscale>  0 0.16255485E+03</rscale>
<asrwt>0</asrwt>
<pdfrwt beam="2">  1        1 0.89039209E-01 0.16897923E+03</pdfrwt>
<pdfrwt beam="1">  1       -1 0.66234339E-02 0.16897923E+03</pdfrwt>
<totfact> 0.41627215E+03</totfact>
</mgrwt>
</event>
<event>
 7    1  0.8712071E-006  0.2065386E+03  0.7546771E-02  0.1148257E+00
          2   -1    0    0  501    0  0.00000000000E+00  0.00000000000E+00  0.58410873326E+03  0.58410873326E+03  0.00000000000E+00 0. -1.
         -2   -1    0    0    0  501 -0.00000000000E+00 -0.00000000000E+00 -0.76101606039E+02  0.76101606039E+02  0.00000000000E+00 0.  1.
         23    2    1    2    0    0 -0.15226686493E+03  0.62020946854E+02  0.14821976062E+03  0.25421895095E+03  0.12500552619E+03 0.  0.
          5    1    3    3  502    0 -0.99491445803E+02  0.23116184252E+02  0.11978392066E+02  0.10294890790E+03  0.47000000000E+01 0.  1.
         -5    1    3    3    0  502 -0.52775419123E+02  0.38904762602E+02  0.13624136855E+03  0.15127004304E+03  0.47000000000E+01 0.  1.
        -11    1    1    2    0    0  0.83743525725E+02 -0.55290935775E+02  0.11956142668E+03  0.15609292242E+03  0.00000000000E+00 0.  1.
         11    1    1    2    0    0  0.68523339200E+02 -0.67300110790E+01  0.24022593992E+03  0.24989846593E+03  0.00000000000E+00 0. -1.
<mgrwt>
<rscale>  0 0.20176635E+03</rscale>
<asrwt>0</asrwt>
<pdfrwt beam="1">  1        2 0.89862879E-01 0.20653856E+03</pdfrwt>
<pdfrwt beam="2">  1       -2 0.11707940E-01 0.20653856E+03</pdfrwt>
<totfact> 0.26545312E+03</totfact>
</mgrwt>
</event>
<event>
 7    1  0.8712071E-006  0.1265770E+03  0.7546771E-02  0.1248764E+00
         -1   -1    0    0    0  501 -0.00000000000E+00  0.00000000000E+00  0.25174996754E+03  0.25174996754E+03  0.00000000000E+00 0.  1.
          1   -1    0    0  501    0  0.00000000000E+00 -0.00000000000E+00 -0.52470644082E+02  0.52470644082E+02  0.00000000000E+00 0. -1.
         23    2    1    2    0    0 -0.49934026926E+01 -0.19334627953E+02  0.16218517429E+03  0.20573229267E+03  0.12499193404E+03 0.  0.
          5    1    3    3  502    0  0.11273256063E+02  0.50866902501E+02  0.86756553723E+02  0.10130803367E+03  0.47000000000E+01 0.  1.
         -5    1    3    3    0  502 -0.16266658756E+02 -0.70201530454E+02  0.75428620571E+02  0.10442425899E+03  0.47000000000E+01 0.  1.
        -11    1    1    2    0    0  0.10451732926E+02 -0.19982533873E+02  0.51531743726E+02  0.56249986600E+02  0.00000000000E+00 0.  1.
         11    1    1    2    0    0 -0.54583302331E+01  0.39317161826E+02 -0.14437594567E+02  0.42238332352E+02  0.00000000000E+00 0. -1.
<mgrwt>
<rscale>  0 0.11662926E+03</rscale>
<asrwt>0</asrwt>
<pdfrwt beam="2">  1        1 0.80724070E-02 0.12657703E+03</pdfrwt>
<pdfrwt beam="1">  1       -1 0.38730763E-01 0.12657703E+03</pdfrwt>
<totfact> 0.53236926E+03</totfact>
</mgrwt>
</event>
<event>
 7    1  0.8712071E-006  0.2221028E+03  0.7546771E-02  0.1135555E+00
          2   -1    0    0  501    0  0.00000000000E+00  0.00000000000E+00  0.12686808656E+04  0.12686808656E+04  0.00000000000E+00 0. -1.
         -2   -1    0    0    0  501 -0.00000000000E+00 -0.00000000000E+00 -0.41014219482E+02  0.41014219482E+02  0.00000000000E+00 0.  1.
         23    2    1    2    0    0 -0.10915201149E+03 -0.14760734364E+03  0.86399981155E+03  0.89209043683E+03  0.12501033406E+03 0.  0.
          5    1    3    3  502    0 -0.11667225138E+03 -0.14778787882E+03  0.62114879935E+03  0.64907749329E+03  0.47000000000E+01 0. -1.
         -5    1    3    3    0  502  0.75202398833E+01  0.18053518439E+00  0.24285101220E+03  0.24301294354E+03  0.47000000000E+01 0. -1.
        -11    1    1    2    0    0  0.24933223350E+02  0.83255672694E+02  0.23705993804E+03  0.25248878567E+03  0.00000000000E+00 0. -1.
         11    1    1    2    0    0  0.84218788142E+02  0.64351670943E+02  0.12660689654E+03  0.16511586259E+03  0.00000000000E+00 0.  1.
<mgrwt>
<rscale>  0 0.21777223E+03</rscale>
<asrwt>0</asrwt>
<pdfrwt beam="1">  1        2 0.19518164E+00 0.22210284E+03</pdfrwt>
<pdfrwt beam="2">  1       -2 0.63098809E-02 0.22210284E+03</pdfrwt>
<totfact> 0.24978853E+03</totfact>
</mgrwt>
</event>
<event>
 7    1  0.8712071E-006  0.1391828E+03  0.7546771E-02  0.1225651E+00
         -2   -1    0    0    0  501 -0.00000000000E+00  0.00000000000E+00  0.28850207802E+02  0.28850207802E+02  0.00000000000E+00 0.  1.
          2   -1    0    0  501    0  0.00000000000E+00 -0.00000000000E+00 -0.53956066208E+03  0.53956066208E+03  0.00000000000E+00 0. -1.
         23    2    1    2    0    0 -0.59062856897E+02  0.16156860859E+02 -0.26978513455E+03  0.30357183666E+03  0.12498950344E+03 0.  0.
          5    1    3    3  502    0  0.19883986873E+02  0.37875766003E+00  0.15612636560E+01  0.20494973421E+02  0.47000000000E+01 0.  1.
         -5    1    3    3    0  502 -0.78946843770E+02  0.15778103199E+02 -0.27134639820E+03  0.28307686323E+03  0.47000000000E+01 0.  1.
        -11    1    1    2    0    0  0.40797017512E+02  0.36160370802E+02 -0.11565140595E+03  0.12785623470E+03  0.00000000000E+00 0.  1.
         11    1    1    2    0    0  0.18265839384E+02 -0.52317231660E+02 -0.12527391379E+03  0.13698279853E+03  0.00000000000E+00 0. -1.
<mgrwt>
<rscale>  0 0.13122407E+03</rscale>
<asrwt>0</asrwt>
<pdfrwt beam="2">  1        2 0.83009337E-01 0.13918276E+03</pdfrwt>
<pdfrwt beam="1">  1       -2 0.44384933E-02 0.13918276E+03</pdfrwt>
<totfact> 0.12743729E+04</totfact>
</mgrwt>
</event>
<event>
 6    1  0.8712071E-006  0.1319998E+03  0.7546771E-02  0.1247499E+00
         -2   -1    0    0    0  501 -0.00000000000E+00  0.00000000000E+00  0.23133360148E+02  0.23133360148E+02  0.00000000000E+00 0.  1.
          2   -1    0    0  501    0  0.00000000000E+00 -0.00000000000E+00 -0.51292963213E+03  0.51292963213E+03  0.00000000000E+00 0. -1.
          5    1    1    2  502    0  0.13201504576E+02 -0.19261795289E+02 -0.26345159952E+03  0.26452624023E+03  0.47000000000E+01 0. -1.
         -5    1    1    2    0  502 -0.89050061071E+01  0.16907701870E+02  0.93714692954E+01  0.21796420647E+02  0.47000000000E+01 0.  1.
        -11    1    1    2    0    0 -0.29819293028E+02 -0.16357548955E+02 -0.44951293950E+02  0.56368239925E+02  0.00000000000E+00 0.  1.
         11    1    1    2    0    0  0.25522794559E+02  0.18711642375E+02 -0.19076484781E+03  0.19337209148E+03  0.00000000000E+00 0. -1.
<mgrwt>
<rscale>  0 0.11737038E+03</rscale>
<asrwt>0</asrwt>
<pdfrwt beam="2">  1        2 0.78912257E-01 0.13199982E+03</pdfrwt>
<pdfrwt beam="1">  1       -2 0.35589782E-02 0.13199982E+03</pdfrwt>
<totfact> 0.18635239E+04</totfact>
</mgrwt>
</event>
<event>
 7    1  0.8712071E-006  0.1775302E+03  0.7546771E-02  0.1176116E+00
         -1   -1    0    0    0  501 -0.00000000000E+00  0.00000000000E+00  0.29335436461E+02  0.29335436461E+02  0.00000000000E+00 0.  1.
          1   -1    0    0  501    0  0.00000000000E+00 -0.00000000000E+00 -0.10164867326E+04  0.10164867326E+04  0.00000000000E+00 0. -1.
         23    2    1    2    0    0 -0.86532648835E+01  0.12576585298E+03 -0.38460348725E+03  0.42359984392E+03  0.12500022641E+03 0.  0.
          5    1    3    3  502    0  0.37723891800E+02  0.80583998564E+02 -0.11067578830E+03  0.14208480901E+03  0.47000000000E+01 0.  1.
         -5    1    3    3    0  502 -0.46377156683E+02  0.45181854412E+02 -0.27392769895E+03  0.28151503491E+03  0.47000000000E+01 0.  1.
        -11    1    1    2    0    0  0.18946470189E+02 -0.34841828461E+02 -0.59417978387E+02  0.71438210355E+02  0.00000000000E+00 0.  1.
         11    1    1    2    0    0 -0.10293205305E+02 -0.90924024515E+02 -0.54312983051E+03  0.55078411478E+03  0.00000000000E+00 0. -1.
<mgrwt>
<rscale>  0 0.17167185E+03</rscale>
<asrwt>0</asrwt>
<pdfrwt beam="2">  1        1 0.15638257E+00 0.17753024E+03</pdfrwt>
<pdfrwt beam="1">  1       -1 0.45131441E-02 0.17753024E+03</pdfrwt>
<totfact> 0.31612668E+03</totfact>
</mgrwt>
</event>
<event>
 7    1  0.8712071E-006  0.1250364E+03  0.7546771E-02  0.1249720E+00
          3   -1    0    0  501    0  0.00000000000E+00  0.00000000000E+00  0.12954567553E+03  0.12954567553E+03  0.00000000000E+00 0. -1.
         -3   -1    0    0    0  501 -0.00000000000E+00 -0.00000000000E+00 -0.10223959531E+03  0.10223959531E+03  0.00000000000E+00 0.  1.
         23    2    1    2    0    0 -0.17445211092E+01 -0.34071588935E+01 -0.21518907370E+02  0.12687458211E+03  0.12497777453E+03 0.  0.
          5    1    3    3  502    0 -0.22247253065E+02  0.45091398858E+02  0.25097683589E+02  0.56392891763E+02  0.47000000000E+01 0.  1.
         -5    1    3    3    0  502  0.20502731956E+02 -0.48498557752E+02 -0.46616590959E+02  0.70481690348E+02  0.47000000000E+01 0.  1.
        -11    1    1    2    0    0 -0.30629988343E+01 -0.26209773442E+02 -0.17807279528E+02  0.31834468582E+02  0.00000000000E+00 0.  1.
         11    1    1    2    0    0  0.48075199434E+01  0.29616932336E+02  0.66632267119E+02  0.73076220143E+02  0.00000000000E+00 0. -1.
<mgrwt>
<rscale>  0 0.11607285E+03</rscale>
<asrwt>0</asrwt>
<pdfrwt beam="1">  1        3 0.19930104E-01 0.12503638E+03</pdfrwt>
<pdfrwt beam="2">  1       -3 0.15729168E-01 0.12503638E+03</pdfrwt>
<totfact> 0.17468767E+03</totfact>
</mgrwt>
</event>
<event>
 7    1  0.8712071E-006  0.1940990E+03  0.7546771E-02  0.1159484E+00
          2   -1    0    0  501    0  0.00000000000E+00  0.00000000000E+00  0.25926655749E+03  0.25926655749E+03  0.00000000000E+00 0. -1.
         -2   -1    0    0    0  501 -0.00000000000E+00 -0.00000000000E+00 -0.15651613706E+03  0.15651613706E+03  0.00000000000E+00 0.  1.
         23    2    1    2    0    0  0.11036969956E+03  0.99327148743E+02 -0.30666627577E+02  0.19650668234E+03  0.12500832412E+03 0.  0.
          5    1    3    3  502    0  0.18966299518E+02  0.10043676786E+03 -0.11224173518E+02  0.10293365303E+03  0.47000000000E+01 0.  1.
         -5    1    3    3    0  502  0.91403400041E+02 -0.11096191166E+01 -0.19442454059E+02  0.93573029306E+02  0.47000000000E+01 0.  1.
        -11    1    1    2    0    0 -0.58030257730E+02 -0.34934455981E+02  0.70514612064E+01  0.68100294654E+02  0.00000000000E+00 0.  1.
         11    1    1    2    0    0 -0.52339441830E+02 -0.64392692762E+02  0.12636558680E+03  0.15117571756E+03  0.00000000000E+00 0. -1.
<mgrwt>
<rscale>  0 0.18887103E+03</rscale>
<asrwt>0</asrwt>
<pdfrwt beam="1">  1        2 0.39887163E-01 0.19409903E+03</pdfrwt>
<pdfrwt beam="2">  1       -2 0.24079406E-01 0.19409903E+03</pdfrwt>
<totfact> 0.19249209E+03</totfact>
</mgrwt>
</event>
<event>
 7    1  0.8712071E-006  0.1898623E+03  0.7546771E-02  0.1163674E+00
          2   -1    0    0  501    0  0.00000000000E+00  0.00000000000E+00  0.79900645656E+03  0.79900645656E+03  0.00000000000E+00 0.  1.
         -2   -1    0    0    0  501 -0.00000000000E+00 -0.00000000000E+00 -0.40977216679E+02  0.40977216679E+02  0.00000000000E+00 0. -1.
         23    2    1    2    0    0 -0.83269173508E+01  0.14271829925E+03  0.45777501142E+03  0.49558616573E+03  0.12493932965E+03 0.  0.
          5    1    3    3  502    0  0.12097633168E+02  0.23108773858E+02  0.27423031630E+03  0.27550812063E+03  0.47000000000E+01 0. -1.
         -5    1    3    3    0  502 -0.20424550518E+02  0.11960952539E+03  0.18354469512E+03  0.22007804510E+03  0.47000000000E+01 0. -1.
        -11    1    1    2    0    0  0.48479197377E+02 -0.65686887059E+02  0.15353178075E+03  0.17388791623E+03  0.00000000000E+00 0.  1.
         11    1    1    2    0    0 -0.40152280026E+02 -0.77031412190E+02  0.14672244772E+03  0.17050959128E+03  0.00000000000E+00 0. -1.
<mgrwt>
<rscale>  0 0.18433285E+03</rscale>
<asrwt>0</asrwt>
<pdfrwt beam="1">  1        2 0.12292406E+00 0.18986228E+03</pdfrwt>
<pdfrwt beam="2">  1       -2 0.63041877E-02 0.18986228E+03</pdfrwt>
<totfact> 0.48001995E+03</totfact>
</mgrwt>
</event>
<event>
 6    1  0.8712071E-006  0.1618645E+03  0.7546771E-02  0.1212404E+00
         -1   -1    0    0    0  501 -0.00000000000E+00  0.00000000000E+00  0.83330552130E+02  0.83330552130E+02  0.00000000000E+00 0.  1.
          1   -1    0    0  501    0  0.00000000000E+00 -0.00000000000E+00 -0.21481522935E+03  0.21481522935E+03  0.00000000000E+00 0. -1.
          5    1    1    2  502    0 -0.66434580831E+02 -0.34436440692E+02  0.20657269920E+01  0.75005194525E+02  0.47000000000E+01 0. -1.
         -5    1    1    2    0  502  0.75995189094E+02  0.30998312269E+02 -0.39141763439E+02  0.91051259047E+02  0.47000000000E+01 0.  1.
        -11    1    1    2    0    0 -0.42281114759E+02 -0.18118412785E+02 -0.75908233509E+02  0.88758264188E+02  0.00000000000E+00 0. -1.
         11    1    1    2    0    0  0.32720506496E+02  0.21556541207E+02 -0.18500407265E+02  0.43331063720E+02  0.00000000000E+00 0.  1.
<mgrwt>
<rscale>  0 0.14068947E+03</rscale>
<asrwt>0</asrwt>
<pdfrwt beam="2">  1        1 0.33048497E-01 0.16186449E+03</pdfrwt>
<pdfrwt beam="1">  1       -1 0.12820085E-01 0.16186449E+03</pdfrwt>
<totfact> 0.53367630E+03</totfact>
</mgrwt>
</event>
<event>
 7    1  0.8712071E-006  0.1657269E+03  0.7546771E-02  0.1188146E+00
          1   -1    0    0  501    0  0.00000000000E+00  0.00000000000E+00  0.29137872252E+03  0.29137872252E+03  0.00000000000E+00 0. -1.
         -1   -1    0    0    0  501 -0.00000000000E+00 -0.00000000000E+00 -0.10161642206E+03  0.10161642206E+03  0.00000000000E+00 0.  1.
         23    2    1    2    0    0  0.10800945590E+03  0.13198155647E+02  0.16444217728E+02  0.16654077041E+03  0.12500072814E+03 0.  0.
          5    1    3    3  502    0  0.42126186336E+02  0.67467018341E+02  0.14793112040E+02  0.81039128221E+02  0.47000000000E+01 0.  1.
         -5    1    3    3    0  502  0.65883269563E+02 -0.54268862694E+02  0.16511056885E+01  0.85501642185E+02  0.47000000000E+01 0.  1.
        -11    1    1    2    0    0 -0.82836610798E+02  0.43896587856E+01  0.44717363402E+02  0.94238080320E+02  0.00000000000E+00 0.  1.
         11    1    1    2    0    0 -0.25172845101E+02 -0.17587814433E+02  0.12860071933E+03  0.13221629385E+03  0.00000000000E+00 0. -1.
<mgrwt>
<rscale>  0 0.16048902E+03</rscale>
<asrwt>0</asrwt>
<pdfrwt beam="1">  1        1 0.44827495E-01 0.16572693E+03</pdfrwt>
<pdfrwt beam="2">  1       -1 0.15633296E-01 0.16572693E+03</pdfrwt>
<totfact> 0.26788263E+03</totfact>
</mgrwt>
</event>
<event>
 7    1  0.8712071E-006  0.1456482E+03  0.7546771E-02  0.1216499E+00
          2   -1    0    0  501    0  0.00000000000E+00  0.00000000000E+00  0.14064937385E+03  0.14064937385E+03  0.00000000000E+00 0. -1.
         -2   -1    0    0    0  501 -0.00000000000E+00 -0.00000000000E+00 -0.16256356305E+03  0.16256356305E+03  0.00000000000E+00 0.  1.
         23    2    1    2    0    0 -0.56587657499E+02  0.48847173375E+02 -0.87315896502E+02  0.16981599306E+03  0.12500078556E+03 0.  0.
          5    1    3    3  502    0 -0.59459868257E+02 -0.63215117967E+01 -0.96496340000E+02  0.11361809309E+03  0.47000000000E+01 0.  1.
         -5    1    3    3    0  502  0.28722107580E+01  0.55168685172E+02  0.91804434980E+01  0.56197899970E+02  0.47000000000E+01 0.  1.
        -11    1    1    2    0    0  0.76874359281E+02 -0.18287241367E+02  0.50663353229E+02  0.93866211557E+02  0.00000000000E+00 0.  1.
         11    1    1    2    0    0 -0.20286701782E+02 -0.30559932008E+02  0.14738354069E+02  0.39530732275E+02  0.00000000000E+00 0. -1.
<mgrwt>
<rscale>  0 0.13767034E+03</rscale>
<asrwt>0</asrwt>
<pdfrwt beam="1">  1        2 0.21638365E-01 0.14564823E+03</pdfrwt>
<pdfrwt beam="2">  1       -2 0.25009779E-01 0.14564823E+03</pdfrwt>
<totfact> 0.34760971E+03</totfact>
</mgrwt>
</event>
<event>
 7    1  0.8712071E-006  0.1461925E+03  0.7546771E-02  0.1214951E+00
         -2   -1    0    0    0  501 -0.00000000000E+00  0.00000000000E+00  0.56864057313E+02  0.56864057313E+02  0.00000000000E+00 0.  1.
          2   -1    0    0  501    0  0.00000000000E+00 -0.00000000000E+00 -0.51261304791E+03  0.51261304791E+03  0.00000000000E+00 0. -1.
         23    2    1    2    0    0  0.93876043195E+01  0.75229978463E+02 -0.63061059729E+02  0.15921351394E+03  0.12499827595E+03 0.  0.
          5    1    3    3  502    0  0.44812614158E+02  0.18989172975E+01  0.13769570474E+02  0.47153656757E+02  0.47000000000E+01 0. -1.
         -5    1    3    3    0  502 -0.35425009838E+02  0.73331061166E+02 -0.76830630203E+02  0.11205985718E+03  0.47000000000E+01 0. -1.
        -11    1    1    2    0    0 -0.42446329261E+02 -0.10784854501E+02 -0.10884707236E+03  0.11732727354E+03  0.00000000000E+00 0. -1.
         11    1    1    2    0    0  0.33058724942E+02 -0.64445123962E+02 -0.28384085850E+03  0.29293631774E+03  0.00000000000E+00 0.  1.
<mgrwt>
<rscale>  0 0.13880143E+03</rscale>
<asrwt>0</asrwt>
<pdfrwt beam="2">  1        2 0.78863549E-01 0.14619250E+03</pdfrwt>
<pdfrwt beam="1">  1       -2 0.87483162E-02 0.14619250E+03</pdfrwt>
<totfact> 0.48142027E+03</totfact>
</mgrwt>
</event>
<event>
 7    1  0.8712071E-006  0.1407920E+03  0.7546771E-02  0.1222503E+00
         -1   -1    0    0    0  501 -0.00000000000E+00  0.00000000000E+00  0.17248203094E+03  0.17248203094E+03  0.00000000000E+00 0.  1.
          1   -1    0    0  501    0  0.00000000000E+00 -0.00000000000E+00 -0.11733200171E+03  0.11733200171E+03  0.00000000000E+00 0. -1.
         23    2    1    2    0    0 -0.62883118202E+02 -0.15553409997E+02  0.94683088349E+02  0.16966815039E+03  0.12500479559E+03 0.  0.
          5    1    3    3  502    0 -0.94501730326E+02  0.15361579391E+01  0.37136098686E+02  0.10165685733E+03  0.47000000000E+01 0. -1.
         -5    1    3    3    0  502  0.31618612124E+02 -0.17089567936E+02  0.57546989664E+02  0.68011293064E+02  0.47000000000E+01 0. -1.
        -11    1    1    2    0    0  0.49914207228E+02 -0.24071621730E+02 -0.52649041686E+02  0.76438162238E+02  0.00000000000E+00 0.  1.
         11    1    1    2    0    0  0.12968910974E+02  0.39625031726E+02  0.13115982567E+02  0.43707720026E+02  0.00000000000E+00 0. -1.
<mgrwt>
<rscale>  0 0.13339514E+03</rscale>
<asrwt>0</asrwt>
<pdfrwt beam="2">  1        1 0.18051077E-01 0.14079202E+03</pdfrwt>
<pdfrwt beam="1">  1       -1 0.26535697E-01 0.14079202E+03</pdfrwt>
<totfact> 0.35438946E+03</totfact>
</mgrwt>
</event>
<event>
 7    1  0.8712071E-006  0.1466376E+03  0.7546771E-02  0.1214258E+00
          2   -1    0    0  501    0  0.00000000000E+00  0.00000000000E+00  0.10871778952E+03  0.10871778952E+03  0.00000000000E+00 0. -1.
         -2   -1    0    0    0  501 -0.00000000000E+00 -0.00000000000E+00 -0.24778989768E+03  0.24778989768E+03  0.00000000000E+00 0.  1.
         23    2    1    2    0    0 -0.25816024754E+02  0.72188907104E+02 -0.17822701649E+03  0.23079741488E+03  0.12499948746E+03 0.  0.
          5    1    3    3  502    0  0.10183669347E+02  0.89449476483E+02 -0.16579529369E+03  0.18871959457E+03  0.47000000000E+01 0.  1.
         -5    1    3    3    0  502 -0.35999694102E+02 -0.17260569379E+02 -0.12431722808E+02  0.42077820317E+02  0.47000000000E+01 0.  1.
        -11    1    1    2    0    0  0.31602210600E+02 -0.37008328411E+02  0.65341966808E+02  0.81473239244E+02  0.00000000000E+00 0. -1.
         11    1    1    2    0    0 -0.57861858452E+01 -0.35180578693E+02 -0.26187058476E+02  0.44237033077E+02  0.00000000000E+00 0.  1.
<mgrwt>
<rscale>  0 0.13931145E+03</rscale>
<asrwt>0</asrwt>
<pdfrwt beam="1">  1        2 0.16725814E-01 0.14663757E+03</pdfrwt>
<pdfrwt beam="2">  1       -2 0.38121522E-01 0.14663757E+03</pdfrwt>
<totfact> 0.21738879E+03</totfact>
</mgrwt>
</event>
<event>
 7    1  0.8712071E-006  0.2140116E+03  0.7546771E-02  0.1141881E+00
         -2   -1    0    0    0  501 -0.00000000000E+00  0.00000000000E+00  0.14866697997E+03  0.14866697997E+03  0.00000000000E+00 0.  1.
          2   -1    0    0  501    0  0.00000000000E+00 -0.00000000000E+00 -0.45239037648E+03  0.45239037648E+03  0.00000000000E+00 0. -1.
         23    2    1    2    0    0 -0.17198728963E+03 -0.24327134750E+02  0.27448257950E+02  0.21576465313E+03  0.12501816427E+03 0.  0.
          5    1    3    3  502    0 -0.14518079746E+03 -0.67837377347E+02  0.68455787202E+01  0.16046284823E+03  0.47000000000E+01 0.  1.
         -5    1    3    3    0  502 -0.26806492172E+02  0.43510242597E+02  0.20602679230E+02  0.55301804897E+02  0.47000000000E+01 0.  1.
        -11    1    1    2    0    0  0.10370299441E+03 -0.12858572936E+02 -0.25867739961E+03  0.27898682947E+03  0.00000000000E+00 0. -1.
         11    1    1    2    0    0  0.68284295217E+02  0.37185707686E+02 -0.72494254846E+02  0.10630587385E+03  0.00000000000E+00 0.  1.
<mgrwt>
<rscale>  0 0.20960331E+03</rscale>
<asrwt>0</asrwt>
<pdfrwt beam="2">  1        2 0.69598519E-01 0.21401163E+03</pdfrwt>
<pdfrwt beam="1">  1       -2 0.22871843E-01 0.21401163E+03</pdfrwt>
<totfact> 0.11571206E+03</totfact>
</mgrwt>
</event>
<event>
 7    1  0.8712071E-006  0.1279087E+03  0.7546771E-02  0.1244404E+00
          2   -1    0    0  501    0  0.00000000000E+00  0.00000000000E+00  0.23742550426E+03  0.23742550426E+03  0.00000000000E+00 0. -1.
         -2   -1    0    0    0  501 -0.00000000000E+00 -0.00000000000E+00 -0.69704420554E+02  0.69704420554E+02  0.00000000000E+00 0.  1.
         23    2    1    2    0    0 -0.22204850355E+02 -0.15572235509E+02  0.18241349778E+02  0.12920290653E+03  0.12500037726E+03 0.  0.
          5    1    3    3  502    0 -0.59519063880E+02  0.33150818003E+01 -0.28556154786E+02  0.66265018740E+02  0.47000000000E+01 0.  1.
         -5    1    3    3    0  502  0.37314213525E+02 -0.18887317309E+02  0.46797504564E+02  0.62937887791E+02  0.47000000000E+01 0.  1.
        -11    1    1    2    0    0 -0.13949560305E+02 -0.26627206788E+02  0.17636839791E+02  0.34851922355E+02  0.00000000000E+00 0.  1.
         11    1    1    2    0    0  0.36154410660E+02  0.42199442297E+02  0.13184289414E+03  0.14307509593E+03  0.00000000000E+00 0. -1.
<mgrwt>
<rscale>  0 0.11921097E+03</rscale>
<asrwt>0</asrwt>
<pdfrwt beam="1">  1        2 0.36527000E-01 0.12790873E+03</pdfrwt>
<pdfrwt beam="2">  1       -2 0.10723757E-01 0.12790873E+03</pdfrwt>
<totfact> 0.79058441E+03</totfact>
</mgrwt>
</event>
<event>
 7    1  0.8712071E-006  0.1200413E+03  0.7546771E-02  0.1247243E+00
          1   -1    0    0  501    0  0.00000000000E+00  0.00000000000E+00  0.34441005527E+02  0.34441005527E+02  0.00000000000E+00 0. -1.
         -1   -1    0    0    0  501 -0.00000000000E+00 -0.00000000000E+00 -0.62946417376E+03  0.62946417376E+03  0.00000000000E+00 0.  1.
         23    2    1    2    0    0 -0.20900283126E+02  0.37440029930E+02 -0.51196787765E+03  0.52585266700E+03  0.11212199596E+03 0.  0.
          5    1    3    3  502    0  0.34669166661E+02  0.41140007311E+02 -0.14652440750E+03  0.15615999268E+03  0.47000000000E+01 0. -1.
         -5    1    3    3    0  502 -0.55569449787E+02 -0.36999773809E+01 -0.36544347014E+03  0.36969267433E+03  0.47000000000E+01 0.  1.
        -11    1    1    2    0    0 -0.39440886199E+02 -0.13991417891E+01 -0.36423475692E+02  0.53704847858E+02  0.00000000000E+00 0.  1.
         11    1    1    2    0    0  0.60341169325E+02 -0.36040888141E+02 -0.46631814897E+02  0.84347664426E+02  0.00000000000E+00 0. -1.
<mgrwt>
<rscale>  0 0.11752119E+03</rscale>
<asrwt>0</asrwt>
<pdfrwt beam="1">  1        1 0.52986164E-02 0.12004132E+03</pdfrwt>
<pdfrwt beam="2">  1       -1 0.96840639E-01 0.12004132E+03</pdfrwt>
<totfact> 0.16120467E+03</totfact>
</mgrwt>
</event>
<event>
 7    1  0.8712071E-006  0.1352585E+03  0.7546771E-02  0.1231790E+00
          2   -1    0    0  501    0  0.00000000000E+00  0.00000000000E+00  0.20844836945E+02  0.20844836945E+02  0.00000000000E+00 0. -1.
         -2   -1    0    0    0  501 -0.00000000000E+00 -0.00000000000E+00 -0.98468559179E+03  0.98468559179E+03  0.00000000000E+00 0.  1.
         23    2    1    2    0    0  0.39192020642E+02  0.33609408571E+02 -0.79498161469E+03  0.80640599779E+03  0.12501703381E+03 0.  0.
          5    1    3    3  502    0 -0.37327093526E+02  0.42058022451E+01 -0.10615704905E+03  0.11270496771E+03  0.47000000000E+01 0.  1.
         -5    1    3    3    0  502  0.76519114168E+02  0.29403606326E+02 -0.68882456564E+03  0.69370103008E+03  0.47000000000E+01 0.  1.
        -11    1    1    2    0    0 -0.67113739004E+02 -0.80280280221E+01 -0.11171751804E+03  0.13057376090E+03  0.00000000000E+00 0.  1.
         11    1    1    2    0    0  0.27921718362E+02 -0.25581380549E+02 -0.57141622115E+02  0.68550670055E+02  0.00000000000E+00 0. -1.
<mgrwt>
<rscale>  0 0.12712182E+03</rscale>
<asrwt>0</asrwt>
<pdfrwt beam="1">  1        2 0.32068979E-02 0.13525851E+03</pdfrwt>
<pdfrwt beam="2">  1       -2 0.15149009E+00 0.13525851E+03</pdfrwt>
<totfact> 0.85772091E+02</totfact>
</mgrwt>
</event>
<event>
 7    1  0.8712071E-006  0.1822951E+03  0.7546771E-02  0.1171089E+00
         -2   -1    0    0    0  501 -0.00000000000E+00  0.00000000000E+00  0.20068770710E+03  0.20068770710E+03  0.00000000000E+00 0.  1.
          2   -1    0    0  501    0  0.00000000000E+00 -0.00000000000E+00 -0.16155171905E+03  0.16155171905E+03  0.00000000000E+00 0. -1.
         23    2    1    2    0    0  0.13261784307E+03  0.42373759325E+01  0.75727098654E+02  0.19739830906E+03  0.12500420511E+03 0.  0.
          5    1    3    3  502    0  0.55065957694E+02  0.56777629751E+02  0.65966718418E+02  0.10310022733E+03  0.47000000000E+01 0.  1.
         -5    1    3    3    0  502  0.77551885371E+02 -0.52540253818E+02  0.97603802357E+01  0.94298081732E+02  0.47000000000E+01 0.  1.
        -11    1    1    2    0    0 -0.62538687358E+02 -0.45763806890E+02 -0.56370439957E+01  0.77699354583E+02  0.00000000000E+00 0.  1.
         11    1    1    2    0    0 -0.70079155707E+02  0.41526430957E+02 -0.30954066602E+02  0.87141762501E+02  0.00000000000E+00 0. -1.
<mgrwt>
<rscale>  0 0.17664629E+03</rscale>
<asrwt>0</asrwt>
<pdfrwt beam="2">  1        2 0.24854111E-01 0.18229509E+03</pdfrwt>
<pdfrwt beam="1">  1       -2 0.30875032E-01 0.18229509E+03</pdfrwt>
<totfact> 0.20660737E+03</totfact>
</mgrwt>
</event>
<event>
 7    1  0.8712071E-006  0.1159552E+03  0.7546771E-02  0.1257068E+00
         -2   -1    0    0    0  501 -0.00000000000E+00  0.00000000000E+00  0.68246059456E+02  0.68246059456E+02  0.00000000000E+00 0.  1.
          2   -1    0    0  501    0  0.00000000000E+00 -0.00000000000E+00 -0.21786250715E+03  0.21786250715E+03  0.00000000000E+00 0. -1.
         23    2    1    2    0    0 -0.31880961599E+02 -0.15049672931E+02 -0.13346792517E+02  0.11672077738E+03  0.11046589805E+03 0.  0.
          5    1    3    3  502    0  0.94839978316E+01 -0.54309324132E+02 -0.20596707999E+02  0.59040353005E+02  0.47000000000E+01 0. -1.
         -5    1    3    3    0  502 -0.41364959430E+02  0.39259651201E+02  0.72499154814E+01  0.57680424371E+02  0.47000000000E+01 0.  1.
        -11    1    1    2    0    0  0.54434092303E+02  0.79384656007E+01 -0.13491789297E+03  0.14570150131E+03  0.00000000000E+00 0. -1.
         11    1    1    2    0    0 -0.22553130705E+02  0.71112073304E+01 -0.13517622072E+01  0.23686287918E+02  0.00000000000E+00 0.  1.
<mgrwt>
<rscale>  0 0.11191292E+03</rscale>
<asrwt>0</asrwt>
<pdfrwt beam="2">  1        2 0.33517309E-01 0.11595518E+03</pdfrwt>
<pdfrwt beam="1">  1       -2 0.10499394E-01 0.11595518E+03</pdfrwt>
<totfact> 0.88932005E+03</totfact>
</mgrwt>
</event>
<event>
 7    1  0.8712071E-006  0.1652034E+03  0.7546771E-02  0.1189574E+00
          2   -1    0    0  501    0  0.00000000000E+00  0.00000000000E+00  0.11535512948E+04  0.11535512948E+04  0.00000000000E+00 0. -1.
         -2   -1    0    0    0  501 -0.00000000000E+00 -0.00000000000E+00 -0.20692934114E+02  0.20692934114E+02  0.00000000000E+00 0.  1.
         23    2    1    2    0    0 -0.67719720373E+02  0.84168384893E+02  0.55537666238E+03  0.57942679785E+03  0.12498759701E+03 0.  0.
          5    1    3    3  502    0 -0.60154147921E+02  0.68780224105E+00  0.10340000993E+03  0.11971903206E+03  0.47000000000E+01 0.  1.
         -5    1    3    3    0  502 -0.75655724527E+01  0.83480582652E+02  0.45197665245E+03  0.45970776579E+03  0.47000000000E+01 0.  1.
        -11    1    1    2    0    0  0.82821528644E+02 -0.59941072617E+02  0.52697403632E+03  0.53679975107E+03  0.00000000000E+00 0. -1.
         11    1    1    2    0    0 -0.15101808271E+02 -0.24227312276E+02  0.50507662019E+02  0.58017680027E+02  0.00000000000E+00 0.  1.
<mgrwt>
<rscale>  0 0.15922523E+03</rscale>
<asrwt>0</asrwt>
<pdfrwt beam="1">  1        2 0.17746938E+00 0.16520344E+03</pdfrwt>
<pdfrwt beam="2">  1       -2 0.31835292E-02 0.16520344E+03</pdfrwt>
<totfact> 0.80703064E+03</totfact>
</mgrwt>
</event>
<event>
 7    1  0.8712071E-006  0.1557948E+03  0.7546771E-02  0.1201903E+00
         -2   -1    0    0    0  501 -0.00000000000E+00  0.00000000000E+00  0.11031079654E+03  0.11031079654E+03  0.00000000000E+00 0.  1.
          2   -1    0    0  501    0  0.00000000000E+00 -0.00000000000E+00 -0.21238365848E+03  0.21238365848E+03  0.00000000000E+00 0. -1.
         23    2    1    2    0    0  0.92145598213E+02 -0.12499805854E+02  0.28147812644E+01  0.15582018793E+03  0.12499980622E+03 0.  0.
          5    1    3    3  502    0  0.99747593342E+00  0.38477637629E+02  0.28556371798E+02  0.48156826369E+02  0.47000000000E+01 0.  1.
         -5    1    3    3    0  502  0.91148122280E+02 -0.50977443483E+02 -0.25741590533E+02  0.10766336156E+03  0.47000000000E+01 0.  1.
        -11    1    1    2    0    0 -0.14405417725E+02 -0.31769150735E+02 -0.96155555915E+01  0.36183613799E+02  0.00000000000E+00 0.  1.
         11    1    1    2    0    0 -0.77740180488E+02  0.44268956588E+02 -0.95272087608E+02  0.13069065329E+03  0.00000000000E+00 0. -1.
<mgrwt>
<rscale>  0 0.14884199E+03</rscale>
<asrwt>0</asrwt>
<pdfrwt beam="2">  1        2 0.32674409E-01 0.15579476E+03</pdfrwt>
<pdfrwt beam="1">  1       -2 0.16970892E-01 0.15579476E+03</pdfrwt>
<totfact> 0.42927059E+03</totfact>
</mgrwt>
</event>
<event>
 7    1  0.8712071E-006  0.1139512E+03  0.7546771E-02  0.1262716E+00
         -2   -1    0    0    0  501 -0.00000000000E+00  0.00000000000E+00  0.39837922790E+02  0.39837922790E+02  0.00000000000E+00 0.  1.
          2   -1    0    0  501    0  0.00000000000E+00 -0.00000000000E+00 -0.35865900571E+03  0.35865900571E+03  0.00000000000E+00 0. -1.
         23    2    1    2    0    0 -0.21826994758E+02 -0.83060951517E+01 -0.73832390019E+02  0.13577959420E+03  0.11153236064E+03 0.  0.
          5    1    3    3  502    0  0.93594438120E+01 -0.53929565342E+02 -0.19935763283E+02  0.58442466274E+02  0.47000000000E+01 0. -1.
         -5    1    3    3    0  502 -0.31186438570E+02  0.45623470190E+02 -0.53896626736E+02  0.77337127930E+02  0.47000000000E+01 0.  1.
        -11    1    1    2    0    0  0.41470034271E+02 -0.28402014387E+02 -0.16579644014E+03  0.17324808145E+03  0.00000000000E+00 0. -1.
         11    1    1    2    0    0 -0.19643039513E+02  0.36708109539E+02 -0.79192252761E+02  0.89469252845E+02  0.00000000000E+00 0.  1.
<mgrwt>
<rscale>  0 0.10884918E+03</rscale>
<asrwt>0</asrwt>
<pdfrwt beam="2">  1        2 0.55178310E-01 0.11395120E+03</pdfrwt>
<pdfrwt beam="1">  1       -2 0.61289110E-02 0.11395120E+03</pdfrwt>
<totfact> 0.12005205E+04</totfact>
</mgrwt>
</event>
<event>
 7    1  0.8712071E-006  0.1311094E+03  0.7546771E-02  0.1239235E+00
          3   -1    0    0  501    0  0.00000000000E+00  0.00000000000E+00  0.42458696799E+02  0.42458696799E+02  0.00000000000E+00 0. -1.
         -3   -1    0    0    0  501 -0.00000000000E+00 -0.00000000000E+00 -0.33481819825E+03  0.33481819825E+03  0.00000000000E+00 0.  1.
         23    2    1    2    0    0 -0.30959607455E+02  0.24618493551E+02 -0.21250529050E+03  0.24969617762E+03  0.12500046044E+03 0.  0.
          5    1    3    3  502    0  0.44723503219E+02 -0.41261237884E+01 -0.11058484858E+03  0.11945005389E+03  0.47000000000E+01 0. -1.
         -5    1    3    3    0  502 -0.75683110674E+02  0.28744617339E+02 -0.10192044192E+03  0.13024612374E+03  0.47000000000E+01 0. -1.
        -11    1    1    2    0    0  0.28167962117E+02 -0.43388559731E+02 -0.91646829735E+02  0.10523850344E+03  0.00000000000E+00 0.  1.
         11    1    1    2    0    0  0.27916453382E+01  0.18770066180E+02  0.11792618786E+02  0.22342213989E+02  0.00000000000E+00 0. -1.
<mgrwt>
<rscale>  0 0.12237160E+03</rscale>
<asrwt>0</asrwt>
<pdfrwt beam="1">  1        3 0.65321070E-02 0.13110943E+03</pdfrwt>
<pdfrwt beam="2">  1       -3 0.51510494E-01 0.13110943E+03</pdfrwt>
<totfact> 0.12780293E+03</totfact>
</mgrwt>
</event>
<event>
 7    1  0.8712071E-006  0.1266689E+03  0.7546771E-02  0.1247900E+00
         -2   -1    0    0    0  501 -0.00000000000E+00  0.00000000000E+00  0.48906679835E+03  0.48906679835E+03  0.00000000000E+00 0.  1.
          2   -1    0    0  501    0  0.00000000000E+00 -0.00000000000E+00 -0.25084455947E+02  0.25084455947E+02  0.00000000000E+00 0. -1.
         23    2    1    2    0    0 -0.33564830375E+01 -0.58229109105E+01  0.30321388837E+03  0.32860868556E+03  0.12649044964E+03 0.  0.
          5    1    3    3  502    0 -0.62854084513E+02  0.11215164447E+02  0.13820239952E+03  0.15231023960E+03  0.47000000000E+01 0. -1.
         -5    1    3    3    0  502  0.59497601475E+02 -0.17038075357E+02  0.16501148886E+03  0.17629844596E+03  0.47000000000E+01 0.  1.
        -11    1    1    2    0    0 -0.25114241889E+02  0.32734550749E+02  0.12794508546E+03  0.13443296044E+03  0.00000000000E+00 0.  1.
         11    1    1    2    0    0  0.28470724927E+02 -0.26911639839E+02  0.32823368565E+02  0.51109608301E+02  0.00000000000E+00 0. -1.
<mgrwt>
<rscale>  0 0.11713469E+03</rscale>
<asrwt>0</asrwt>
<pdfrwt beam="2">  1        2 0.38591474E-02 0.12666888E+03</pdfrwt>
<pdfrwt beam="1">  1       -2 0.75241039E-01 0.12666888E+03</pdfrwt>
<totfact> 0.34368907E+03</totfact>
</mgrwt>
</event>
<event>
 7    1  0.8712071E-006  0.1175343E+03  0.7546771E-02  0.1258169E+00
          1   -1    0    0  501    0  0.00000000000E+00  0.00000000000E+00  0.37736684307E+02  0.37736684307E+02  0.00000000000E+00 0. -1.
         -1   -1    0    0    0  501 -0.00000000000E+00 -0.00000000000E+00 -0.30803815760E+03  0.30803815760E+03  0.00000000000E+00 0.  1.
         23    2    1    2    0    0  0.64136834572E+01  0.21517632428E+02 -0.18045000209E+03  0.21535204769E+03  0.11536965524E+03 0.  0.
          5    1    3    3  502    0 -0.28137922252E+02 -0.23328728888E+02 -0.14212593148E+03  0.14682589233E+03  0.47000000000E+01 0. -1.
         -5    1    3    3    0  502  0.34551605709E+02  0.44846361315E+02 -0.38324070613E+02  0.68526155362E+02  0.47000000000E+01 0. -1.
        -11    1    1    2    0    0 -0.47031313991E+02 -0.23940316568E+02 -0.40895272813E+02  0.66764560895E+02  0.00000000000E+00 0. -1.
         11    1    1    2    0    0  0.40617630534E+02  0.24226841400E+01 -0.48956198392E+02  0.63658233322E+02  0.00000000000E+00 0.  1.
<mgrwt>
<rscale>  0 0.11130668E+03</rscale>
<asrwt>0</asrwt>
<pdfrwt beam="1">  1        1 0.58056436E-02 0.11753426E+03</pdfrwt>
<pdfrwt beam="2">  1       -1 0.47390487E-01 0.11753426E+03</pdfrwt>
<totfact> 0.57743985E+03</totfact>
</mgrwt>
</event>
<event>
 6    1  0.8712071E-006  0.3824063E+03  0.7546771E-02  0.1050048E+00
         -2   -1    0    0    0  501 -0.00000000000E+00  0.00000000000E+00  0.11918418658E+03  0.11918418658E+03  0.00000000000E+00 0.  1.
          2   -1    0    0  501    0  0.00000000000E+00 -0.00000000000E+00 -0.30674066758E+03  0.30674066758E+03  0.00000000000E+00 0. -1.
          5    1    1    2  502    0  0.54626328081E+02  0.49573823967E+02  0.59920248377E+02  0.95153170772E+02  0.47000000000E+01 0. -1.
         -5    1    1    2    0  502 -0.24066696171E+02 -0.62929187696E+01 -0.38761425394E+02  0.46296271878E+02  0.47000000000E+01 0.  1.
        -11    1    1    2    0    0 -0.57220983921E+02 -0.91570386630E+02 -0.55034023279E+02  0.12119455609E+03  0.00000000000E+00 0.  1.
         11    1    1    2    0    0  0.26661352011E+02  0.48289481432E+02 -0.15368128071E+03  0.16328085542E+03  0.00000000000E+00 0. -1.
<mgrwt>
<rscale>  0 0.38240626E+03</rscale>
<asrwt>0</asrwt>
<pdfrwt beam="2">  1        2 0.47190872E-01 0.38240626E+03</pdfrwt>
<pdfrwt beam="1">  1       -2 0.18336029E-01 0.38240626E+03</pdfrwt>
<totfact> 0.26186962E+03</totfact>
</mgrwt>
</event>
<event>
 7    1  0.8712071E-006  0.1412689E+03  0.7546771E-02  0.1223272E+00
          1   -1    0    0  501    0  0.00000000000E+00  0.00000000000E+00  0.74890889210E+03  0.74890889210E+03  0.00000000000E+00 0. -1.
         -1   -1    0    0    0  501 -0.00000000000E+00 -0.00000000000E+00 -0.22645361389E+02  0.22645361389E+02  0.00000000000E+00 0.  1.
         23    2    1    2    0    0 -0.12632104154E+02 -0.64586579520E+02  0.30657808857E+03  0.33756041865E+03  0.12500366210E+03 0.  0.
          5    1    3    3  502    0 -0.45157637860E+02 -0.57975832859E+01  0.34625516410E+02  0.57391990867E+02  0.47000000000E+01 0. -1.
         -5    1    3    3    0  502  0.32525533705E+02 -0.58788996234E+02  0.27195257216E+03  0.28016842778E+03  0.47000000000E+01 0. -1.
        -11    1    1    2    0    0 -0.29875884087E+02  0.59478607602E+02  0.28490750774E+03  0.29257915370E+03  0.00000000000E+00 0. -1.
         11    1    1    2    0    0  0.42507988241E+02  0.51079719173E+01  0.13477793440E+03  0.14141468115E+03  0.00000000000E+00 0.  1.
<mgrwt>
<rscale>  0 0.13286044E+03</rscale>
<asrwt>0</asrwt>
<pdfrwt beam="1">  1        1 0.11521673E+00 0.14126893E+03</pdfrwt>
<pdfrwt beam="2">  1       -1 0.34839023E-02 0.14126893E+03</pdfrwt>
<totfact> 0.74411061E+03</totfact>
</mgrwt>
</event>
<event>
 7    1  0.8712071E-006  0.2249368E+03  0.7546771E-02  0.1133840E+00
          2   -1    0    0  501    0  0.00000000000E+00  0.00000000000E+00  0.49012353939E+03  0.49012353939E+03  0.00000000000E+00 0. -1.
         -2   -1    0    0    0  501 -0.00000000000E+00 -0.00000000000E+00 -0.99974243806E+02  0.99974243806E+02  0.00000000000E+00 0.  1.
         23    2    1    2    0    0  0.17400622257E+03  0.68463910188E+02  0.27059764604E+03  0.35188019337E+03  0.12502444544E+03 0.  0.
          5    1    3    3  502    0  0.18236085678E+03  0.30576297165E+02  0.21080511849E+03  0.28044835534E+03  0.47000000000E+01 0. -1.
         -5    1    3    3    0  502 -0.83546342132E+01  0.37887613023E+02  0.59792527552E+02  0.71431838031E+02  0.47000000000E+01 0. -1.
        -11    1    1    2    0    0 -0.45634266953E+02  0.98704010581E+01  0.61043840494E+02  0.76852206212E+02  0.00000000000E+00 0.  1.
         11    1    1    2    0    0 -0.12837195562E+03 -0.78334311246E+02  0.58507809051E+02  0.16136538361E+03  0.00000000000E+00 0. -1.
<mgrwt>
<rscale>  0 0.22005771E+03</rscale>
<asrwt>0</asrwt>
<pdfrwt beam="1">  1        2 0.75403620E-01 0.22493685E+03</pdfrwt>
<pdfrwt beam="2">  1       -2 0.15380653E-01 0.22493685E+03</pdfrwt>
<totfact> 0.20779693E+03</totfact>
</mgrwt>
</event>
<event>
 7    1  0.8712071E-006  0.1986973E+03  0.7546771E-02  0.1155829E+00
         -2   -1    0    0    0  501 -0.00000000000E+00  0.00000000000E+00  0.16312138371E+03  0.16312138371E+03  0.00000000000E+00 0.  1.
          2   -1    0    0  501    0  0.00000000000E+00 -0.00000000000E+00 -0.24825132608E+03  0.24825132608E+03  0.00000000000E+00 0. -1.
         23    2    1    2    0    0  0.12918530289E+03  0.84655286656E+02  0.29340114870E+02  0.20085179288E+03  0.12500096127E+03 0.  0.
          5    1    3    3  502    0  0.19153469430E+02  0.36260911460E+01 -0.42065252531E+02  0.46600208140E+02  0.47000000000E+01 0. -1.
         -5    1    3    3    0  502  0.11003183346E+03  0.81029195510E+02  0.71405367400E+02  0.15425158474E+03  0.47000000000E+01 0. -1.
        -11    1    1    2    0    0 -0.27239407177E+02 -0.66887958212E+02 -0.58033980221E+02  0.92649485252E+02  0.00000000000E+00 0. -1.
         11    1    1    2    0    0 -0.10194589572E+03 -0.17767328445E+02 -0.56436077014E+02  0.11787143166E+03  0.00000000000E+00 0.  1.
<mgrwt>
<rscale>  0 0.19294809E+03</rscale>
<asrwt>0</asrwt>
<pdfrwt beam="2">  1        2 0.38192512E-01 0.19869726E+03</pdfrwt>
<pdfrwt beam="1">  1       -2 0.25095597E-01 0.19869726E+03</pdfrwt>
<totfact> 0.18771396E+03</totfact>
</mgrwt>
</event>
<event>
 7    1  0.8712071E-006  0.1396184E+03  0.7546771E-02  0.1224771E+00
          1   -1    0    0  501    0  0.00000000000E+00  0.00000000000E+00  0.25017965774E+03  0.25017965774E+03  0.00000000000E+00 0. -1.
         -1   -1    0    0    0  501 -0.00000000000E+00 -0.00000000000E+00 -0.63027231110E+02  0.63027231110E+02  0.00000000000E+00 0.  1.
         23    2    1    2    0    0 -0.11989457953E+02 -0.61035369476E+02  0.11461947316E+03  0.18064034063E+03  0.12499698239E+03 0.  0.
          5    1    3    3  502    0 -0.32892451968E+02 -0.29523463038E+02  0.13161411243E+03  0.13891692789E+03  0.47000000000E+01 0.  1.
         -5    1    3    3    0  502  0.20902994014E+02 -0.31511906438E+02 -0.16994639269E+02  0.41723412732E+02  0.47000000000E+01 0.  1.
        -11    1    1    2    0    0 -0.15819807428E+02  0.63689702357E+02  0.13134115072E+02  0.66926448226E+02  0.00000000000E+00 0.  1.
         11    1    1    2    0    0  0.27809265382E+02 -0.26543328812E+01  0.59398838399E+02  0.65640099994E+02  0.00000000000E+00 0. -1.
<mgrwt>
<rscale>  0 0.13182627E+03</rscale>
<asrwt>0</asrwt>
<pdfrwt beam="1">  1        1 0.38489178E-01 0.13961844E+03</pdfrwt>
<pdfrwt beam="2">  1       -1 0.96964972E-02 0.13961844E+03</pdfrwt>
<totfact> 0.67278781E+03</totfact>
</mgrwt>
</event>
<event>
 7    1  0.8712071E-006  0.1283959E+03  0.7546771E-02  0.1239318E+00
         -1   -1    0    0    0  501 -0.00000000000E+00  0.00000000000E+00  0.10505975670E+03  0.10505975670E+03  0.00000000000E+00 0.  1.
          1   -1    0    0  501    0  0.00000000000E+00 -0.00000000000E+00 -0.16677507215E+03  0.16677507215E+03  0.00000000000E+00 0. -1.
         23    2    1    2    0    0 -0.52847805778E+02  0.12390471722E+02  0.29988022145E+02  0.13185138028E+03  0.11635759814E+03 0.  0.
          5    1    3    3  502    0  0.14950021472E+02  0.39456391518E+02 -0.16084875167E+02  0.45399594522E+02  0.47000000000E+01 0. -1.
         -5    1    3    3    0  502 -0.67797827251E+02 -0.27065919796E+02  0.46072897312E+02  0.86451785760E+02  0.47000000000E+01 0.  1.
        -11    1    1    2    0    0  0.95367144574E+01 -0.45377558560E+02 -0.63619151431E+02  0.78723999976E+02  0.00000000000E+00 0. -1.
         11    1    1    2    0    0  0.43311091321E+02  0.32987086838E+02 -0.28084186159E+02  0.61259448591E+02  0.00000000000E+00 0.  1.
<mgrwt>
<rscale>  0 0.12231988E+03</rscale>
<asrwt>0</asrwt>
<pdfrwt beam="2">  1        1 0.25657703E-01 0.12839589E+03</pdfrwt>
<pdfrwt beam="1">  1       -1 0.16163040E-01 0.12839589E+03</pdfrwt>
<totfact> 0.50228808E+03</totfact>
</mgrwt>
</event>
<event>
 7    1  0.8712071E-006  0.1327338E+03  0.7546771E-02  0.1236486E+00
          1   -1    0    0  501    0  0.00000000000E+00  0.00000000000E+00  0.16829580605E+03  0.16829580605E+03  0.00000000000E+00 0. -1.
         -1   -1    0    0    0  501 -0.00000000000E+00 -0.00000000000E+00 -0.10354996071E+03  0.10354996071E+03  0.00000000000E+00 0.  1.
         23    2    1    2    0    0  0.42791820030E+02 -0.12746731744E+02 -0.26580011123E+02  0.13536899745E+03  0.12499859778E+03 0.  0.
          5    1    3    3  502    0  0.61517822392E+02  0.39548197940E+02  0.74262444045E+00  0.73288088550E+02  0.47000000000E+01 0.  1.
         -5    1    3    3    0  502 -0.18726002362E+02 -0.52294929685E+02 -0.27322635563E+02  0.62080908896E+02  0.47000000000E+01 0.  1.
        -11    1    1    2    0    0  0.17346766420E+02 -0.16169781539E+02  0.56350043099E+02  0.61136727893E+02  0.00000000000E+00 0. -1.
         11    1    1    2    0    0 -0.60138586450E+02  0.28916513284E+02  0.34975813361E+02  0.75340041419E+02  0.00000000000E+00 0.  1.
<mgrwt>
<rscale>  0 0.12409788E+03</rscale>
<asrwt>0</asrwt>
<pdfrwt beam="1">  1        1 0.25891662E-01 0.13273383E+03</pdfrwt>
<pdfrwt beam="2">  1       -1 0.15930763E-01 0.13273383E+03</pdfrwt>
<totfact> 0.50913552E+03</totfact>
</mgrwt>
</event>
<event>
 7    1  0.8712071E-006  0.1260537E+03  0.7546771E-02  0.1246513E+00
          3   -1    0    0  501    0  0.00000000000E+00  0.00000000000E+00  0.12752087042E+03  0.12752087042E+03  0.00000000000E+00 0. -1.
         -3   -1    0    0    0  501 -0.00000000000E+00 -0.00000000000E+00 -0.16473100132E+03  0.16473100132E+03  0.00000000000E+00 0.  1.
         23    2    1    2    0    0 -0.35643576864E+02  0.79657313768E+01 -0.11311511556E+03  0.16936515430E+03  0.12064662728E+03 0.  0.
          5    1    3    3  502    0  0.35182056232E+02  0.13405168926E+02 -0.84523271300E+02  0.92648524143E+02  0.47000000000E+01 0. -1.
         -5    1    3    3    0  502 -0.70825633097E+02 -0.54394375493E+01 -0.28591844257E+02  0.76716630155E+02  0.47000000000E+01 0.  1.
        -11    1    1    2    0    0 -0.15889597948E+02 -0.98285484983E+01 -0.11111627648E+02  0.21738168219E+02  0.00000000000E+00 0.  1.
         11    1    1    2    0    0  0.51533174812E+02  0.18628171214E+01  0.87016612304E+02  0.10114854923E+03  0.00000000000E+00 0. -1.
<mgrwt>
<rscale>  0 0.11795260E+03</rscale>
<asrwt>0</asrwt>
<pdfrwt beam="1">  1        3 0.19618595E-01 0.12605366E+03</pdfrwt>
<pdfrwt beam="2">  1       -3 0.25343231E-01 0.12605366E+03</pdfrwt>
<totfact> 0.77731363E+02</totfact>
</mgrwt>
</event>
<event>
 7    1  0.8712071E-006  0.1637643E+03  0.7546771E-02  0.1191511E+00
         -1   -1    0    0    0  501 -0.00000000000E+00  0.00000000000E+00  0.18207326652E+02  0.18207326652E+02  0.00000000000E+00 0.  1.
          1   -1    0    0  501    0  0.00000000000E+00 -0.00000000000E+00 -0.12958005157E+04  0.12958005157E+04  0.00000000000E+00 0. -1.
         23    2    1    2    0    0  0.69504585030E+02  0.79761548048E+02 -0.78169430787E+03  0.79866434435E+03  0.12500380832E+03 0.  0.
          5    1    3    3  502    0  0.16875250693E+02  0.64636873449E+02 -0.67805122456E+03  0.68135031564E+03  0.47000000000E+01 0.  1.
         -5    1    3    3    0  502  0.52629334337E+02  0.15124674599E+02 -0.10364308331E+03  0.11731402871E+03  0.47000000000E+01 0.  1.
        -11    1    1    2    0    0 -0.88468797353E+02 -0.43742122911E+02 -0.32443449363E+03  0.33911331746E+03  0.00000000000E+00 0.  1.
         11    1    1    2    0    0  0.18964212323E+02 -0.36019425136E+02 -0.17146438756E+03  0.17623018056E+03  0.00000000000E+00 0. -1.
<mgrwt>
<rscale>  0 0.15753289E+03</rscale>
<asrwt>0</asrwt>
<pdfrwt beam="2">  1        1 0.19935399E+00 0.16376429E+03</pdfrwt>
<pdfrwt beam="1">  1       -1 0.28011263E-02 0.16376429E+03</pdfrwt>
<totfact> 0.40582475E+03</totfact>
</mgrwt>
</event>
<event>
 6    1  0.8712071E-006  0.1452867E+03  0.7546771E-02  0.1221032E+00
          2   -1    0    0  501    0  0.00000000000E+00  0.00000000000E+00  0.63383471655E+02  0.63383471655E+02  0.00000000000E+00 0. -1.
         -2   -1    0    0    0  501 -0.00000000000E+00 -0.00000000000E+00 -0.25559879220E+03  0.25559879220E+03  0.00000000000E+00 0.  1.
          5    1    1    2  502    0 -0.22702654177E+02  0.57826790776E+01  0.22031124374E+02  0.32500928067E+02  0.47000000000E+01 0. -1.
         -5    1    1    2    0  502 -0.23287173775E+01 -0.53919666360E+02 -0.15594693780E+03  0.16508873600E+03  0.47000000000E+01 0.  1.
        -11    1    1    2    0    0 -0.23253753875E+00 -0.27054748108E+02 -0.12578535757E+02  0.29836773128E+02  0.00000000000E+00 0.  1.
         11    1    1    2    0    0  0.25263909093E+02  0.75191735390E+02 -0.45720971368E+02  0.91555826666E+02  0.00000000000E+00 0. -1.
<mgrwt>
<rscale>  0 0.13442600E+03</rscale>
<asrwt>0</asrwt>
<pdfrwt beam="1">  1        2 0.97513032E-02 0.14528672E+03</pdfrwt>
<pdfrwt beam="2">  1       -2 0.39322892E-01 0.14528672E+03</pdfrwt>
<totfact> 0.39066466E+03</totfact>
</mgrwt>
</event>
<event>
 7    1  0.8712071E-006  0.1287396E+03  0.7546771E-02  0.1246158E+00
          4   -1    0    0  501    0  0.00000000000E+00  0.00000000000E+00  0.13233124223E+03  0.13233124223E+03  0.00000000000E+00 0. -1.
         -4   -1    0    0    0  501 -0.00000000000E+00 -0.00000000000E+00 -0.97050364021E+02  0.97050364021E+02  0.00000000000E+00 0.  1.
         23    2    1    2    0    0  0.29079446172E+02  0.10146519790E+02 -0.65200001598E+01  0.12890459720E+03  0.12500127489E+03 0.  0.
          5    1    3    3  502    0 -0.24525216375E+02 -0.20826129847E-01 -0.52022128490E+02  0.57705099642E+02  0.47000000000E+01 0. -1.
         -5    1    3    3    0  502  0.53604662547E+02  0.10167345920E+02  0.45502128330E+02  0.71199497558E+02  0.47000000000E+01 0. -1.
        -11    1    1    2    0    0 -0.19939055306E+02  0.32816048263E+01 -0.24761981193E+02  0.31960766095E+02  0.00000000000E+00 0.  1.
         11    1    1    2    0    0 -0.91403908661E+01 -0.13428124617E+02  0.66562859567E+02  0.68516242962E+02  0.00000000000E+00 0. -1.
<mgrwt>
<rscale>  0 0.11816367E+03</rscale>
<asrwt>0</asrwt>
<pdfrwt beam="1">  1        4 0.20358653E-01 0.12873960E+03</pdfrwt>
<pdfrwt beam="2">  1       -4 0.14930825E-01 0.12873960E+03</pdfrwt>
<totfact> 0.13517422E+03</totfact>
</mgrwt>
</event>
<event>
 7    1  0.8712071E-006  0.1323611E+03  0.7546771E-02  0.1237066E+00
          2   -1    0    0  501    0  0.00000000000E+00  0.00000000000E+00  0.30511281675E+03  0.30511281675E+03  0.00000000000E+00 0. -1.
         -2   -1    0    0    0  501 -0.00000000000E+00 -0.00000000000E+00 -0.63560113004E+02  0.63560113004E+02  0.00000000000E+00 0.  1.
         23    2    1    2    0    0  0.19916182214E+02 -0.38691745096E+02  0.32234467605E+02  0.13622967812E+03  0.12500303535E+03 0.  0.
          5    1    3    3  502    0  0.45923779040E+02 -0.52811759548E+02  0.62275247863E+02  0.93799637122E+02  0.47000000000E+01 0. -1.
         -5    1    3    3    0  502 -0.26007596826E+02  0.14120014452E+02 -0.30040780259E+02  0.42430041001E+02  0.47000000000E+01 0. -1.
        -11    1    1    2    0    0  0.49830936541E+01 -0.22473219425E+02  0.15675871563E+02  0.27849771326E+02  0.00000000000E+00 0.  1.
         11    1    1    2    0    0 -0.24899275868E+02  0.61164964521E+02  0.19364236458E+03  0.20459348031E+03  0.00000000000E+00 0. -1.
<mgrwt>
<rscale>  0 0.12373115E+03</rscale>
<asrwt>0</asrwt>
<pdfrwt beam="1">  1        2 0.46940432E-01 0.13236111E+03</pdfrwt>
<pdfrwt beam="2">  1       -2 0.97784791E-02 0.13236111E+03</pdfrwt>
<totfact> 0.70221411E+03</totfact>
</mgrwt>
</event>
<event>
 7    1  0.8712071E-006  0.1647587E+03  0.7546771E-02  0.1190649E+00
          2   -1    0    0  501    0  0.00000000000E+00  0.00000000000E+00  0.88789770017E+02  0.88789770017E+02  0.00000000000E+00 0. -1.
         -2   -1    0    0    0  501 -0.00000000000E+00 -0.00000000000E+00 -0.26343574308E+03  0.26343574308E+03  0.00000000000E+00 0.  1.
         23    2    1    2    0    0 -0.92254658682E+02 -0.54861961298E+02 -0.10677727614E+03  0.19633346740E+03  0.12499874749E+03 0.  0.
          5    1    3    3  502    0 -0.47234373657E+02  0.23134804249E+02  0.46228983724E+01  0.53007229806E+02  0.47000000000E+01 0.  1.
         -5    1    3    3    0  502 -0.45020285025E+02 -0.77996765546E+02 -0.11140017452E+03  0.14332623759E+03  0.47000000000E+01 0.  1.
        -11    1    1    2    0    0  0.61656422758E+02  0.51799539700E+02 -0.87885771312E+02  0.11919989757E+03  0.00000000000E+00 0.  1.
         11    1    1    2    0    0  0.30598235925E+02  0.30624215975E+01  0.20017074391E+02  0.36692148137E+02  0.00000000000E+00 0. -1.
<mgrwt>
<rscale>  0 0.15828293E+03</rscale>
<asrwt>0</asrwt>
<pdfrwt beam="1">  1        2 0.13659965E-01 0.16475874E+03</pdfrwt>
<pdfrwt beam="2">  1       -2 0.40528575E-01 0.16475874E+03</pdfrwt>
<totfact> 0.24695033E+03</totfact>
</mgrwt>
</event>
<event>
 6    1  0.8712071E-006  0.1610995E+03  0.7546771E-02  0.1199011E+00
          1   -1    0    0  501    0  0.00000000000E+00  0.00000000000E+00  0.60025480358E+03  0.60025480358E+03  0.00000000000E+00 0. -1.
         -1   -1    0    0    0  501 -0.00000000000E+00 -0.00000000000E+00 -0.34271090429E+02  0.34271090429E+02  0.00000000000E+00 0.  1.
          5    1    1    2  502    0  0.38939934671E+02  0.68687230832E+01  0.10600604602E+03  0.11323811046E+03  0.47000000000E+01 0. -1.
         -5    1    1    2    0  502 -0.11566067402E+03  0.32027120062E+02  0.23548584703E+03  0.26434598935E+03  0.47000000000E+01 0.  1.
        -11    1    1    2    0    0  0.36561557503E+02  0.22068505928E+02  0.39924804207E+02  0.58461580819E+02  0.00000000000E+00 0.  1.
         11    1    1    2    0    0  0.40159181849E+02 -0.60964349073E+02  0.18456701590E+03  0.19848021338E+03  0.00000000000E+00 0. -1.
<mgrwt>
<rscale>  0 0.15119570E+03</rscale>
<asrwt>0</asrwt>
<pdfrwt beam="1">  1        1 0.92346885E-01 0.16109947E+03</pdfrwt>
<pdfrwt beam="2">  1       -1 0.52724759E-02 0.16109947E+03</pdfrwt>
<totfact> 0.55599831E+03</totfact>
</mgrwt>
</event>
<event>
 7    1  0.8712071E-006  0.1287069E+03  0.7546771E-02  0.1243590E+00
          2   -1    0    0  501    0  0.00000000000E+00  0.00000000000E+00  0.42129959250E+02  0.42129959250E+02  0.00000000000E+00 0. -1.
         -2   -1    0    0    0  501 -0.00000000000E+00 -0.00000000000E+00 -0.30374366467E+03  0.30374366467E+03  0.00000000000E+00 0.  1.
         23    2    1    2    0    0  0.30390882108E+02  0.40880021770E+01 -0.13151393822E+03  0.18401462622E+03  0.12500059695E+03 0.  0.
          5    1    3    3  502    0  0.10453370645E+01  0.51932307072E+02 -0.14471986576E+02  0.54125646813E+02  0.47000000000E+01 0. -1.
         -5    1    3    3    0  502  0.29345545043E+02 -0.47844304895E+02 -0.11704195165E+03  0.12988897940E+03  0.47000000000E+01 0. -1.
        -11    1    1    2    0    0  0.13815754579E+02 -0.17822181599E+02  0.12561836916E+01  0.22585022228E+02  0.00000000000E+00 0. -1.
         11    1    1    2    0    0 -0.44206636687E+02  0.13734179422E+02 -0.13135595088E+03  0.13927397547E+03  0.00000000000E+00 0.  1.
<mgrwt>
<rscale>  0 0.11970170E+03</rscale>
<asrwt>0</asrwt>
<pdfrwt beam="1">  1        2 0.64815324E-02 0.12870690E+03</pdfrwt>
<pdfrwt beam="2">  1       -2 0.46729793E-01 0.12870690E+03</pdfrwt>
<totfact> 0.46469639E+03</totfact>
</mgrwt>
</event>
<event>
 7    1  0.8712071E-006  0.1544301E+03  0.7546771E-02  0.1204063E+00
          3   -1    0    0  501    0  0.00000000000E+00  0.00000000000E+00  0.55462234760E+02  0.55462234760E+02  0.00000000000E+00 0.  1.
         -3   -1    0    0    0  501 -0.00000000000E+00 -0.00000000000E+00 -0.43280649808E+03  0.43280649808E+03  0.00000000000E+00 0. -1.
         23    2    1    2    0    0  0.55947890363E+02 -0.71359739585E+02 -0.30520044581E+03  0.34204674366E+03  0.12500513531E+03 0.  0.
          5    1    3    3  502    0  0.39636645008E+02  0.69138743745E+01 -0.22530500531E+03  0.22891767233E+03  0.47000000000E+01 0.  1.
         -5    1    3    3    0  502  0.16311245356E+02 -0.78273613959E+02 -0.79895440501E+02  0.11312907133E+03  0.47000000000E+01 0.  1.
        -11    1    1    2    0    0 -0.16791492867E+02  0.30420963844E+02  0.18474471108E+02  0.39353466894E+02  0.00000000000E+00 0.  1.
         11    1    1    2    0    0 -0.39156397497E+02  0.40938775741E+02 -0.90618288618E+02  0.10686852229E+03  0.00000000000E+00 0. -1.
<mgrwt>
<rscale>  0 0.14711548E+03</rscale>
<asrwt>0</asrwt>
<pdfrwt beam="1">  1        3 0.85326514E-02 0.15443012E+03</pdfrwt>
<pdfrwt beam="2">  1       -3 0.66585616E-01 0.15443012E+03</pdfrwt>
<totfact> 0.50151215E+02</totfact>
</mgrwt>
</event>
<event>
 7    1  0.8712071E-006  0.1150491E+03  0.7546771E-02  0.1263436E+00
         -2   -1    0    0    0  501 -0.00000000000E+00  0.00000000000E+00  0.34288248396E+02  0.34288248396E+02  0.00000000000E+00 0.  1.
          2   -1    0    0  501    0  0.00000000000E+00 -0.00000000000E+00 -0.31613053779E+03  0.31613053779E+03  0.00000000000E+00 0. -1.
         23    2    1    2    0    0  0.56976275647E+01  0.37454157605E+00 -0.13138470783E+03  0.17463745526E+03  0.11490733696E+03 0.  0.
          5    1    3    3  502    0 -0.20501978090E+02  0.22260579594E+02  0.75086297742E+01  0.31533062499E+02  0.47000000000E+01 0. -1.
         -5    1    3    3    0  502  0.26199605655E+02 -0.21886038018E+02 -0.13889333761E+03  0.14310439276E+03  0.47000000000E+01 0.  1.
        -11    1    1    2    0    0  0.36812728394E+02 -0.43970046548E+01 -0.29100438414E+02  0.47131158883E+02  0.00000000000E+00 0.  1.
         11    1    1    2    0    0 -0.42510355959E+02  0.40224630787E+01 -0.12135714314E+03  0.12865017204E+03  0.00000000000E+00 0. -1.
<mgrwt>
<rscale>  0 0.10846645E+03</rscale>
<asrwt>0</asrwt>
<pdfrwt beam="2">  1        2 0.48635464E-01 0.11504912E+03</pdfrwt>
<pdfrwt beam="1">  1       -2 0.52751155E-02 0.11504912E+03</pdfrwt>
<totfact> 0.17203318E+04</totfact>
</mgrwt>
</event>
<event>
 7    1  0.8712071E-006  0.1290658E+03  0.7546771E-02  0.1242935E+00
          2   -1    0    0  501    0  0.00000000000E+00  0.00000000000E+00  0.21091648586E+03  0.21091648586E+03  0.00000000000E+00 0. -1.
         -2   -1    0    0    0  501 -0.00000000000E+00 -0.00000000000E+00 -0.65634898715E+02  0.65634898715E+02  0.00000000000E+00 0.  1.
         23    2    1    2    0    0 -0.16861042053E+02 -0.27342579266E+02  0.43710110450E+02  0.13626647964E+03  0.12500427328E+03 0.  0.
          5    1    3    3  502    0 -0.38077873632E+02 -0.44070681022E+02 -0.24034577867E+02  0.63181487157E+02  0.47000000000E+01 0.  1.
         -5    1    3    3    0  502  0.21216831580E+02  0.16728101756E+02  0.67744688318E+02  0.73084992481E+02  0.47000000000E+01 0.  1.
        -11    1    1    2    0    0  0.50577412001E+02 -0.64835468321E+00  0.69608028815E+02  0.86045177924E+02  0.00000000000E+00 0. -1.
         11    1    1    2    0    0 -0.33716369949E+02  0.27990933949E+02  0.31963447875E+02  0.54239727009E+02  0.00000000000E+00 0.  1.
<mgrwt>
<rscale>  0 0.12009800E+03</rscale>
<asrwt>0</asrwt>
<pdfrwt beam="1">  1        2 0.32448690E-01 0.12906580E+03</pdfrwt>
<pdfrwt beam="2">  1       -2 0.10097677E-01 0.12906580E+03</pdfrwt>
<totfact> 0.98723009E+03</totfact>
</mgrwt>
</event>
<event>
 7    1  0.8712071E-006  0.1289119E+03  0.7546771E-02  0.1242961E+00
          2   -1    0    0  501    0  0.00000000000E+00  0.00000000000E+00  0.22209970481E+03  0.22209970481E+03  0.00000000000E+00 0. -1.
         -2   -1    0    0    0  501 -0.00000000000E+00 -0.00000000000E+00 -0.76727078493E+02  0.76727078493E+02  0.00000000000E+00 0.  1.
         23    2    1    2    0    0  0.10012191630E+02  0.29874287577E+02  0.60820042777E+01  0.12905526085E+03  0.12500221014E+03 0.  0.
          5    1    3    3  502    0  0.25340496407E+02  0.95796811167E+01 -0.55678775907E+02  0.62097722461E+02  0.47000000000E+01 0.  1.
         -5    1    3    3    0  502 -0.15328304776E+02  0.20294606460E+02  0.61760780184E+02  0.66957538393E+02  0.47000000000E+01 0.  1.
        -11    1    1    2    0    0  0.27403309881E+02 -0.15104566013E+02  0.77751293032E+01  0.32241928332E+02  0.00000000000E+00 0.  1.
         11    1    1    2    0    0 -0.37415501511E+02 -0.14769721564E+02  0.13151549273E+03  0.13752959411E+03  0.00000000000E+00 0. -1.
<mgrwt>
<rscale>  0 0.12008227E+03</rscale>
<asrwt>0</asrwt>
<pdfrwt beam="1">  1        2 0.34169185E-01 0.12891187E+03</pdfrwt>
<pdfrwt beam="2">  1       -2 0.11804166E-01 0.12891187E+03</pdfrwt>
<totfact> 0.72959794E+03</totfact>
</mgrwt>
</event>
<event>
 7    1  0.8712071E-006  0.1366603E+03  0.7546771E-02  0.1229939E+00
          2   -1    0    0  501    0  0.00000000000E+00  0.00000000000E+00  0.27955158765E+03  0.27955158765E+03  0.00000000000E+00 0. -1.
         -2   -1    0    0    0  501 -0.00000000000E+00 -0.00000000000E+00 -0.66726871276E+02  0.66726871276E+02  0.00000000000E+00 0.  1.
         23    2    1    2    0    0 -0.54611122078E+02  0.80082722052E+01  0.38293773772E+02  0.14192412622E+03  0.12501814835E+03 0.  0.
          5    1    3    3  502    0 -0.38993397595E+02  0.65787805746E+02  0.20994736208E+02  0.79444253343E+02  0.47000000000E+01 0. -1.
         -5    1    3    3    0  502 -0.15617724483E+02 -0.57779533541E+02  0.17299037565E+02  0.62479872878E+02  0.47000000000E+01 0. -1.
        -11    1    1    2    0    0  0.34422730505E+02 -0.12570357666E+02  0.17938947412E+03  0.18309429727E+03  0.00000000000E+00 0. -1.
         11    1    1    2    0    0  0.20188391573E+02  0.45620854609E+01 -0.48585315218E+01  0.21260035433E+02  0.00000000000E+00 0.  1.
<mgrwt>
<rscale>  0 0.12834086E+03</rscale>
<asrwt>0</asrwt>
<pdfrwt beam="1">  1        2 0.43007936E-01 0.13666033E+03</pdfrwt>
<pdfrwt beam="2">  1       -2 0.10265673E-01 0.13666033E+03</pdfrwt>
<totfact> 0.71523106E+03</totfact>
</mgrwt>
</event>
<event>
 7    1  0.8712071E-006  0.1594160E+03  0.7546771E-02  0.1194782E+00
         -2   -1    0    0    0  501 -0.00000000000E+00  0.00000000000E+00  0.56303286700E+02  0.56303286700E+02  0.00000000000E+00 0.  1.
          2   -1    0    0  501    0  0.00000000000E+00 -0.00000000000E+00 -0.86601618090E+03  0.86601618090E+03  0.00000000000E+00 0. -1.
         23    2    1    2    0    0 -0.60908124324E+02  0.92991621263E+02 -0.78776012818E+02  0.17781764940E+03  0.11426379570E+03 0.  0.
          5    1    3    3  502    0  0.20787620784E+02 -0.13135132081E+02 -0.81107084939E+01  0.26315973570E+02  0.47000000000E+01 0. -1.
         -5    1    3    3    0  502 -0.81695745108E+02  0.10612675334E+03 -0.70665304324E+02  0.15150167583E+03  0.47000000000E+01 0.  1.
        -11    1    1    2    0    0  0.24662013016E+02  0.99777237198E+01 -0.75812969227E+02  0.80345355558E+02  0.00000000000E+00 0.  1.
         11    1    1    2    0    0  0.36246111309E+02 -0.10296934498E+03 -0.65512391216E+03  0.66415646264E+03  0.00000000000E+00 0. -1.
<mgrwt>
<rscale>  0 0.15472706E+03</rscale>
<asrwt>0</asrwt>
<pdfrwt beam="2">  1        2 0.13323325E+00 0.15941598E+03</pdfrwt>
<pdfrwt beam="1">  1       -2 0.86620446E-02 0.15941598E+03</pdfrwt>
<totfact> 0.26371256E+03</totfact>
</mgrwt>
</event>
<event>
 7    1  0.8712071E-006  0.1349284E+03  0.7546771E-02  0.1234268E+00
         -1   -1    0    0    0  501 -0.00000000000E+00  0.00000000000E+00  0.26667085662E+03  0.26667085662E+03  0.00000000000E+00 0.  1.
          1   -1    0    0  501    0  0.00000000000E+00 -0.00000000000E+00 -0.61787119211E+02  0.61787119211E+02  0.00000000000E+00 0. -1.
         23    2    1    2    0    0 -0.52324330678E+01  0.50547404968E+02  0.17900946679E+03  0.22416524556E+03  0.12499299826E+03 0.  0.
          5    1    3    3  502    0  0.34137829114E+02 -0.29518587065E+02  0.66266629119E+02  0.80312480311E+02  0.47000000000E+01 0. -1.
         -5    1    3    3    0  502 -0.39370262181E+02  0.80065992033E+02  0.11274283767E+03  0.14385276525E+03  0.47000000000E+01 0. -1.
        -11    1    1    2    0    0 -0.62640115513E+01  0.80896731696E+01 -0.24236990724E+02  0.26308028661E+02  0.00000000000E+00 0. -1.
         11    1    1    2    0    0  0.11496444619E+02 -0.58637078137E+02  0.50111261342E+02  0.77984701606E+02  0.00000000000E+00 0.  1.
<mgrwt>
<rscale>  0 0.12551406E+03</rscale>
<asrwt>0</asrwt>
<pdfrwt beam="2">  1        1 0.95057108E-02 0.13492838E+03</pdfrwt>
<pdfrwt beam="1">  1       -1 0.41026285E-01 0.13492838E+03</pdfrwt>
<totfact> 0.38869836E+03</totfact>
</mgrwt>
</event>
<event>
 6    1  0.8712071E-006  0.4206929E+03  0.7546771E-02  0.1077014E+00
          1   -1    0    0  501    0  0.00000000000E+00  0.00000000000E+00  0.49663192333E+03  0.49663192333E+03  0.00000000000E+00 0. -1.
         -1   -1    0    0    0  501 -0.00000000000E+00 -0.00000000000E+00 -0.15629347579E+03  0.15629347579E+03  0.00000000000E+00 0.  1.
          5    1    1    2  502    0  0.12119874139E+03  0.10711209299E+03  0.28591458884E+02  0.16432193067E+03  0.47000000000E+01 0. -1.
         -5    1    1    2    0  502 -0.22091385217E+03 -0.93143403759E+02  0.21343787316E+03  0.32102404808E+03  0.47000000000E+01 0.  1.
        -11    1    1    2    0    0  0.10278229279E+03  0.14570899881E+02  0.90781080571E+02  0.13790473315E+03  0.00000000000E+00 0.  1.
         11    1    1    2    0    0 -0.30671820170E+01 -0.28539589109E+02  0.75280349187E+01  0.29674687223E+02  0.00000000000E+00 0. -1.
<mgrwt>
<rscale>  0 0.31705144E+03</rscale>
<asrwt>0</asrwt>
<pdfrwt beam="1">  1        1 0.76404911E-01 0.42069291E+03</pdfrwt>
<pdfrwt beam="2">  1       -1 0.24045150E-01 0.42069291E+03</pdfrwt>
<totfact> 0.67736385E+02</totfact>
</mgrwt>
</event>
<event>
 7    1  0.8712071E-006  0.1714655E+03  0.7546771E-02  0.1182154E+00
          2   -1    0    0  501    0  0.00000000000E+00  0.00000000000E+00  0.81839212771E+03  0.81839212771E+03  0.00000000000E+00 0. -1.
         -2   -1    0    0    0  501 -0.00000000000E+00 -0.00000000000E+00 -0.33160402281E+02  0.33160402281E+02  0.00000000000E+00 0.  1.
         23    2    1    2    0    0 -0.11652137158E+03  0.14099475975E+02  0.32632255864E+03  0.36862832050E+03  0.12499760455E+03 0.  0.
          5    1    3    3  502    0 -0.26802054761E+02 -0.50035220464E+02  0.75360125361E+02  0.94462224834E+02  0.47000000000E+01 0.  1.
         -5    1    3    3    0  502 -0.89719316823E+02  0.64134696440E+02  0.25096243328E+03  0.27416609567E+03  0.47000000000E+01 0.  1.
        -11    1    1    2    0    0  0.29352238192E+02  0.49760730931E+01  0.22056506578E+02  0.37051378823E+02  0.00000000000E+00 0.  1.
         11    1    1    2    0    0  0.87169133392E+02 -0.19075549069E+02  0.43685266022E+03  0.44587283067E+03  0.00000000000E+00 0. -1.
<mgrwt>
<rscale>  0 0.16593568E+03</rscale>
<asrwt>0</asrwt>
<pdfrwt beam="1">  1        2 0.12590647E+00 0.17146553E+03</pdfrwt>
<pdfrwt beam="2">  1       -2 0.51016010E-02 0.17146553E+03</pdfrwt>
<totfact> 0.64009886E+03</totfact>
</mgrwt>
</event>
<event>
 7    1  0.8712071E-006  0.1550554E+03  0.7546771E-02  0.1202415E+00
          1   -1    0    0  501    0  0.00000000000E+00  0.00000000000E+00  0.94244998716E+02  0.94244998716E+02  0.00000000000E+00 0. -1.
         -1   -1    0    0    0  501 -0.00000000000E+00 -0.00000000000E+00 -0.27958667797E+03  0.27958667797E+03  0.00000000000E+00 0.  1.
         23    2    1    2    0    0 -0.49738809302E+02  0.77093598748E+02 -0.18788073198E+03  0.24360081554E+03  0.12499926306E+03 0.  0.
          5    1    3    3  502    0  0.24864394771E+02  0.34552215908E+02 -0.13729344551E+03  0.14381819750E+03  0.47000000000E+01 0.  1.
         -5    1    3    3    0  502 -0.74603204073E+02  0.42541382840E+02 -0.50587286471E+02  0.99782618048E+02  0.47000000000E+01 0.  1.
        -11    1    1    2    0    0  0.43256306759E+02 -0.30389874704E+02 -0.40340116103E+02  0.66497951293E+02  0.00000000000E+00 0.  1.
         11    1    1    2    0    0  0.64825025428E+01 -0.46703724044E+02  0.42879168827E+02  0.63732909851E+02  0.00000000000E+00 0. -1.
<mgrwt>
<rscale>  0 0.14843048E+03</rscale>
<asrwt>0</asrwt>
<pdfrwt beam="1">  1        1 0.14499231E-01 0.15505543E+03</pdfrwt>
<pdfrwt beam="2">  1       -1 0.43013335E-01 0.15505543E+03</pdfrwt>
<totfact> 0.20649384E+03</totfact>
</mgrwt>
</event>
<event>
 7    1  0.8712071E-006  0.1467401E+03  0.7546771E-02  0.1214241E+00
         -2   -1    0    0    0  501 -0.00000000000E+00  0.00000000000E+00  0.29071015216E+03  0.29071015216E+03  0.00000000000E+00 0.  1.
          2   -1    0    0  501    0  0.00000000000E+00 -0.00000000000E+00 -0.66655710591E+02  0.66655710591E+02  0.00000000000E+00 0. -1.
         23    2    1    2    0    0  0.14046886493E+02 -0.75571970923E+02  0.17509847052E+03  0.22845595560E+03  0.12499684582E+03 0.  0.
          5    1    3    3  502    0  0.37205640965E+02  0.23459963992E+02  0.43160312922E+02  0.61802364370E+02  0.47000000000E+01 0.  1.
         -5    1    3    3    0  502 -0.23158754472E+02 -0.99031934915E+02  0.13193815759E+03  0.16665359123E+03  0.47000000000E+01 0.  1.
        -11    1    1    2    0    0  0.22641571394E+02  0.22704195553E+02 -0.17395010769E+02  0.36478865806E+02  0.00000000000E+00 0. -1.
         11    1    1    2    0    0 -0.36688457886E+02  0.52867775370E+02  0.66350981820E+02  0.92431041340E+02  0.00000000000E+00 0.  1.
<mgrwt>
<rscale>  0 0.13932470E+03</rscale>
<asrwt>0</asrwt>
<pdfrwt beam="2">  1        2 0.10254725E-01 0.14674007E+03</pdfrwt>
<pdfrwt beam="1">  1       -2 0.44724638E-01 0.14674007E+03</pdfrwt>
<totfact> 0.28726245E+03</totfact>
</mgrwt>
</event>
<event>
 6    1  0.8712071E-006  0.2773465E+03  0.7546771E-02  0.1126972E+00
         -2   -1    0    0    0  501 -0.00000000000E+00  0.00000000000E+00  0.13017398395E+03  0.13017398395E+03  0.00000000000E+00 0.  1.
          2   -1    0    0  501    0  0.00000000000E+00 -0.00000000000E+00 -0.31988038190E+03  0.31988038190E+03  0.00000000000E+00 0. -1.
          5    1    1    2  502    0  0.36212212979E+02 -0.25769465524E+02 -0.15079157777E+03  0.15727548967E+03  0.47000000000E+01 0. -1.
         -5    1    1    2    0  502 -0.11821405336E+03  0.74286143351E+02  0.33814535607E+02  0.14373067287E+03  0.47000000000E+01 0.  1.
        -11    1    1    2    0    0  0.76420102873E+02  0.25855819565E+01 -0.29769212617E+02  0.82054392795E+02  0.00000000000E+00 0. -1.
         11    1    1    2    0    0  0.55817375031E+01 -0.51102259783E+02 -0.42960143164E+02  0.66993810529E+02  0.00000000000E+00 0.  1.
<mgrwt>
<rscale>  0 0.22952801E+03</rscale>
<asrwt>0</asrwt>
<pdfrwt beam="2">  1        2 0.49212366E-01 0.27734650E+03</pdfrwt>
<pdfrwt beam="1">  1       -2 0.20026767E-01 0.27734650E+03</pdfrwt>
<totfact> 0.21336333E+03</totfact>
</mgrwt>
</event>
<event>
 7    1  0.8712071E-006  0.1700905E+03  0.7546771E-02  0.1181761E+00
          2   -1    0    0  501    0  0.00000000000E+00  0.00000000000E+00  0.78149907450E+03  0.78149907450E+03  0.00000000000E+00 0. -1.
         -2   -1    0    0    0  501 -0.00000000000E+00 -0.00000000000E+00 -0.41813521264E+02  0.41813521264E+02  0.00000000000E+00 0.  1.
         23    2    1    2    0    0  0.10601869529E+03  0.66943368089E+02  0.20438518196E+03  0.26590241863E+03  0.11493222067E+03 0.  0.
          5    1    3    3  502    0 -0.12154681509E+01  0.55140085128E+02  0.10709700206E+03  0.12055606248E+03  0.47000000000E+01 0. -1.
         -5    1    3    3    0  502  0.10723416344E+03  0.11803282960E+02  0.97288179902E+02  0.14534635615E+03  0.47000000000E+01 0.  1.
        -11    1    1    2    0    0 -0.11089241464E+03 -0.82320505321E+02  0.49745169732E+03  0.51626735747E+03  0.00000000000E+00 0.  1.
         11    1    1    2    0    0  0.48737193433E+01  0.15377137232E+02  0.37848673951E+02  0.41142819660E+02  0.00000000000E+00 0. -1.
<mgrwt>
<rscale>  0 0.16630158E+03</rscale>
<asrwt>0</asrwt>
<pdfrwt beam="1">  1        2 0.12023062E+00 0.17009055E+03</pdfrwt>
<pdfrwt beam="2">  1       -2 0.64328500E-02 0.17009055E+03</pdfrwt>
<totfact> 0.47654619E+03</totfact>
</mgrwt>
</event>
<event>
 7    1  0.8712071E-006  0.1281836E+03  0.7546771E-02  0.1245048E+00
          1   -1    0    0  501    0  0.00000000000E+00  0.00000000000E+00  0.49147727053E+03  0.49147727053E+03  0.00000000000E+00 0. -1.
         -1   -1    0    0    0  501 -0.00000000000E+00 -0.00000000000E+00 -0.30600870332E+02  0.30600870332E+02  0.00000000000E+00 0.  1.
         23    2    1    2    0    0 -0.82846195309E+01 -0.27151514477E+02  0.15101430668E+03  0.19808167025E+03  0.12500075043E+03 0.  0.
          5    1    3    3  502    0 -0.58060424239E+02 -0.19651512946E+01  0.31840683215E+02  0.66413807224E+02  0.47000000000E+01 0. -1.
         -5    1    3    3    0  502  0.49775804709E+02 -0.25186363182E+02  0.11917362346E+03  0.13166786303E+03  0.47000000000E+01 0. -1.
        -11    1    1    2    0    0 -0.34323866825E+02  0.35576250033E+02  0.13332062623E+03  0.14219067050E+03  0.00000000000E+00 0.  1.
         11    1    1    2    0    0  0.42608486356E+02 -0.84247355557E+01  0.17654146729E+03  0.18180580011E+03  0.00000000000E+00 0. -1.
<mgrwt>
<rscale>  0 0.11882502E+03</rscale>
<asrwt>0</asrwt>
<pdfrwt beam="1">  1        1 0.75611882E-01 0.12818357E+03</pdfrwt>
<pdfrwt beam="2">  1       -1 0.47078266E-02 0.12818357E+03</pdfrwt>
<totfact> 0.84681338E+03</totfact>
</mgrwt>
</event>
<event>
 7    1  0.8712071E-006  0.1122129E+03  0.7546771E-02  0.1270463E+00
          1   -1    0    0  501    0  0.00000000000E+00  0.00000000000E+00  0.23756884856E+03  0.23756884856E+03  0.00000000000E+00 0. -1.
         -1   -1    0    0    0  501 -0.00000000000E+00 -0.00000000000E+00 -0.10544694719E+03  0.10544694719E+03  0.00000000000E+00 0.  1.
         23    2    1    2    0    0 -0.16553116585E+02 -0.14260284700E+01 -0.63931554066E+02  0.12914713937E+03  0.11097612706E+03 0.  0.
          5    1    3    3  502    0 -0.54298317755E+02 -0.28078038061E+02 -0.18167783978E+02  0.63944052945E+02  0.47000000000E+01 0. -1.
         -5    1    3    3    0  502  0.37745201170E+02  0.26652009591E+02 -0.45763770088E+02  0.65203086424E+02  0.47000000000E+01 0.  1.
        -11    1    1    2    0    0  0.39501641047E+01  0.35629119517E+02  0.40431104051E+02  0.54034360631E+02  0.00000000000E+00 0.  1.
         11    1    1    2    0    0  0.12602952480E+02 -0.34203091047E+02  0.15562235138E+03  0.15983429575E+03  0.00000000000E+00 0. -1.
<mgrwt>
<rscale>  0 0.10482592E+03</rscale>
<asrwt>0</asrwt>
<pdfrwt beam="1">  1        1 0.36549054E-01 0.11221292E+03</pdfrwt>
<pdfrwt beam="2">  1       -1 0.16222607E-01 0.11221292E+03</pdfrwt>
<totfact> 0.31967529E+03</totfact>
</mgrwt>
</event>
<event>
 7    1  0.8712071E-006  0.1313084E+03  0.7546771E-02  0.1238843E+00
          3   -1    0    0  501    0  0.00000000000E+00  0.00000000000E+00  0.15543132879E+03  0.15543132879E+03  0.00000000000E+00 0. -1.
         -3   -1    0    0    0  501 -0.00000000000E+00 -0.00000000000E+00 -0.18077602907E+03  0.18077602907E+03  0.00000000000E+00 0.  1.
         23    2    1    2    0    0  0.47206422487E+01 -0.39961679708E+02 -0.13471285953E+03  0.18812084018E+03  0.12499070236E+03 0.  0.
          5    1    3    3  502    0 -0.31377346035E+02 -0.53204743163E+02 -0.13591423229E+03  0.14936549494E+03  0.47000000000E+01 0. -1.
         -5    1    3    3    0  502  0.36097988283E+02  0.13243063455E+02  0.12013727595E+01  0.38755345235E+02  0.47000000000E+01 0. -1.
        -11    1    1    2    0    0 -0.12232772377E+02 -0.26696891024E+02  0.17005211525E+02  0.33934376808E+02  0.00000000000E+00 0.  1.
         11    1    1    2    0    0  0.75121301280E+01  0.66658570732E+02  0.92362947730E+02  0.11415214087E+03  0.00000000000E+00 0. -1.
<mgrwt>
<rscale>  0 0.12261585E+03</rscale>
<asrwt>0</asrwt>
<pdfrwt beam="1">  1        3 0.23912512E-01 0.13130840E+03</pdfrwt>
<pdfrwt beam="2">  1       -3 0.27811697E-01 0.13130840E+03</pdfrwt>
<totfact> 0.46494169E+02</totfact>
</mgrwt>
</event>
<event>
 7    1  0.8712071E-006  0.1722697E+03  0.7546771E-02  0.1177729E+00
          1   -1    0    0  501    0  0.00000000000E+00  0.00000000000E+00  0.27431406594E+03  0.27431406594E+03  0.00000000000E+00 0. -1.
         -1   -1    0    0    0  501 -0.00000000000E+00 -0.00000000000E+00 -0.12356356895E+03  0.12356356895E+03  0.00000000000E+00 0.  1.
         23    2    1    2    0    0  0.26429443224E+02  0.11555698087E+03 -0.43039341022E+01  0.17232342888E+03  0.12499963598E+03 0.  0.
          5    1    3    3  502    0  0.76486930473E+02  0.62344689995E+02  0.23253545635E+01  0.98816031987E+02  0.47000000000E+01 0.  1.
         -5    1    3    3    0  502 -0.50057487249E+02  0.53212290878E+02 -0.66292886656E+01  0.73507396896E+02  0.47000000000E+01 0.  1.
        -11    1    1    2    0    0 -0.20675369021E+02 -0.51680059983E+02  0.15140754030E+03  0.16131504190E+03  0.00000000000E+00 0. -1.
         11    1    1    2    0    0 -0.57540742023E+01 -0.63876920890E+02  0.36468907985E+01  0.64239164105E+02  0.00000000000E+00 0.  1.
<mgrwt>
<rscale>  0 0.17011395E+03</rscale>
<asrwt>0</asrwt>
<pdfrwt beam="1">  1        1 0.42202164E-01 0.17226967E+03</pdfrwt>
<pdfrwt beam="2">  1       -1 0.19009780E-01 0.17226967E+03</pdfrwt>
<totfact> 0.21175488E+03</totfact>
</mgrwt>
</event>
<event>
 7    1  0.8712071E-006  0.1586651E+03  0.7546771E-02  0.1198310E+00
          2   -1    0    0  501    0  0.00000000000E+00  0.00000000000E+00  0.12498615482E+03  0.12498615482E+03  0.00000000000E+00 0. -1.
         -2   -1    0    0    0  501 -0.00000000000E+00 -0.00000000000E+00 -0.17787893413E+03  0.17787893413E+03  0.00000000000E+00 0.  1.
         23    2    1    2    0    0  0.58927047586E+02  0.77961472766E+02  0.31193418278E+01  0.15869576657E+03  0.12499691140E+03 0.  0.
          5    1    3    3  502    0  0.12004225908E+02  0.67582607690E+02  0.54807073183E+02  0.87962580526E+02  0.47000000000E+01 0. -1.
         -5    1    3    3    0  502  0.46922821679E+02  0.10378865075E+02 -0.51687731356E+02  0.70733186039E+02  0.47000000000E+01 0. -1.
        -11    1    1    2    0    0 -0.58950355159E+02 -0.21150180076E+02  0.24139939312E+01  0.62676166581E+02  0.00000000000E+00 0. -1.
         11    1    1    2    0    0  0.23307572630E-01 -0.56811292690E+02 -0.58426115074E+02  0.81493155805E+02  0.00000000000E+00 0.  1.
<mgrwt>
<rscale>  0 0.15177361E+03</rscale>
<asrwt>0</asrwt>
<pdfrwt beam="1">  1        2 0.19228639E-01 0.15866511E+03</pdfrwt>
<pdfrwt beam="2">  1       -2 0.27365990E-01 0.15866511E+03</pdfrwt>
<totfact> 0.34056971E+03</totfact>
</mgrwt>
</event>
<event>
 7    1  0.1217520E-005  0.2139374E+03  0.7546771E-02  0.1141772E+00
         -1   -1    0    0    0  501 -0.00000000000E+00  0.00000000000E+00  0.25387279708E+02  0.25387279708E+02  0.00000000000E+00 0.  1.
          1   -1    0    0  501    0  0.00000000000E+00 -0.00000000000E+00 -0.16890318371E+04  0.16890318371E+04  0.00000000000E+00 0. -1.
         23    2    1    2    0    0 -0.16063600802E+03 -0.65878954081E+02 -0.76896686961E+03  0.79817244414E+03  0.12500096146E+03 0.  0.
          5    1    3    3  502    0 -0.12260592716E+03 -0.76021231385E+02 -0.72391752617E+03  0.73816672622E+03  0.47000000000E+01 0. -1.
         -5    1    3    3    0  502 -0.38030080865E+02  0.10142277303E+02 -0.45049343439E+02  0.60005717925E+02  0.47000000000E+01 0. -1.
        -11    1    1    2    0    0  0.17232734916E+02  0.26352736146E+02 -0.53993139556E+02  0.62503543693E+02  0.00000000000E+00 0. -1.
         11    1    1    2    0    0  0.14340327311E+03  0.39526217935E+02 -0.84068454822E+03  0.85374312896E+03  0.00000000000E+00 0.  1.
<mgrwt>
<rscale>  0 0.20974000E+03</rscale>
<asrwt>0</asrwt>
<pdfrwt beam="2">  1        1 0.25985105E+00 0.21393738E+03</pdfrwt>
<pdfrwt beam="1">  1       -1 0.39057353E-02 0.21393738E+03</pdfrwt>
<totfact> 0.13735153E+03</totfact>
</mgrwt>
</event>
<event>
 7    1  0.8712071E-006  0.1397830E+03  0.7546771E-02  0.1224439E+00
         -2   -1    0    0    0  501 -0.00000000000E+00  0.00000000000E+00  0.22609930026E+03  0.22609930026E+03  0.00000000000E+00 0.  1.
          2   -1    0    0  501    0  0.00000000000E+00 -0.00000000000E+00 -0.71012883538E+02  0.71012883538E+02  0.00000000000E+00 0. -1.
         23    2    1    2    0    0  0.49649793130E+01 -0.62367112000E+02  0.10601968164E+03  0.17544079121E+03  0.12499996259E+03 0.  0.
          5    1    3    3  502    0 -0.56457994587E+02 -0.78831057188E+01  0.37484763876E+02  0.68387469842E+02  0.47000000000E+01 0. -1.
         -5    1    3    3    0  502  0.61422973900E+02 -0.54484006281E+02  0.68534917768E+02  0.10705332137E+03  0.47000000000E+01 0. -1.
        -11    1    1    2    0    0 -0.44808265435E+02  0.42224002413E+02  0.46123791912E+02  0.76928871117E+02  0.00000000000E+00 0.  1.
         11    1    1    2    0    0  0.39843286122E+02  0.20143109588E+02  0.29429431677E+01  0.44742521468E+02  0.00000000000E+00 0. -1.
<mgrwt>
<rscale>  0 0.13205436E+03</rscale>
<asrwt>0</asrwt>
<pdfrwt beam="2">  1        2 0.10925059E-01 0.13978304E+03</pdfrwt>
<pdfrwt beam="1">  1       -2 0.34784507E-01 0.13978304E+03</pdfrwt>
<totfact> 0.42630656E+03</totfact>
</mgrwt>
</event>
<event>
 6    1  0.8712071E-006  0.1298641E+03  0.7546771E-02  0.1244846E+00
          1   -1    0    0  501    0  0.00000000000E+00  0.00000000000E+00  0.14309205286E+03  0.14309205286E+03  0.00000000000E+00 0. -1.
         -1   -1    0    0    0  501 -0.00000000000E+00 -0.00000000000E+00 -0.89291620028E+02  0.89291620028E+02  0.00000000000E+00 0.  1.
          5    1    1    2  502    0  0.71372191140E+01  0.55612438561E+02 -0.39871963931E+00  0.56266617072E+02  0.47000000000E+01 0. -1.
         -5    1    1    2    0  502 -0.68412231093E+01 -0.72899243764E+02  0.82882343930E+01  0.73836893924E+02  0.47000000000E+01 0.  1.
        -11    1    1    2    0    0 -0.17829855149E+02 -0.25774129051E+02  0.46150101461E+02  0.55785673141E+02  0.00000000000E+00 0.  1.
         11    1    1    2    0    0  0.17533859144E+02  0.43060934254E+02 -0.23918338369E+00  0.46494488749E+02  0.00000000000E+00 0. -1.
<mgrwt>
<rscale>  0 0.11894599E+03</rscale>
<asrwt>0</asrwt>
<pdfrwt beam="1">  1        1 0.22014162E-01 0.12986408E+03</pdfrwt>
<pdfrwt beam="2">  1       -1 0.13737172E-01 0.12986408E+03</pdfrwt>
<totfact> 0.78590923E+03</totfact>
</mgrwt>
</event>
<event>
 7    1  0.8712071E-006  0.2208993E+03  0.7546771E-02  0.1136512E+00
         -2   -1    0    0    0  501 -0.00000000000E+00  0.00000000000E+00  0.58046363111E+02  0.58046363111E+02  0.00000000000E+00 0. -1.
          2   -1    0    0  501    0  0.00000000000E+00 -0.00000000000E+00 -0.79620323442E+03  0.79620323442E+03  0.00000000000E+00 0.  1.
         23    2    1    2    0    0 -0.17685682042E+03  0.43499637959E+02 -0.31733645466E+03  0.38665091333E+03  0.12500379949E+03 0.  0.
          5    1    3    3  502    0 -0.16627811599E+03 -0.95099056431E+01 -0.24183870968E+03  0.29367822810E+03  0.47000000000E+01 0. -1.
         -5    1    3    3    0  502 -0.10578704432E+02  0.53009543602E+02 -0.75497744983E+02  0.92972685225E+02  0.47000000000E+01 0. -1.
        -11    1    1    2    0    0  0.58772872289E+02  0.26767073499E+02 -0.10642651242E+03  0.12448826968E+03  0.00000000000E+00 0. -1.
         11    1    1    2    0    0  0.11808394813E+03 -0.70266711458E+02 -0.31439390423E+03  0.34311041453E+03  0.00000000000E+00 0.  1.
<mgrwt>
<rscale>  0 0.21651028E+03</rscale>
<asrwt>0</asrwt>
<pdfrwt beam="2">  1        2 0.12249281E+00 0.22089931E+03</pdfrwt>
<pdfrwt beam="1">  1       -2 0.89302095E-02 0.22089931E+03</pdfrwt>
<totfact> 0.28192978E+03</totfact>
</mgrwt>
</event>
<event>
 7    1  0.8712071E-006  0.2179375E+03  0.7546771E-02  0.1137596E+00
         -4   -1    0    0    0  501 -0.00000000000E+00  0.00000000000E+00  0.61587384774E+03  0.61587384774E+03  0.00000000000E+00 0.  1.
          4   -1    0    0  501    0  0.00000000000E+00 -0.00000000000E+00 -0.73558420194E+02  0.73558420194E+02  0.00000000000E+00 0. -1.
         23    2    1    2    0    0 -0.12685790338E+03 -0.13521242276E+03  0.30155485210E+03  0.37206464902E+03  0.11454888609E+03 0.  0.
          5    1    3    3  502    0  0.11878462387E+02  0.80133477280E+01  0.42658379410E+02  0.45245319585E+02  0.47000000000E+01 0. -1.
         -5    1    3    3    0  502 -0.13873636577E+03 -0.14322577049E+03  0.25889647269E+03  0.32681932943E+03  0.47000000000E+01 0.  1.
        -11    1    1    2    0    0 -0.33643848047E+01  0.50222072758E+02  0.72436704280E+02  0.88208003062E+02  0.00000000000E+00 0. -1.
         11    1    1    2    0    0  0.13022228818E+03  0.84990350006E+02  0.16832387117E+03  0.22915961585E+03  0.00000000000E+00 0.  1.
<mgrwt>
<rscale>  0 0.21509206E+03</rscale>
<asrwt>0</asrwt>
<pdfrwt beam="2">  1        4 0.11316680E-01 0.21793755E+03</pdfrwt>
<pdfrwt beam="1">  1       -4 0.94749819E-01 0.21793755E+03</pdfrwt>
<totfact> 0.10704028E+02</totfact>
</mgrwt>
</event>
<event>
 7    1  0.8712071E-006  0.1271519E+03  0.7546771E-02  0.1283248E+00
          2   -1    0    0  501    0  0.00000000000E+00  0.00000000000E+00  0.13962583562E+03  0.13962583562E+03  0.00000000000E+00 0. -1.
         -2   -1    0    0    0  501 -0.00000000000E+00 -0.00000000000E+00 -0.63936873956E+02  0.63936873956E+02  0.00000000000E+00 0.  1.
         23    2    1    2    0    0 -0.23263558582E+02  0.57860538209E+00  0.15918867965E+02  0.12814449852E+03  0.12500429673E+03 0.  0.
          5    1    3    3  502    0  0.43316936660E+02 -0.19828214223E+00 -0.24621742141E+02  0.50047142811E+02  0.47000000000E+01 0. -1.
         -5    1    3    3    0  502 -0.66580495242E+02  0.77688752432E+00  0.40540610106E+02  0.78097355709E+02  0.47000000000E+01 0. -1.
        -11    1    1    2    0    0 -0.10831434530E+02 -0.40834561737E+01  0.17772435276E+02  0.21209762939E+02  0.00000000000E+00 0.  1.
         11    1    1    2    0    0  0.34094993112E+02  0.35048507916E+01  0.41997658425E+02  0.54208448120E+02  0.00000000000E+00 0. -1.
<mgrwt>
<rscale>  0 0.98609160E+02</rscale>
<asrwt>0</asrwt>
<pdfrwt beam="1">  1        2 0.21480898E-01 0.12715189E+03</pdfrwt>
<pdfrwt beam="2">  1       -2 0.98364422E-02 0.12715189E+03</pdfrwt>
<totfact> 0.16141500E+04</totfact>
</mgrwt>
</event>
<event>
 7    1  0.1100036E-005  0.1765288E+03  0.7546771E-02  0.1176768E+00
         -1   -1    0    0    0  501 -0.00000000000E+00  0.00000000000E+00  0.10805470503E+03  0.10805470503E+03  0.00000000000E+00 0.  1.
          1   -1    0    0  501    0  0.00000000000E+00 -0.00000000000E+00 -0.25518471806E+03  0.25518471806E+03  0.00000000000E+00 0. -1.
         23    2    1    2    0    0 -0.25651066779E+02 -0.12198292207E+03 -0.79132510415E+02  0.19345377537E+03  0.12499839398E+03 0.  0.
          5    1    3    3  502    0  0.27605204520E+02  0.16358838807E+01  0.12339015997E+02  0.30644163366E+02  0.47000000000E+01 0.  1.
         -5    1    3    3    0  502 -0.53256271299E+02 -0.12361880595E+03 -0.91471526412E+02  0.16280961201E+03  0.47000000000E+01 0.  1.
        -11    1    1    2    0    0 -0.85158080500E+01  0.60473460568E+02 -0.77624770728E+02  0.98768230977E+02  0.00000000000E+00 0. -1.
         11    1    1    2    0    0  0.34166874829E+02  0.61509461501E+02  0.96272681096E+01  0.71017416744E+02  0.00000000000E+00 0.  1.
<mgrwt>
<rscale>  0 0.17103950E+03</rscale>
<asrwt>0</asrwt>
<pdfrwt beam="2">  1        1 0.39259187E-01 0.17652878E+03</pdfrwt>
<pdfrwt beam="1">  1       -1 0.16623801E-01 0.17652878E+03</pdfrwt>
<totfact> 0.28734259E+03</totfact>
</mgrwt>
</event>
<event>
 7    1  0.8712071E-006  0.1267258E+03  0.7546771E-02  0.1246504E+00
          1   -1    0    0  501    0  0.00000000000E+00  0.00000000000E+00  0.99414825107E+02  0.99414825107E+02  0.00000000000E+00 0. -1.
         -1   -1    0    0    0  501 -0.00000000000E+00 -0.00000000000E+00 -0.12684750869E+03  0.12684750869E+03  0.00000000000E+00 0.  1.
         23    2    1    2    0    0 -0.65958581245E+01  0.19734464265E+02 -0.33058813811E+02  0.13096684017E+03  0.12500589438E+03 0.  0.
          5    1    3    3  502    0  0.72963811667E+01 -0.51059715330E+02 -0.27023020086E+02  0.58418022239E+02  0.47000000000E+01 0.  1.
         -5    1    3    3    0  502 -0.13892239291E+02  0.70794179595E+02 -0.60357937255E+01  0.72548817929E+02  0.47000000000E+01 0.  1.
        -11    1    1    2    0    0  0.45302420217E+02 -0.21648191866E+02  0.19882652998E+02  0.54002531226E+02  0.00000000000E+00 0. -1.
         11    1    1    2    0    0 -0.38706562092E+02  0.19137276009E+01 -0.14256522767E+02  0.41292962400E+02  0.00000000000E+00 0.  1.
<mgrwt>
<rscale>  0 0.11795798E+03</rscale>
<asrwt>0</asrwt>
<pdfrwt beam="1">  1        1 0.15294589E-01 0.12672580E+03</pdfrwt>
<pdfrwt beam="2">  1       -1 0.19515001E-01 0.12672580E+03</pdfrwt>
<totfact> 0.71794102E+03</totfact>
</mgrwt>
</event>
<event>
 7    1  0.8712071E-006  0.1757960E+03  0.7546771E-02  0.1177535E+00
         -2   -1    0    0    0  501 -0.00000000000E+00  0.00000000000E+00  0.61611586940E+03  0.61611586940E+03  0.00000000000E+00 0.  1.
          2   -1    0    0  501    0  0.00000000000E+00 -0.00000000000E+00 -0.50680861124E+02  0.50680861124E+02  0.00000000000E+00 0. -1.
         23    2    1    2    0    0  0.41448229160E+02 -0.11645297405E+03  0.41600075902E+03  0.45162025974E+03  0.12499990654E+03 0.  0.
          5    1    3    3  502    0  0.45379748876E+02 -0.84141635940E+02  0.11859084380E+03  0.15239755490E+03  0.47000000000E+01 0.  1.
         -5    1    3    3    0  502 -0.39315197162E+01 -0.32311338110E+02  0.29740991522E+03  0.29922270484E+03  0.47000000000E+01 0.  1.
        -11    1    1    2    0    0 -0.58591667566E+02  0.32002818164E+02  0.82086255482E+02  0.10580792606E+03  0.00000000000E+00 0.  1.
         11    1    1    2    0    0  0.17143438406E+02  0.84450155886E+02  0.67347993774E+02  0.10936854472E+03  0.00000000000E+00 0. -1.
<mgrwt>
<rscale>  0 0.17030050E+03</rscale>
<asrwt>0</asrwt>
<pdfrwt beam="2">  1        2 0.77970560E-02 0.17579598E+03</pdfrwt>
<pdfrwt beam="1">  1       -2 0.94787051E-01 0.17579598E+03</pdfrwt>
<totfact> 0.84127108E+02</totfact>
</mgrwt>
</event>
<event>
 7    1  0.8712071E-006  0.1795136E+03  0.7546771E-02  0.1173966E+00
          2   -1    0    0  501    0  0.00000000000E+00  0.00000000000E+00  0.71799136416E+03  0.71799136416E+03  0.00000000000E+00 0. -1.
         -2   -1    0    0    0  501 -0.00000000000E+00 -0.00000000000E+00 -0.39849946304E+02  0.39849946304E+02  0.00000000000E+00 0.  1.
         23    2    1    2    0    0 -0.57337180879E+02  0.11537840935E+03  0.32982092908E+03  0.37550897619E+03  0.12500166514E+03 0.  0.
          5    1    3    3  502    0  0.33477832743E+02  0.61802927401E+02  0.96994575603E+02  0.11987662331E+03  0.47000000000E+01 0.  1.
         -5    1    3    3    0  502 -0.90815013622E+02  0.53575481945E+02  0.23282635348E+03  0.25563235288E+03  0.47000000000E+01 0.  1.
        -11    1    1    2    0    0 -0.12289871552E+02 -0.75854946173E+02  0.15218908108E+03  0.17048909116E+03  0.00000000000E+00 0.  1.
         11    1    1    2    0    0  0.69627052430E+02 -0.39523463172E+02  0.19613140769E+03  0.21184324311E+03  0.00000000000E+00 0. -1.
<mgrwt>
<rscale>  0 0.17377638E+03</rscale>
<asrwt>0</asrwt>
<pdfrwt beam="1">  1        2 0.11046020E+00 0.17951364E+03</pdfrwt>
<pdfrwt beam="2">  1       -2 0.61307615E-02 0.17951364E+03</pdfrwt>
<totfact> 0.57038450E+03</totfact>
</mgrwt>
</event>
<event>
 7    1  0.8712071E-006  0.1617658E+03  0.7546771E-02  0.1194210E+00
          2   -1    0    0  501    0  0.00000000000E+00  0.00000000000E+00  0.21650577373E+03  0.21650577373E+03  0.00000000000E+00 0. -1.
         -2   -1    0    0    0  501 -0.00000000000E+00 -0.00000000000E+00 -0.10488456782E+03  0.10488456782E+03  0.00000000000E+00 0.  1.
         23    2    1    2    0    0  0.81354999348E+02 -0.62650862994E+02  0.39697876455E+02  0.16656560677E+03  0.12499765363E+03 0.  0.
          5    1    3    3  502    0  0.10106848997E+03 -0.11495123824E+02  0.44916377893E+02  0.11129487203E+03  0.47000000000E+01 0. -1.
         -5    1    3    3    0  502 -0.19713490621E+02 -0.51155739170E+02 -0.52185014383E+01  0.55270734749E+02  0.47000000000E+01 0. -1.
        -11    1    1    2    0    0  0.81828109508E+01  0.43290414097E+02  0.13122091170E+02  0.45969638072E+02  0.00000000000E+00 0.  1.
         11    1    1    2    0    0 -0.89537810298E+02  0.19360448897E+02  0.58801238281E+02  0.10885509670E+03  0.00000000000E+00 0. -1.
<mgrwt>
<rscale>  0 0.15521306E+03</rscale>
<asrwt>0</asrwt>
<pdfrwt beam="1">  1        2 0.33308580E-01 0.16176582E+03</pdfrwt>
<pdfrwt beam="2">  1       -2 0.16136087E-01 0.16176582E+03</pdfrwt>
<totfact> 0.45806680E+03</totfact>
</mgrwt>
</event>
<event>
 7    1  0.8712071E-006  0.1355027E+03  0.7546771E-02  0.1231521E+00
          1   -1    0    0  501    0  0.00000000000E+00  0.00000000000E+00  0.37666375286E+03  0.37666375286E+03  0.00000000000E+00 0. -1.
         -1   -1    0    0    0  501 -0.00000000000E+00 -0.00000000000E+00 -0.40597081823E+02  0.40597081823E+02  0.00000000000E+00 0.  1.
         23    2    1    2    0    0  0.38454136740E+01 -0.52170552436E+02  0.14153912307E+03  0.19594467720E+03  0.12499775764E+03 0.  0.
          5    1    3    3  502    0  0.41296382836E+02 -0.10627795781E+02 -0.83243252786E+00  0.42908323463E+02  0.47000000000E+01 0.  1.
         -5    1    3    3    0  502 -0.37450969162E+02 -0.41542756655E+02  0.14237155559E+03  0.15303635373E+03  0.47000000000E+01 0.  1.
        -11    1    1    2    0    0 -0.47257558209E+02  0.19122284701E+02  0.92811308417E+02  0.10589087567E+03  0.00000000000E+00 0. -1.
         11    1    1    2    0    0  0.43412144535E+02  0.33048267735E+02  0.10171623956E+03  0.11542528182E+03  0.00000000000E+00 0.  1.
<mgrwt>
<rscale>  0 0.12729786E+03</rscale>
<asrwt>0</asrwt>
<pdfrwt beam="1">  1        1 0.57948267E-01 0.13550274E+03</pdfrwt>
<pdfrwt beam="2">  1       -1 0.62457051E-02 0.13550274E+03</pdfrwt>
<totfact> 0.78415719E+03</totfact>
</mgrwt>
</event>
<event>
 7    1  0.8712071E-006  0.1380549E+03  0.7546771E-02  0.1227082E+00
         -1   -1    0    0    0  501 -0.00000000000E+00  0.00000000000E+00  0.38588783172E+02  0.38588783172E+02  0.00000000000E+00 0.  1.
          1   -1    0    0  501    0  0.00000000000E+00 -0.00000000000E+00 -0.41600327719E+03  0.41600327719E+03  0.00000000000E+00 0. -1.
         23    2    1    2    0    0  0.51567679296E+02 -0.31810717137E+02 -0.16087667977E+03  0.21199165796E+03  0.12404841667E+03 0.  0.
          5    1    3    3  502    0  0.64854508680E+02  0.32089842173E+02 -0.88721315160E+02  0.11458371189E+03  0.47000000000E+01 0. -1.
         -5    1    3    3    0  502 -0.13286829384E+02 -0.63900559310E+02 -0.72155364614E+02  0.97407946070E+02  0.47000000000E+01 0. -1.
        -11    1    1    2    0    0 -0.39562400018E+02 -0.54691271483E+01 -0.19260371347E+03  0.19670100480E+03  0.00000000000E+00 0. -1.
         11    1    1    2    0    0 -0.12005279278E+02  0.37279844285E+02 -0.23934100778E+02  0.45899397605E+02  0.00000000000E+00 0.  1.
<mgrwt>
<rscale>  0 0.13025188E+03</rscale>
<asrwt>0</asrwt>
<pdfrwt beam="2">  1        1 0.64000505E-01 0.13805491E+03</pdfrwt>
<pdfrwt beam="1">  1       -1 0.59367358E-02 0.13805491E+03</pdfrwt>
<totfact> 0.74717337E+03</totfact>
</mgrwt>
</event>
<event>
 7    1  0.8712071E-006  0.1403187E+03  0.7546771E-02  0.1223633E+00
         -1   -1    0    0    0  501 -0.00000000000E+00  0.00000000000E+00  0.20183286412E+03  0.20183286412E+03  0.00000000000E+00 0.  1.
          1   -1    0    0  501    0  0.00000000000E+00 -0.00000000000E+00 -0.12684386727E+03  0.12684386727E+03  0.00000000000E+00 0. -1.
         23    2    1    2    0    0 -0.18445187902E+02  0.61012249407E+02  0.14083971847E+03  0.19880936060E+03  0.12500646395E+03 0.  0.
          5    1    3    3  502    0  0.45785691858E+02  0.17790976339E+02  0.99157615029E+02  0.11075726178E+03  0.47000000000E+01 0. -1.
         -5    1    3    3    0  502 -0.64230879760E+02  0.43221273069E+02  0.41682103443E+02  0.88052098827E+02  0.47000000000E+01 0. -1.
        -11    1    1    2    0    0  0.30615375118E+02 -0.65273123618E+02 -0.82009385588E+02  0.10919441920E+03  0.00000000000E+00 0. -1.
         11    1    1    2    0    0 -0.12170187216E+02  0.42608742106E+01  0.16158663969E+02  0.20672951583E+02  0.00000000000E+00 0.  1.
<mgrwt>
<rscale>  0 0.13261026E+03</rscale>
<asrwt>0</asrwt>
<pdfrwt beam="2">  1        1 0.19514441E-01 0.14031869E+03</pdfrwt>
<pdfrwt beam="1">  1       -1 0.31051210E-01 0.14031869E+03</pdfrwt>
<totfact> 0.24663536E+03</totfact>
</mgrwt>
</event>
<event>
 7    1  0.8712071E-006  0.1380932E+03  0.7546771E-02  0.1228091E+00
         -2   -1    0    0    0  501 -0.00000000000E+00  0.00000000000E+00  0.18366999021E+03  0.18366999021E+03  0.00000000000E+00 0.  1.
          2   -1    0    0  501    0  0.00000000000E+00 -0.00000000000E+00 -0.86175351161E+02  0.86175351161E+02  0.00000000000E+00 0. -1.
         23    2    1    2    0    0  0.46134788790E+02  0.36279755168E+02  0.84812955886E+02  0.16205853088E+03  0.12500036229E+03 0.  0.
          5    1    3    3  502    0 -0.14340700110E+02  0.27711723573E+02 -0.22317939983E+02  0.38649395184E+02  0.47000000000E+01 0.  1.
         -5    1    3    3    0  502  0.60475488900E+02  0.85680315949E+01  0.10713089587E+03  0.12340913569E+03  0.47000000000E+01 0.  1.
        -11    1    1    2    0    0 -0.47680603320E+02  0.24495980128E+01  0.38400354814E+02  0.61270120885E+02  0.00000000000E+00 0.  1.
         11    1    1    2    0    0  0.15458145292E+01 -0.38729353181E+02 -0.25718671653E+02  0.46516689607E+02  0.00000000000E+00 0. -1.
<mgrwt>
<rscale>  0 0.12957281E+03</rscale>
<asrwt>0</asrwt>
<pdfrwt beam="2">  1        2 0.13257746E-01 0.13809319E+03</pdfrwt>
<pdfrwt beam="1">  1       -2 0.28256922E-01 0.13809319E+03</pdfrwt>
<totfact> 0.49196499E+03</totfact>
</mgrwt>
</event>
<event>
 7    1  0.8712071E-006  0.1343975E+03  0.7546771E-02  0.1234014E+00
         -1   -1    0    0    0  501 -0.00000000000E+00  0.00000000000E+00  0.51942608047E+02  0.51942608047E+02  0.00000000000E+00 0.  1.
          1   -1    0    0  501    0  0.00000000000E+00 -0.00000000000E+00 -0.27561403179E+03  0.27561403179E+03  0.00000000000E+00 0. -1.
         23    2    1    2    0    0  0.44396970104E+02  0.20785783665E+02 -0.10485560352E+03  0.17046227721E+03  0.12513812611E+03 0.  0.
          5    1    3    3  502    0  0.64971622047E+02  0.22111955805E+02 -0.12408628842E+03  0.14187934040E+03  0.47000000000E+01 0.  1.
         -5    1    3    3    0  502 -0.20574651943E+02 -0.13261721402E+01  0.19230684892E+02  0.28582936807E+02  0.47000000000E+01 0.  1.
        -11    1    1    2    0    0 -0.69035146642E+02 -0.39228679897E+01 -0.61819820151E+02  0.92751983961E+02  0.00000000000E+00 0.  1.
         11    1    1    2    0    0  0.24638176538E+02 -0.16862915675E+02 -0.56996000064E+02  0.64342378659E+02  0.00000000000E+00 0. -1.
<mgrwt>
<rscale>  0 0.12567787E+03</rscale>
<asrwt>0</asrwt>
<pdfrwt beam="2">  1        1 0.42402158E-01 0.13439751E+03</pdfrwt>
<pdfrwt beam="1">  1       -1 0.79911705E-02 0.13439751E+03</pdfrwt>
<totfact> 0.79829630E+03</totfact>
</mgrwt>
</event>
<event>
 7    1  0.8712071E-006  0.1326790E+03  0.7546771E-02  0.1237969E+00
         -1   -1    0    0    0  501 -0.00000000000E+00  0.00000000000E+00  0.69424356128E+02  0.69424356128E+02  0.00000000000E+00 0.  1.
          1   -1    0    0  501    0  0.00000000000E+00 -0.00000000000E+00 -0.19573540714E+03  0.19573540714E+03  0.00000000000E+00 0. -1.
         23    2    1    2    0    0  0.36207704804E+02 -0.25838009739E+02 -0.89242669974E+02  0.15989987434E+03  0.12500046014E+03 0.  0.
          5    1    3    3  502    0  0.18537562580E+02 -0.57244727831E+02 -0.10434695491E+03  0.12054450252E+03  0.47000000000E+01 0.  1.
         -5    1    3    3    0  502  0.17670142224E+02  0.31406718092E+02  0.15104284932E+02  0.39355371816E+02  0.47000000000E+01 0.  1.
        -11    1    1    2    0    0 -0.32374469000E+02  0.44028598018E+02  0.91794731536E+01  0.55415579162E+02  0.00000000000E+00 0.  1.
         11    1    1    2    0    0 -0.38332358039E+01 -0.18190588279E+02 -0.46247854187E+02  0.49844309762E+02  0.00000000000E+00 0. -1.
<mgrwt>
<rscale>  0 0.12316273E+03</rscale>
<asrwt>0</asrwt>
<pdfrwt beam="2">  1        1 0.30113140E-01 0.13267899E+03</pdfrwt>
<pdfrwt beam="1">  1       -1 0.10680670E-01 0.13267899E+03</pdfrwt>
<totfact> 0.78405818E+03</totfact>
</mgrwt>
</event>
<event>
 7    1  0.8712071E-006  0.1443344E+03  0.7546771E-02  0.1217929E+00
         -3   -1    0    0    0  501 -0.00000000000E+00  0.00000000000E+00  0.72263767505E+02  0.72263767505E+02  0.00000000000E+00 0.  1.
          3   -1    0    0  501    0  0.00000000000E+00 -0.00000000000E+00 -0.23547569605E+03  0.23547569605E+03  0.00000000000E+00 0. -1.
         23    2    1    2    0    0  0.71437198690E+02 -0.10235875989E+02 -0.10120883206E+03  0.17628287893E+03  0.12499751679E+03 0.  0.
          5    1    3    3  502    0  0.10356579632E+03 -0.26099456474E+02 -0.64952035375E+02  0.12509161720E+03  0.47000000000E+01 0. -1.
         -5    1    3    3    0  502 -0.32128597629E+02  0.15863580485E+02 -0.36256796687E+02  0.51191261729E+02  0.47000000000E+01 0. -1.
        -11    1    1    2    0    0  0.19685369327E+02  0.74422281107E+01 -0.25974431839E+02  0.33430100720E+02  0.00000000000E+00 0. -1.
         11    1    1    2    0    0 -0.91122568017E+02  0.27936478785E+01 -0.36028664647E+02  0.98026483904E+02  0.00000000000E+00 0.  1.
<mgrwt>
<rscale>  0 0.13663533E+03</rscale>
<asrwt>0</asrwt>
<pdfrwt beam="2">  1        3 0.36227030E-01 0.14433442E+03</pdfrwt>
<pdfrwt beam="1">  1       -3 0.11117503E-01 0.14433442E+03</pdfrwt>
<totfact> 0.10812622E+03</totfact>
</mgrwt>
</event>
<event>
 7    1  0.8712071E-006  0.1570790E+03  0.7546771E-02  0.1199872E+00
          2   -1    0    0  501    0  0.00000000000E+00  0.00000000000E+00  0.15884832179E+03  0.15884832179E+03  0.00000000000E+00 0. -1.
         -2   -1    0    0    0  501 -0.00000000000E+00 -0.00000000000E+00 -0.16685499734E+03  0.16685499734E+03  0.00000000000E+00 0.  1.
         23    2    1    2    0    0 -0.89431113443E+02 -0.32414844463E+02 -0.78675604390E+02  0.17568058548E+03  0.12500068478E+03 0.  0.
          5    1    3    3  502    0 -0.53773472763E+02 -0.78350387219E+02 -0.66506361098E+02  0.11608426085E+03  0.47000000000E+01 0. -1.
         -5    1    3    3    0  502 -0.35657640680E+02  0.45935542756E+02 -0.12169243292E+02  0.59596324631E+02  0.47000000000E+01 0. -1.
        -11    1    1    2    0    0  0.79806318492E+02  0.38620105111E+02  0.90772301467E+02  0.12688645201E+03  0.00000000000E+00 0. -1.
         11    1    1    2    0    0  0.96247949514E+01 -0.62052606480E+01 -0.20103372623E+02  0.23136281646E+02  0.00000000000E+00 0.  1.
<mgrwt>
<rscale>  0 0.15049007E+03</rscale>
<asrwt>0</asrwt>
<pdfrwt beam="1">  1        2 0.24438203E-01 0.15707902E+03</pdfrwt>
<pdfrwt beam="2">  1       -2 0.25670000E-01 0.15707902E+03</pdfrwt>
<totfact> 0.29102450E+03</totfact>
</mgrwt>
</event>
<event>
 7    1  0.8712071E-006  0.1620605E+03  0.7546771E-02  0.1193662E+00
         -1   -1    0    0    0  501 -0.00000000000E+00  0.00000000000E+00  0.27065212681E+02  0.27065212681E+02  0.00000000000E+00 0.  1.
          1   -1    0    0  501    0  0.00000000000E+00 -0.00000000000E+00 -0.84068893577E+03  0.84068893577E+03  0.00000000000E+00 0. -1.
         23    2    1    2    0    0 -0.56602714064E+02 -0.86226792575E+02 -0.39436278787E+03  0.42636325093E+03  0.12499874517E+03 0.  0.
          5    1    3    3  502    0  0.21149096227E+02 -0.81035012637E+02 -0.19630350256E+03  0.21347391565E+03  0.47000000000E+01 0. -1.
         -5    1    3    3    0  502 -0.77751810292E+02 -0.51917799380E+01 -0.19805928531E+03  0.21288933529E+03  0.47000000000E+01 0. -1.
        -11    1    1    2    0    0  0.22743439195E+02 -0.15918840319E+02 -0.55645301926E+02  0.62185795242E+02  0.00000000000E+00 0. -1.
         11    1    1    2    0    0  0.33859274869E+02  0.10214563289E+03 -0.36361563330E+03  0.37920510228E+03  0.00000000000E+00 0.  1.
<mgrwt>
<rscale>  0 0.15568040E+03</rscale>
<asrwt>0</asrwt>
<pdfrwt beam="2">  1        1 0.12933675E+00 0.16206052E+03</pdfrwt>
<pdfrwt beam="1">  1       -1 0.41638793E-02 0.16206052E+03</pdfrwt>
<totfact> 0.48404646E+03</totfact>
</mgrwt>
</event>
<event>
 6    1  0.8712071E-006  0.1511969E+03  0.7546771E-02  0.1219226E+00
          2   -1    0    0  501    0  0.00000000000E+00  0.00000000000E+00  0.71885040915E+03  0.71885040915E+03  0.00000000000E+00 0.  1.
         -2   -1    0    0    0  501 -0.00000000000E+00 -0.00000000000E+00 -0.21701141390E+02  0.21701141390E+02  0.00000000000E+00 0. -1.
          5    1    1    2  502    0 -0.39476027612E+02  0.78279917261E+02  0.24619821627E+03  0.26138430308E+03  0.47000000000E+01 0. -1.
         -5    1    1    2    0  502  0.43876552851E+02 -0.45222102795E+02  0.19866270681E+03  0.20846858647E+03  0.47000000000E+01 0.  1.
        -11    1    1    2    0    0 -0.15110480047E+02  0.27077837230E+02  0.13434131007E+03  0.13787357785E+03  0.00000000000E+00 0. -1.
         11    1    1    2    0    0  0.10709954808E+02 -0.60135651696E+02  0.11794703461E+03  0.13282508314E+03  0.00000000000E+00 0.  1.
<mgrwt>
<rscale>  0 0.13570665E+03</rscale>
<asrwt>0</asrwt>
<pdfrwt beam="1">  1        2 0.11059235E+00 0.15119688E+03</pdfrwt>
<pdfrwt beam="2">  1       -2 0.33386377E-02 0.15119688E+03</pdfrwt>
<totfact> 0.14057628E+04</totfact>
</mgrwt>
</event>
<event>
 7    1  0.8712071E-006  0.1974193E+03  0.7546771E-02  0.1156393E+00
         -2   -1    0    0    0  501 -0.00000000000E+00  0.00000000000E+00  0.18222098769E+03  0.18222098769E+03  0.00000000000E+00 0.  1.
          2   -1    0    0  501    0  0.00000000000E+00 -0.00000000000E+00 -0.19424853670E+03  0.19424853670E+03  0.00000000000E+00 0. -1.
         23    2    1    2    0    0  0.15270779423E+03 -0.52785266145E+01 -0.20623839879E+02  0.19849362028E+03  0.12500736482E+03 0.  0.
          5    1    3    3  502    0 -0.66115066776E+01 -0.69049213419E+01  0.29529853178E+02  0.31392549881E+02  0.47000000000E+01 0. -1.
         -5    1    3    3    0  502  0.15931930091E+03  0.16263947274E+01 -0.50153693057E+02  0.16710107040E+03  0.47000000000E+01 0. -1.
        -11    1    1    2    0    0 -0.77231967876E+02 -0.11491427368E+02 -0.38900477339E+02  0.87235754723E+02  0.00000000000E+00 0. -1.
         11    1    1    2    0    0 -0.75475826354E+02  0.16769953982E+02  0.47496768206E+02  0.90740149385E+02  0.00000000000E+00 0.  1.
<mgrwt>
<rscale>  0 0.19231169E+03</rscale>
<asrwt>0</asrwt>
<pdfrwt beam="2">  1        2 0.29884390E-01 0.19741929E+03</pdfrwt>
<pdfrwt beam="1">  1       -2 0.28033998E-01 0.19741929E+03</pdfrwt>
<totfact> 0.20123117E+03</totfact>
</mgrwt>
</event>
<event>
 7    1  0.8712071E-006  0.1262619E+03  0.7546771E-02  0.1248214E+00
          2   -1    0    0  501    0  0.00000000000E+00  0.00000000000E+00  0.41240456180E+02  0.41240456180E+02  0.00000000000E+00 0. -1.
         -2   -1    0    0    0  501 -0.00000000000E+00 -0.00000000000E+00 -0.43562587118E+03  0.43562587118E+03  0.00000000000E+00 0.  1.
         23    2    1    2    0    0 -0.51154696804E+01  0.17055308256E+02 -0.35342699878E+03  0.37530348540E+03  0.12500004446E+03 0.  0.
          5    1    3    3  502    0  0.41093762251E+02  0.53163305733E+02 -0.18231887350E+03  0.19436382381E+03  0.47000000000E+01 0.  1.
         -5    1    3    3    0  502 -0.46209231931E+02 -0.36107997477E+02 -0.17110812528E+03  0.18093966159E+03  0.47000000000E+01 0.  1.
        -11    1    1    2    0    0  0.38140605901E+02 -0.19210800696E+02 -0.51431106444E+02  0.66849976753E+02  0.00000000000E+00 0.  1.
         11    1    1    2    0    0 -0.33025136221E+02  0.21554924395E+01  0.10472690230E+02  0.34712865205E+02  0.00000000000E+00 0. -1.
<mgrwt>
<rscale>  0 0.11695053E+03</rscale>
<asrwt>0</asrwt>
<pdfrwt beam="1">  1        2 0.63446854E-02 0.12626188E+03</pdfrwt>
<pdfrwt beam="2">  1       -2 0.67019367E-01 0.12626188E+03</pdfrwt>
<totfact> 0.22997114E+03</totfact>
</mgrwt>
</event>
<event>
 7    1  0.8712071E-006  0.1465974E+03  0.7546771E-02  0.1213315E+00
          2   -1    0    0  501    0  0.00000000000E+00  0.00000000000E+00  0.72582610446E+02  0.72582610446E+02  0.00000000000E+00 0. -1.
         -2   -1    0    0    0  501 -0.00000000000E+00 -0.00000000000E+00 -0.24878938995E+03  0.24878938995E+03  0.00000000000E+00 0.  1.
         23    2    1    2    0    0  0.28147276666E+02  0.71238570093E+02 -0.10216627880E+03  0.17868618477E+03  0.12499440407E+03 0.  0.
          5    1    3    3  502    0  0.37989665779E+02  0.45949007585E+02  0.12211873852E+02  0.61038888153E+02  0.47000000000E+01 0. -1.
         -5    1    3    3    0  502 -0.98423891130E+01  0.25289562508E+02 -0.11437815266E+03  0.11764729661E+03  0.47000000000E+01 0. -1.
        -11    1    1    2    0    0  0.14217511980E+02  0.15695883491E+02 -0.48452756587E+00  0.21183322979E+02  0.00000000000E+00 0.  1.
         11    1    1    2    0    0 -0.42364788646E+02 -0.86934453583E+02 -0.73555973136E+02  0.12150249265E+03  0.00000000000E+00 0. -1.
<mgrwt>
<rscale>  0 0.14001033E+03</rscale>
<asrwt>0</asrwt>
<pdfrwt beam="1">  1        2 0.11166556E-01 0.14659742E+03</pdfrwt>
<pdfrwt beam="2">  1       -2 0.38275290E-01 0.14659742E+03</pdfrwt>
<totfact> 0.34843361E+03</totfact>
</mgrwt>
</event>
<event>
 6    1  0.8712071E-006  0.2168387E+03  0.7546771E-02  0.1153776E+00
         -4   -1    0    0    0  501 -0.00000000000E+00  0.00000000000E+00  0.97779180295E+03  0.97779180295E+03  0.00000000000E+00 0.  1.
          4   -1    0    0  501    0  0.00000000000E+00 -0.00000000000E+00 -0.34155786593E+02  0.34155786593E+02  0.00000000000E+00 0. -1.
          5    1    1    2  502    0  0.58952825684E+01  0.72483870683E+02  0.16768365420E+03  0.18283479907E+03  0.47000000000E+01 0. -1.
         -5    1    1    2    0  502 -0.11418824752E+03 -0.81439281126E+02  0.48772034630E+03  0.50750816602E+03  0.47000000000E+01 0.  1.
        -11    1    1    2    0    0  0.30477809952E+02 -0.33085243489E+02  0.15724891401E+03  0.16355656878E+03  0.00000000000E+00 0.  1.
         11    1    1    2    0    0  0.77815154998E+02  0.42040653932E+02  0.13098310185E+03  0.15804805567E+03  0.00000000000E+00 0. -1.
<mgrwt>
<rscale>  0 0.19528910E+03</rscale>
<asrwt>0</asrwt>
<pdfrwt beam="2">  1        4 0.52547371E-02 0.21683866E+03</pdfrwt>
<pdfrwt beam="1">  1       -4 0.15042949E+00 0.21683866E+03</pdfrwt>
<totfact> 0.12489787E+02</totfact>
</mgrwt>
</event>
<event>
 7    1  0.8712071E-006  0.1302323E+03  0.7546771E-02  0.1241854E+00
         -2   -1    0    0    0  501 -0.00000000000E+00  0.00000000000E+00  0.40411405676E+02  0.40411405676E+02  0.00000000000E+00 0.  1.
          2   -1    0    0  501    0  0.00000000000E+00 -0.00000000000E+00 -0.37513254452E+03  0.37513254452E+03  0.00000000000E+00 0. -1.
         23    2    1    2    0    0  0.35851316605E+02  0.66730523945E+01 -0.10784736667E+03  0.16909022735E+03  0.12502241382E+03 0.  0.
          5    1    3    3  502    0  0.20407071734E+02 -0.29235402791E+02  0.15834374289E+02  0.39293444266E+02  0.47000000000E+01 0.  1.
         -5    1    3    3    0  502  0.15444244871E+02  0.35908455186E+02 -0.12368174096E+03  0.12979678309E+03  0.47000000000E+01 0.  1.
        -11    1    1    2    0    0 -0.52929390364E+02  0.26233412406E+02 -0.13331263810E+03  0.14581485441E+03  0.00000000000E+00 0.  1.
         11    1    1    2    0    0  0.17078073760E+02 -0.32906464800E+02 -0.93561134075E+02  0.10063886843E+03  0.00000000000E+00 0. -1.
<mgrwt>
<rscale>  0 0.12075655E+03</rscale>
<asrwt>0</asrwt>
<pdfrwt beam="2">  1        2 0.57712701E-01 0.13023229E+03</pdfrwt>
<pdfrwt beam="1">  1       -2 0.62171391E-02 0.13023229E+03</pdfrwt>
<totfact> 0.11321563E+04</totfact>
</mgrwt>
</event>
<event>
 7    1  0.8712071E-006  0.1599429E+03  0.7546771E-02  0.1195825E+00
          2   -1    0    0  501    0  0.00000000000E+00  0.00000000000E+00  0.72367391221E+03  0.72367391221E+03  0.00000000000E+00 0. -1.
         -2   -1    0    0    0  501 -0.00000000000E+00 -0.00000000000E+00 -0.32116511128E+02  0.32116511128E+02  0.00000000000E+00 0.  1.
         23    2    1    2    0    0  0.81937197281E+02 -0.56954433698E+02  0.28520469114E+03  0.32699150609E+03  0.12499686950E+03 0.  0.
          5    1    3    3  502    0 -0.32587240401E+01  0.34359175946E+02  0.67880796156E+02  0.76295902517E+02  0.47000000000E+01 0.  1.
         -5    1    3    3    0  502  0.85195921321E+02 -0.91313609644E+02  0.21732389499E+03  0.25069560357E+03  0.47000000000E+01 0.  1.
        -11    1    1    2    0    0 -0.96586266901E+02  0.61118822161E+02  0.39021104958E+03  0.40660678867E+03  0.00000000000E+00 0. -1.
         11    1    1    2    0    0  0.14649069620E+02 -0.41643884628E+01  0.16141660354E+02  0.22192128582E+02  0.00000000000E+00 0.  1.
<mgrwt>
<rscale>  0 0.15384637E+03</rscale>
<asrwt>0</asrwt>
<pdfrwt beam="1">  1        2 0.11133444E+00 0.15994289E+03</pdfrwt>
<pdfrwt beam="2">  1       -2 0.49410023E-02 0.15994289E+03</pdfrwt>
<totfact> 0.77952690E+03</totfact>
</mgrwt>
</event>
<event>
 7    1  0.8712071E-006  0.3209949E+03  0.7546771E-02  0.1078524E+00
         -1   -1    0    0    0  501 -0.00000000000E+00  0.00000000000E+00  0.12903406260E+03  0.12903406260E+03  0.00000000000E+00 0.  1.
          1   -1    0    0  501    0  0.00000000000E+00 -0.00000000000E+00 -0.80244542421E+03  0.80244542421E+03  0.00000000000E+00 0. -1.
         23    2    1    2    0    0 -0.13534234896E+03 -0.22819552041E+03 -0.18411456493E+03  0.34628801392E+03  0.12500587431E+03 0.  0.
          5    1    3    3  502    0 -0.48930665460E+02 -0.77548223110E-02 -0.27797078097E+02  0.56471033577E+02  0.47000000000E+01 0.  1.
         -5    1    3    3    0  502 -0.86411683504E+02 -0.22818776559E+03 -0.15631748683E+03  0.28981698035E+03  0.47000000000E+01 0.  1.
        -11    1    1    2    0    0  0.74103468942E+02  0.23431307524E+03 -0.44830810620E+03  0.51124759112E+03  0.00000000000E+00 0. -1.
         11    1    1    2    0    0  0.61238880022E+02 -0.61175548296E+01 -0.40988690486E+02  0.73943881770E+02  0.00000000000E+00 0.  1.
<mgrwt>
<rscale>  0 0.31383165E+03</rscale>
<asrwt>0</asrwt>
<pdfrwt beam="2">  1        1 0.12345315E+00 0.32099487E+03</pdfrwt>
<pdfrwt beam="1">  1       -1 0.19851394E-01 0.32099487E+03</pdfrwt>
<totfact> 0.46894904E+02</totfact>
</mgrwt>
</event>
<event>
 7    1  0.9689685E-006  0.2140238E+03  0.7546771E-02  0.1142103E+00
         -1   -1    0    0    0  501 -0.00000000000E+00  0.00000000000E+00  0.82537447714E+02  0.82537447714E+02  0.00000000000E+00 0.  1.
          1   -1    0    0  501    0  0.00000000000E+00 -0.00000000000E+00 -0.53261291013E+03  0.53261291013E+03  0.00000000000E+00 0. -1.
         23    2    1    2    0    0 -0.88305243522E+02  0.14961002184E+03 -0.16961277851E+03  0.27308361431E+03  0.12500076441E+03 0.  0.
          5    1    3    3  502    0 -0.14232178881E+02  0.10690855310E+03 -0.15072347950E+03  0.18539593014E+03  0.47000000000E+01 0. -1.
         -5    1    3    3    0  502 -0.74073064641E+02  0.42701468743E+02 -0.18889299012E+02  0.87687684171E+02  0.47000000000E+01 0. -1.
        -11    1    1    2    0    0 -0.12239697861E+02 -0.43265412204E+02 -0.10055747746E+03  0.11015222363E+03  0.00000000000E+00 0. -1.
         11    1    1    2    0    0  0.10054494138E+03 -0.10634460963E+03 -0.17990520644E+03  0.23191451990E+03  0.00000000000E+00 0.  1.
<mgrwt>
<rscale>  0 0.20932333E+03</rscale>
<asrwt>0</asrwt>
<pdfrwt beam="2">  1        1 0.81940444E-01 0.21402375E+03</pdfrwt>
<pdfrwt beam="1">  1       -1 0.12698069E-01 0.21402375E+03</pdfrwt>
<totfact> 0.17289936E+03</totfact>
</mgrwt>
</event>
<event>
 7    1  0.8712071E-006  0.1274237E+03  0.7546771E-02  0.1246531E+00
          2   -1    0    0  501    0  0.00000000000E+00  0.00000000000E+00  0.29838203155E+03  0.29838203155E+03  0.00000000000E+00 0. -1.
         -2   -1    0    0    0  501 -0.00000000000E+00 -0.00000000000E+00 -0.44002558335E+02  0.44002558335E+02  0.00000000000E+00 0.  1.
         23    2    1    2    0    0 -0.19712323155E+02 -0.14928372244E+02  0.10038911663E+03  0.16221831824E+03  0.12500150420E+03 0.  0.
          5    1    3    3  502    0 -0.31092064237E+02  0.51172907522E+02  0.50932914395E+02  0.78750458358E+02  0.47000000000E+01 0.  1.
         -5    1    3    3    0  502  0.11379741082E+02 -0.66101279766E+02  0.49456202235E+02  0.83467859882E+02  0.47000000000E+01 0.  1.
        -11    1    1    2    0    0  0.19213551144E+02  0.40614516406E+02  0.31159302173E+02  0.54677249404E+02  0.00000000000E+00 0.  1.
         11    1    1    2    0    0  0.49877201103E+00 -0.25686144162E+02  0.12283105441E+03  0.12548902224E+03  0.00000000000E+00 0. -1.
<mgrwt>
<rscale>  0 0.11794220E+03</rscale>
<asrwt>0</asrwt>
<pdfrwt beam="1">  1        2 0.45904927E-01 0.12742373E+03</pdfrwt>
<pdfrwt beam="2">  1       -2 0.67696245E-02 0.12742373E+03</pdfrwt>
<totfact> 0.12653702E+04</totfact>
</mgrwt>
</event>
<event>
 7    1  0.8712071E-006  0.1278510E+03  0.7546771E-02  0.1245445E+00
         -2   -1    0    0    0  501 -0.00000000000E+00  0.00000000000E+00  0.14410049414E+03  0.14410049414E+03  0.00000000000E+00 0.  1.
          2   -1    0    0  501    0  0.00000000000E+00 -0.00000000000E+00 -0.10353508984E+03  0.10353508984E+03  0.00000000000E+00 0. -1.
         23    2    1    2    0    0 -0.27194679559E+01 -0.26732966333E+02  0.73453934852E+02  0.14744951074E+03  0.12499532262E+03 0.  0.
          5    1    3    3  502    0  0.27270446812E+02 -0.48451310546E+02  0.90577295032E+02  0.10638394211E+03  0.47000000000E+01 0. -1.
         -5    1    3    3    0  502 -0.29989914768E+02  0.21718344214E+02 -0.17123360180E+02  0.41065568631E+02  0.47000000000E+01 0. -1.
        -11    1    1    2    0    0  0.95574498829E+01 -0.12023326474E+02  0.25502635313E+02  0.29770616985E+02  0.00000000000E+00 0.  1.
         11    1    1    2    0    0 -0.68379819270E+01  0.38756292806E+02 -0.58391165859E+02  0.70415456253E+02  0.00000000000E+00 0. -1.
<mgrwt>
<rscale>  0 0.11858777E+03</rscale>
<asrwt>0</asrwt>
<pdfrwt beam="2">  1        2 0.15928475E-01 0.12785100E+03</pdfrwt>
<pdfrwt beam="1">  1       -2 0.22169307E-01 0.12785100E+03</pdfrwt>
<totfact> 0.60259868E+03</totfact>
</mgrwt>
</event>
<event>
 7    1  0.8712071E-006  0.1193550E+03  0.7546771E-02  0.1252603E+00
          2   -1    0    0  501    0  0.00000000000E+00  0.00000000000E+00  0.38609345597E+03  0.38609345597E+03  0.00000000000E+00 0.  1.
         -2   -1    0    0    0  501 -0.00000000000E+00 -0.00000000000E+00 -0.34010704111E+02  0.34010704111E+02  0.00000000000E+00 0. -1.
         23    2    1    2    0    0  0.61968897234E+01  0.45475627475E+02  0.13153335297E+03  0.17761374267E+03  0.11017796741E+03 0.  0.
          5    1    3    3  502    0  0.11940227099E+00  0.40660915368E+02 -0.45903498410E+01  0.41188415933E+02  0.47000000000E+01 0. -1.
         -5    1    3    3    0  502  0.60774874524E+01  0.48147121073E+01  0.13612370281E+03  0.13642532673E+03  0.47000000000E+01 0.  1.
        -11    1    1    2    0    0  0.32252763579E+02 -0.18872064621E+02  0.16819904011E+03  0.17230006580E+03  0.00000000000E+00 0. -1.
         11    1    1    2    0    0 -0.38449653302E+02 -0.26603562854E+02  0.52350358782E+02  0.70190351617E+02  0.00000000000E+00 0.  1.
<mgrwt>
<rscale>  0 0.11441682E+03</rscale>
<asrwt>0</asrwt>
<pdfrwt beam="1">  1        2 0.59398990E-01 0.11935501E+03</pdfrwt>
<pdfrwt beam="2">  1       -2 0.52324163E-02 0.11935501E+03</pdfrwt>
<totfact> 0.14142716E+04</totfact>
</mgrwt>
</event>
<event>
 7    1  0.8712071E-006  0.1288465E+03  0.7546771E-02  0.1243705E+00
          2   -1    0    0  501    0  0.00000000000E+00  0.00000000000E+00  0.17220486381E+03  0.17220486381E+03  0.00000000000E+00 0. -1.
         -2   -1    0    0    0  501 -0.00000000000E+00 -0.00000000000E+00 -0.11823475744E+03  0.11823475744E+03  0.00000000000E+00 0.  1.
         23    2    1    2    0    0 -0.14659985238E+02 -0.27602913874E+02 -0.59536150520E+02  0.14193654334E+03  0.12499837237E+03 0.  0.
          5    1    3    3  502    0  0.23309373357E+02  0.31756719335E+01 -0.83799840739E+02  0.87166020251E+02  0.47000000000E+01 0.  1.
         -5    1    3    3    0  502 -0.37969358596E+02 -0.30778585807E+02  0.24263690219E+02  0.54770523089E+02  0.47000000000E+01 0.  1.
        -11    1    1    2    0    0  0.22995129876E+02  0.42329539181E+02  0.17867950547E+02  0.51379271521E+02  0.00000000000E+00 0.  1.
         11    1    1    2    0    0 -0.83351446372E+01 -0.14726625307E+02  0.95638306340E+02  0.97123806395E+02  0.00000000000E+00 0. -1.
<mgrwt>
<rscale>  0 0.11963210E+03</rscale>
<asrwt>0</asrwt>
<pdfrwt beam="1">  1        2 0.26493056E-01 0.12884653E+03</pdfrwt>
<pdfrwt beam="2">  1       -2 0.18189963E-01 0.12884653E+03</pdfrwt>
<totfact> 0.47504738E+03</totfact>
</mgrwt>
</event>
<event>
 7    1  0.8712071E-006  0.1390558E+03  0.7546771E-02  0.1225336E+00
         -2   -1    0    0    0  501 -0.00000000000E+00  0.00000000000E+00  0.24173867705E+03  0.24173867705E+03  0.00000000000E+00 0.  1.
          2   -1    0    0  501    0  0.00000000000E+00 -0.00000000000E+00 -0.10690137995E+03  0.10690137995E+03  0.00000000000E+00 0. -1.
         23    2    1    2    0    0 -0.58585890324E+02 -0.16753127953E+02  0.18114672543E+03  0.22836515569E+03  0.12499413729E+03 0.  0.
          5    1    3    3  502    0 -0.12365067599E+02  0.50476020021E+02  0.10214411380E+03  0.11470062544E+03  0.47000000000E+01 0.  1.
         -5    1    3    3    0  502 -0.46220822725E+02 -0.67229147975E+02  0.79002611638E+02  0.11366453025E+03  0.47000000000E+01 0.  1.
        -11    1    1    2    0    0  0.30198457688E+01  0.21767755473E+02  0.22658888235E+02  0.31565485310E+02  0.00000000000E+00 0.  1.
         11    1    1    2    0    0  0.55566044555E+02 -0.50146275198E+01 -0.68968316569E+02  0.88709416000E+02  0.00000000000E+00 0. -1.
<mgrwt>
<rscale>  0 0.13143913E+03</rscale>
<asrwt>0</asrwt>
<pdfrwt beam="2">  1        2 0.16446366E-01 0.13905577E+03</pdfrwt>
<pdfrwt beam="1">  1       -2 0.37190566E-01 0.13905577E+03</pdfrwt>
<totfact> 0.23159861E+03</totfact>
</mgrwt>
</event>
<event>
 7    1  0.8712071E-006  0.1424461E+03  0.7546771E-02  0.1219565E+00
         -1   -1    0    0    0  501 -0.00000000000E+00  0.00000000000E+00  0.45393533769E+02  0.45393533769E+02  0.00000000000E+00 0.  1.
          1   -1    0    0  501    0  0.00000000000E+00 -0.00000000000E+00 -0.37352432473E+03  0.37352432473E+03  0.00000000000E+00 0. -1.
         23    2    1    2    0    0 -0.19809830469E+02 -0.65367851120E+02 -0.15817769876E+03  0.21286395505E+03  0.12500197451E+03 0.  0.
          5    1    3    3  502    0 -0.48575136939E+02 -0.56085563120E+02 -0.16548158872E+03  0.18141494020E+03  0.47000000000E+01 0. -1.
         -5    1    3    3    0  502  0.28765306470E+02 -0.92822879991E+01  0.73038899612E+01  0.31449014856E+02  0.47000000000E+01 0. -1.
        -11    1    1    2    0    0  0.24403804351E+02  0.83953198418E+02 -0.96801313603E+02  0.13043841270E+03  0.00000000000E+00 0.  1.
         11    1    1    2    0    0 -0.45939738826E+01 -0.18585347298E+02 -0.73151778592E+02  0.75615490751E+02  0.00000000000E+00 0. -1.
<mgrwt>
<rscale>  0 0.13546495E+03</rscale>
<asrwt>0</asrwt>
<pdfrwt beam="2">  1        1 0.57465282E-01 0.14244606E+03</pdfrwt>
<pdfrwt beam="1">  1       -1 0.69836205E-02 0.14244606E+03</pdfrwt>
<totfact> 0.67260993E+03</totfact>
</mgrwt>
</event>
<event>
 7    1  0.8712071E-006  0.1264924E+03  0.7546771E-02  0.1247354E+00
         -2   -1    0    0    0  501 -0.00000000000E+00  0.00000000000E+00  0.40716920057E+02  0.40716920057E+02  0.00000000000E+00 0. -1.
          2   -1    0    0  501    0  0.00000000000E+00 -0.00000000000E+00 -0.29867675502E+03  0.29867675502E+03  0.00000000000E+00 0.  1.
         23    2    1    2    0    0 -0.81348263217E+01  0.17624931450E+02 -0.15047456990E+03  0.19657801881E+03  0.12499403060E+03 0.  0.
          5    1    3    3  502    0 -0.33887767800E+02 -0.28839097003E+02 -0.93490846399E+01  0.45711811450E+02  0.47000000000E+01 0.  1.
         -5    1    3    3    0  502  0.25752941478E+02  0.46464028454E+02 -0.14112548526E+03  0.15086620736E+03  0.47000000000E+01 0.  1.
        -11    1    1    2    0    0 -0.89456399367E+01  0.18263318155E+02  0.70942649259E+01  0.21538381061E+02  0.00000000000E+00 0. -1.
         11    1    1    2    0    0  0.17080466258E+02 -0.35888249605E+02 -0.11457952999E+03  0.12127727520E+03  0.00000000000E+00 0.  1.
<mgrwt>
<rscale>  0 0.11745584E+03</rscale>
<asrwt>0</asrwt>
<pdfrwt beam="2">  1        2 0.45950269E-01 0.12649238E+03</pdfrwt>
<pdfrwt beam="1">  1       -2 0.62641416E-02 0.12649238E+03</pdfrwt>
<totfact> 0.14215488E+04</totfact>
</mgrwt>
</event>
<event>
 7    1  0.8712071E-006  0.2284608E+03  0.7546771E-02  0.1130722E+00
          2   -1    0    0  501    0  0.00000000000E+00  0.00000000000E+00  0.41503335381E+03  0.41503335381E+03  0.00000000000E+00 0. -1.
         -2   -1    0    0    0  501 -0.00000000000E+00 -0.00000000000E+00 -0.12965183710E+03  0.12965183710E+03  0.00000000000E+00 0.  1.
         23    2    1    2    0    0  0.26703248296E+02  0.18935630944E+03  0.62372860776E+02  0.23682215383E+03  0.12500193354E+03 0.  0.
          5    1    3    3  502    0 -0.47576225756E+02  0.10767806520E+03  0.27982465508E+02  0.12109158252E+03  0.47000000000E+01 0. -1.
         -5    1    3    3    0  502  0.74279474052E+02  0.81678244245E+02  0.34390395269E+02  0.11573057131E+03  0.47000000000E+01 0. -1.
        -11    1    1    2    0    0  0.33931344843E+01 -0.14176181690E+03  0.20397285422E+03  0.24842071442E+03  0.00000000000E+00 0. -1.
         11    1    1    2    0    0 -0.30096382781E+02 -0.47594492539E+02  0.19035801721E+02  0.59442322664E+02  0.00000000000E+00 0.  1.
<mgrwt>
<rscale>  0 0.22429357E+03</rscale>
<asrwt>0</asrwt>
<pdfrwt beam="1">  1        2 0.63851285E-01 0.22846085E+03</pdfrwt>
<pdfrwt beam="2">  1       -2 0.19946437E-01 0.22846085E+03</pdfrwt>
<totfact> 0.16121430E+03</totfact>
</mgrwt>
</event>
<event>
 7    1  0.8712071E-006  0.1281117E+03  0.7546771E-02  0.1243488E+00
         -1   -1    0    0    0  501 -0.00000000000E+00  0.00000000000E+00  0.14651960362E+02  0.14651960362E+02  0.00000000000E+00 0.  1.
          1   -1    0    0  501    0  0.00000000000E+00 -0.00000000000E+00 -0.88295713358E+03  0.88295713358E+03  0.00000000000E+00 0. -1.
         23    2    1    2    0    0 -0.27883163584E+02  0.31193109551E+01 -0.44006447681E+03  0.45833322121E+03  0.12500158798E+03 0.  0.
          5    1    3    3  502    0 -0.49445757248E+02 -0.18016215458E+02 -0.41625600828E+03  0.41959578329E+03  0.47000000000E+01 0.  1.
         -5    1    3    3    0  502  0.21562593663E+02  0.21135526413E+02 -0.23808468536E+02  0.38737437916E+02  0.47000000000E+01 0.  1.
        -11    1    1    2    0    0  0.31230319237E+01  0.44250941178E+02 -0.19971682365E+03  0.20458423393E+03  0.00000000000E+00 0.  1.
         11    1    1    2    0    0  0.24760131661E+02 -0.47370252133E+02 -0.22852387276E+03  0.23469163881E+03  0.00000000000E+00 0. -1.
<mgrwt>
<rscale>  0 0.11976327E+03</rscale>
<asrwt>0</asrwt>
<pdfrwt beam="2">  1        1 0.13583956E+00 0.12811166E+03</pdfrwt>
<pdfrwt beam="1">  1       -1 0.22541477E-02 0.12811166E+03</pdfrwt>
<totfact> 0.10848475E+04</totfact>
</mgrwt>
</event>
<event>
 7    1  0.8712071E-006  0.1335464E+03  0.7546771E-02  0.1234977E+00
         -2   -1    0    0    0  501 -0.00000000000E+00  0.00000000000E+00  0.22272227738E+02  0.22272227738E+02  0.00000000000E+00 0.  1.
          2   -1    0    0  501    0  0.00000000000E+00 -0.00000000000E+00 -0.68177919718E+03  0.68177919718E+03  0.00000000000E+00 0. -1.
         23    2    1    2    0    0  0.43489432662E+02  0.17857322131E+02 -0.26984412576E+03  0.30108220089E+03  0.12499769908E+03 0.  0.
          5    1    3    3  502    0  0.50596819831E+02  0.31074371150E+02 -0.42442814705E+02  0.73137796244E+02  0.47000000000E+01 0. -1.
         -5    1    3    3    0  502 -0.71073871689E+01 -0.13217049020E+02 -0.22740131106E+03  0.22794440464E+03  0.47000000000E+01 0. -1.
        -11    1    1    2    0    0  0.27844207650E+01 -0.47605071351E+02 -0.18204957621E+03  0.18819150888E+03  0.00000000000E+00 0. -1.
         11    1    1    2    0    0 -0.46273853427E+02  0.29747749220E+02 -0.20761326746E+03  0.21477771514E+03  0.00000000000E+00 0.  1.
<mgrwt>
<rscale>  0 0.12505918E+03</rscale>
<asrwt>0</asrwt>
<pdfrwt beam="2">  1        2 0.10488910E+00 0.13354639E+03</pdfrwt>
<pdfrwt beam="1">  1       -2 0.34264968E-02 0.13354639E+03</pdfrwt>
<totfact> 0.14282022E+04</totfact>
</mgrwt>
</event>
<event>
 7    1  0.8712071E-006  0.2740857E+03  0.7546771E-02  0.1100958E+00
          1   -1    0    0  501    0  0.00000000000E+00  0.00000000000E+00  0.60733853344E+03  0.60733853344E+03  0.00000000000E+00 0. -1.
         -1   -1    0    0    0  501 -0.00000000000E+00 -0.00000000000E+00 -0.11774336169E+03  0.11774336169E+03  0.00000000000E+00 0.  1.
         23    2    1    2    0    0 -0.22395571188E+03 -0.96653144673E+02  0.26643054189E+03  0.38224106368E+03  0.12500002339E+03 0.  0.
          5    1    3    3  502    0 -0.30606477299E+02 -0.42621374408E+02  0.12777829812E+03  0.13821259523E+03  0.47000000000E+01 0.  1.
         -5    1    3    3    0  502 -0.19334923458E+03 -0.54031770265E+02  0.13865224377E+03  0.24402846845E+03  0.47000000000E+01 0.  1.
        -11    1    1    2    0    0  0.77425383072E+02  0.10748161956E+02  0.25499793719E+02  0.82221970355E+02  0.00000000000E+00 0.  1.
         11    1    1    2    0    0  0.14653032881E+03  0.85904982717E+02  0.19766483614E+03  0.26061886110E+03  0.00000000000E+00 0. -1.
<mgrwt>
<rscale>  0 0.27056299E+03</rscale>
<asrwt>0</asrwt>
<pdfrwt beam="1">  1        1 0.93436696E-01 0.27408575E+03</pdfrwt>
<pdfrwt beam="2">  1       -1 0.18114364E-01 0.27408575E+03</pdfrwt>
<totfact> 0.82192871E+02</totfact>
</mgrwt>
</event>
<event>
 6    1  0.8712071E-006  0.2384139E+03  0.7546771E-02  0.1152195E+00
         -2   -1    0    0    0  501 -0.00000000000E+00  0.00000000000E+00  0.20924506111E+03  0.20924506111E+03  0.00000000000E+00 0.  1.
          2   -1    0    0  501    0  0.00000000000E+00 -0.00000000000E+00 -0.17956023933E+03  0.17956023933E+03  0.00000000000E+00 0. -1.
          5    1    1    2  502    0  0.25711252577E+02 -0.86301032228E+01 -0.66383214076E+02  0.71863539447E+02  0.47000000000E+01 0. -1.
         -5    1    1    2    0  502 -0.73612911191E+02  0.44999093130E+02  0.16477453233E+03  0.18605514123E+03  0.47000000000E+01 0.  1.
        -11    1    1    2    0    0 -0.21411989442E+02  0.13944225332E+02 -0.19171228036E+02  0.31944493992E+02  0.00000000000E+00 0.  1.
         11    1    1    2    0    0  0.69313648056E+02 -0.50313215239E+02 -0.49535268433E+02  0.98942125777E+02  0.00000000000E+00 0. -1.
<mgrwt>
<rscale>  0 0.19711666E+03</rscale>
<asrwt>0</asrwt>
<pdfrwt beam="2">  1        2 0.27624652E-01 0.23841391E+03</pdfrwt>
<pdfrwt beam="1">  1       -2 0.32191548E-01 0.23841391E+03</pdfrwt>
<totfact> 0.17171168E+03</totfact>
</mgrwt>
</event>
<event>
 7    1  0.8712071E-006  0.1281079E+03  0.7546771E-02  0.1244966E+00
         -1   -1    0    0    0  501 -0.00000000000E+00  0.00000000000E+00  0.21003095847E+03  0.21003095847E+03  0.00000000000E+00 0.  1.
          1   -1    0    0  501    0  0.00000000000E+00 -0.00000000000E+00 -0.59710817047E+02  0.59710817047E+02  0.00000000000E+00 0. -1.
         23    2    1    2    0    0  0.28060112951E+02  0.59031640354E+01  0.98110175703E+02  0.16136056176E+03  0.12485754695E+03 0.  0.
          5    1    3    3  502    0 -0.19134669151E+02 -0.48655651785E+02  0.59706216374E+02  0.79501133877E+02  0.47000000000E+01 0.  1.
         -5    1    3    3    0  502  0.47194782102E+02  0.54558815820E+02  0.38403959329E+02  0.81859427884E+02  0.47000000000E+01 0.  1.
        -11    1    1    2    0    0  0.10361686688E+02 -0.41387360446E+02  0.24294298713E+02  0.49096752496E+02  0.00000000000E+00 0. -1.
         11    1    1    2    0    0 -0.38421799639E+02  0.35484196410E+02  0.27915667007E+02  0.59284461260E+02  0.00000000000E+00 0.  1.
<mgrwt>
<rscale>  0 0.11887384E+03</rscale>
<asrwt>0</asrwt>
<pdfrwt beam="2">  1        1 0.91862796E-02 0.12810786E+03</pdfrwt>
<pdfrwt beam="1">  1       -1 0.32312455E-01 0.12810786E+03</pdfrwt>
<totfact> 0.61202085E+03</totfact>
</mgrwt>
</event>
<event>
 7    1  0.8712071E-006  0.1265056E+03  0.7546771E-02  0.1248022E+00
         -1   -1    0    0    0  501 -0.00000000000E+00  0.00000000000E+00  0.14835017380E+03  0.14835017380E+03  0.00000000000E+00 0.  1.
          1   -1    0    0  501    0  0.00000000000E+00 -0.00000000000E+00 -0.81387526522E+02  0.81387526522E+02  0.00000000000E+00 0. -1.
         23    2    1    2    0    0 -0.13022464358E+02 -0.19728117943E+02  0.46248486268E+02  0.13469438685E+03  0.12427740000E+03 0.  0.
          5    1    3    3  502    0 -0.52216489512E+02 -0.46946125694E+02  0.50408352187E+02  0.86565538553E+02  0.47000000000E+01 0.  1.
         -5    1    3    3    0  502  0.39194025155E+02  0.27218007751E+02 -0.41598659187E+01  0.48128848295E+02  0.47000000000E+01 0.  1.
        -11    1    1    2    0    0 -0.23028067032E+02  0.12157855922E+02  0.44240010498E+02  0.51335015931E+02  0.00000000000E+00 0.  1.
         11    1    1    2    0    0  0.36050531390E+02  0.75702620207E+01 -0.23525849483E+02  0.43708297547E+02  0.00000000000E+00 0. -1.
<mgrwt>
<rscale>  0 0.11706329E+03</rscale>
<asrwt>0</asrwt>
<pdfrwt beam="2">  1        1 0.12521158E-01 0.12650555E+03</pdfrwt>
<pdfrwt beam="1">  1       -1 0.22823104E-01 0.12650555E+03</pdfrwt>
<totfact> 0.72320619E+03</totfact>
</mgrwt>
</event>
<event>
 7    1  0.8712071E-006  0.1502513E+03  0.7546771E-02  0.1209794E+00
         -2   -1    0    0    0  501 -0.00000000000E+00  0.00000000000E+00  0.67365105728E+02  0.67365105728E+02  0.00000000000E+00 0.  1.
          2   -1    0    0  501    0  0.00000000000E+00 -0.00000000000E+00 -0.28204937698E+03  0.28204937698E+03  0.00000000000E+00 0. -1.
         23    2    1    2    0    0 -0.80324307437E+02  0.22385018485E+02 -0.91271400627E+02  0.17580078995E+03  0.12498946259E+03 0.  0.
          5    1    3    3  502    0 -0.55298132873E+02  0.53664006285E+02 -0.13091595503E+01  0.77210834528E+02  0.47000000000E+01 0.  1.
         -5    1    3    3    0  502 -0.25026174565E+02 -0.31278987800E+02 -0.89962241077E+02  0.98589955425E+02  0.47000000000E+01 0.  1.
        -11    1    1    2    0    0  0.63380166821E+02 -0.35907300830E+02 -0.31821996267E+02  0.79492259029E+02  0.00000000000E+00 0.  1.
         11    1    1    2    0    0  0.16944140617E+02  0.13522282345E+02 -0.91590874354E+02  0.94121433723E+02  0.00000000000E+00 0. -1.
<mgrwt>
<rscale>  0 0.14265990E+03</rscale>
<asrwt>0</asrwt>
<pdfrwt beam="2">  1        2 0.43392212E-01 0.15025129E+03</pdfrwt>
<pdfrwt beam="1">  1       -2 0.10363862E-01 0.15025129E+03</pdfrwt>
<totfact> 0.70226185E+03</totfact>
</mgrwt>
</event>
<event>
 7    1  0.8712071E-006  0.1262445E+03  0.7546771E-02  0.1247080E+00
         -1   -1    0    0    0  501 -0.00000000000E+00  0.00000000000E+00  0.42810285989E+03  0.42810285989E+03  0.00000000000E+00 0.  1.
          1   -1    0    0  501    0  0.00000000000E+00 -0.00000000000E+00 -0.28656369784E+02  0.28656369784E+02  0.00000000000E+00 0. -1.
         23    2    1    2    0    0 -0.70840533863E+01 -0.16217332175E+02  0.23641074780E+03  0.26800691095E+03  0.12499790785E+03 0.  0.
          5    1    3    3  502    0 -0.39246314937E+02  0.39142077765E+02  0.15268310759E+03  0.16250106717E+03  0.47000000000E+01 0.  1.
         -5    1    3    3    0  502  0.32162261550E+02 -0.55359409940E+02  0.83727640216E+02  0.10550584379E+03  0.47000000000E+01 0.  1.
        -11    1    1    2    0    0  0.50390344594E+02  0.77282042372E+01  0.88310426559E+02  0.10196883547E+03  0.00000000000E+00 0. -1.
         11    1    1    2    0    0 -0.43306291208E+02  0.84891279377E+01  0.74725315748E+02  0.86783483249E+02  0.00000000000E+00 0.  1.
<mgrwt>
<rscale>  0 0.11761725E+03</rscale>
<asrwt>0</asrwt>
<pdfrwt beam="2">  1        1 0.44086726E-02 0.12624446E+03</pdfrwt>
<pdfrwt beam="1">  1       -1 0.65861974E-01 0.12624446E+03</pdfrwt>
<totfact> 0.45700474E+03</totfact>
</mgrwt>
</event>
<event>
 7    1  0.8712071E-006  0.1436854E+03  0.7546771E-02  0.1218155E+00
          3   -1    0    0  501    0  0.00000000000E+00  0.00000000000E+00  0.91675767610E+02  0.91675767610E+02  0.00000000000E+00 0. -1.
         -3   -1    0    0    0  501 -0.00000000000E+00 -0.00000000000E+00 -0.18617181611E+03  0.18617181611E+03  0.00000000000E+00 0.  1.
         23    2    1    2    0    0 -0.70089789519E+02 -0.10381699389E+02 -0.61913597441E+02  0.15645702504E+03  0.12500059544E+03 0.  0.
          5    1    3    3  502    0 -0.52726624012E+02  0.29833916112E+02 -0.86726353047E+02  0.10589480508E+03  0.47000000000E+01 0.  1.
         -5    1    3    3    0  502 -0.17363165507E+02 -0.40215615501E+02  0.24812755607E+02  0.50562219961E+02  0.47000000000E+01 0.  1.
        -11    1    1    2    0    0  0.32263292383E+02  0.45905914243E+02  0.64194775924E+01  0.56475505225E+02  0.00000000000E+00 0.  1.
         11    1    1    2    0    0  0.37826497136E+02 -0.35524214854E+02 -0.39001928655E+02  0.64915053457E+02  0.00000000000E+00 0. -1.
<mgrwt>
<rscale>  0 0.13647300E+03</rscale>
<asrwt>0</asrwt>
<pdfrwt beam="1">  1        3 0.14103965E-01 0.14368545E+03</pdfrwt>
<pdfrwt beam="2">  1       -3 0.28641817E-01 0.14368545E+03</pdfrwt>
<totfact> 0.11224888E+03</totfact>
</mgrwt>
</event>
<event>
 7    1  0.8712071E-006  0.1632315E+03  0.7546771E-02  0.1192174E+00
          1   -1    0    0  501    0  0.00000000000E+00  0.00000000000E+00  0.26462250089E+02  0.26462250089E+02  0.00000000000E+00 0. -1.
         -1   -1    0    0    0  501 -0.00000000000E+00 -0.00000000000E+00 -0.87319409336E+03  0.87319409336E+03  0.00000000000E+00 0.  1.
         23    2    1    2    0    0 -0.94613576252E+01 -0.10454958407E+03 -0.49660156163E+03  0.52274050175E+03  0.12499755334E+03 0.  0.
          5    1    3    3  502    0 -0.41073542802E+02  0.11459595860E+02 -0.13069244969E+03  0.13755349746E+03  0.47000000000E+01 0.  1.
         -5    1    3    3    0  502  0.31612185177E+02 -0.11600917993E+03 -0.36590911193E+03  0.38518700429E+03  0.47000000000E+01 0.  1.
        -11    1    1    2    0    0  0.37919978252E+02  0.90920333807E+02 -0.19343318001E+03  0.21707332166E+03  0.00000000000E+00 0. -1.
         11    1    1    2    0    0 -0.28458620627E+02  0.13629250258E+02 -0.15669710164E+03  0.15984252004E+03  0.00000000000E+00 0.  1.
<mgrwt>
<rscale>  0 0.15695885E+03</rscale>
<asrwt>0</asrwt>
<pdfrwt beam="1">  1        1 0.40711150E-02 0.16323150E+03</pdfrwt>
<pdfrwt beam="2">  1       -1 0.13433757E+00 0.16323150E+03</pdfrwt>
<totfact> 0.10982521E+03</totfact>
</mgrwt>
</event>
<event>
 7    1  0.8712071E-006  0.1409092E+03  0.7546771E-02  0.1223848E+00
          1   -1    0    0  501    0  0.00000000000E+00  0.00000000000E+00  0.60971567606E+02  0.60971567606E+02  0.00000000000E+00 0. -1.
         -1   -1    0    0    0  501 -0.00000000000E+00 -0.00000000000E+00 -0.26445272269E+03  0.26445272269E+03  0.00000000000E+00 0.  1.
         23    2    1    2    0    0  0.64223031248E+02 -0.10355766090E+02 -0.13877065843E+03  0.19776931774E+03  0.12499427092E+03 0.  0.
          5    1    3    3  502    0  0.11023871501E+02 -0.64050057417E+02 -0.65657704324E+02  0.92503836326E+02  0.47000000000E+01 0. -1.
         -5    1    3    3    0  502  0.53199159747E+02  0.53694291328E+02 -0.73112954107E+02  0.10526548141E+03  0.47000000000E+01 0. -1.
        -11    1    1    2    0    0 -0.15817760714E+02  0.46474574480E+02 -0.35385946125E+02  0.60516549887E+02  0.00000000000E+00 0.  1.
         11    1    1    2    0    0 -0.48405270534E+02 -0.36118808390E+02 -0.29324550530E+02  0.67138422671E+02  0.00000000000E+00 0. -1.
<mgrwt>
<rscale>  0 0.13246164E+03</rscale>
<asrwt>0</asrwt>
<pdfrwt beam="1">  1        1 0.93802413E-02 0.14090922E+03</pdfrwt>
<pdfrwt beam="2">  1       -1 0.40685033E-01 0.14090922E+03</pdfrwt>
<totfact> 0.40251288E+03</totfact>
</mgrwt>
</event>
<event>
 7    1  0.8712071E-006  0.1761717E+03  0.7546771E-02  0.1179553E+00
         -2   -1    0    0    0  501 -0.00000000000E+00  0.00000000000E+00  0.90049794190E+02  0.90049794190E+02  0.00000000000E+00 0.  1.
          2   -1    0    0  501    0  0.00000000000E+00 -0.00000000000E+00 -0.29772981629E+03  0.29772981629E+03  0.00000000000E+00 0. -1.
         23    2    1    2    0    0 -0.10356168996E+03  0.68458804254E+02 -0.81734866591E+02  0.19420883309E+03  0.12499940371E+03 0.  0.
          5    1    3    3  502    0 -0.28204552764E+02  0.85226856719E+02 -0.13180328086E+02  0.90856617543E+02  0.47000000000E+01 0. -1.
         -5    1    3    3    0  502 -0.75357137193E+02 -0.16768052465E+02 -0.68554538505E+02  0.10335221555E+03  0.47000000000E+01 0. -1.
        -11    1    1    2    0    0  0.83943566366E+02 -0.10197338072E+02 -0.61900829561E+02  0.10479609124E+03  0.00000000000E+00 0.  1.
         11    1    1    2    0    0  0.19618123592E+02 -0.58261466182E+02 -0.64044325946E+02  0.88774686149E+02  0.00000000000E+00 0. -1.
<mgrwt>
<rscale>  0 0.16837502E+03</rscale>
<asrwt>0</asrwt>
<pdfrwt beam="2">  1        2 0.45804587E-01 0.17617174E+03</pdfrwt>
<pdfrwt beam="1">  1       -2 0.13853815E-01 0.17617174E+03</pdfrwt>
<totfact> 0.41990452E+03</totfact>
</mgrwt>
</event>
<event>
 7    1  0.8712071E-006  0.1368493E+03  0.7546771E-02  0.1229408E+00
         -1   -1    0    0    0  501 -0.00000000000E+00  0.00000000000E+00  0.38494167524E+02  0.38494167524E+02  0.00000000000E+00 0.  1.
          1   -1    0    0  501    0  0.00000000000E+00 -0.00000000000E+00 -0.50150103135E+03  0.50150103135E+03  0.00000000000E+00 0. -1.
         23    2    1    2    0    0  0.55227381827E+02  0.75676466504E+01 -0.12462861794E+03  0.18509460869E+03  0.12498155375E+03 0.  0.
          5    1    3    3  502    0 -0.20432132795E+02 -0.38636588309E+02 -0.63800056064E+02  0.77477707507E+02  0.47000000000E+01 0. -1.
         -5    1    3    3    0  502  0.75659514621E+02  0.46204234960E+02 -0.60828561878E+02  0.10761690119E+03  0.47000000000E+01 0. -1.
        -11    1    1    2    0    0 -0.20542155396E+02 -0.48878542376E+02 -0.16154168152E+03  0.17002001918E+03  0.00000000000E+00 0.  1.
         11    1    1    2    0    0 -0.34685226431E+02  0.41310895726E+02 -0.17683656436E+03  0.18488057100E+03  0.00000000000E+00 0. -1.
<mgrwt>
<rscale>  0 0.12869282E+03</rscale>
<asrwt>0</asrwt>
<pdfrwt beam="2">  1        1 0.77153999E-01 0.13684927E+03</pdfrwt>
<pdfrwt beam="1">  1       -1 0.59221801E-02 0.13684927E+03</pdfrwt>
<totfact> 0.58952068E+03</totfact>
</mgrwt>
</event>
<event>
 7    1  0.8712071E-006  0.1412261E+03  0.7546771E-02  0.1222386E+00
          1   -1    0    0  501    0  0.00000000000E+00  0.00000000000E+00  0.43637991525E+03  0.43637991525E+03  0.00000000000E+00 0. -1.
         -1   -1    0    0    0  501 -0.00000000000E+00 -0.00000000000E+00 -0.40290437035E+02  0.40290437035E+02  0.00000000000E+00 0.  1.
         23    2    1    2    0    0  0.93037453067E+01  0.65053277515E+02  0.15008045787E+03  0.20607993956E+03  0.12500523614E+03 0.  0.
          5    1    3    3  502    0  0.21220392620E+02 -0.16544449647E+02  0.11171787702E+03  0.11500868630E+03  0.47000000000E+01 0. -1.
         -5    1    3    3    0  502 -0.11916647313E+02  0.81597727162E+02  0.38362580843E+02  0.91071253259E+02  0.47000000000E+01 0. -1.
        -11    1    1    2    0    0 -0.21915864015E+02  0.16988804877E+02  0.85570677787E+02  0.89951461820E+02  0.00000000000E+00 0.  1.
         11    1    1    2    0    0  0.12612118709E+02 -0.82042082392E+02  0.16043834256E+03  0.18063895091E+03  0.00000000000E+00 0. -1.
<mgrwt>
<rscale>  0 0.13347692E+03</rscale>
<asrwt>0</asrwt>
<pdfrwt beam="1">  1        1 0.67135368E-01 0.14122605E+03</pdfrwt>
<pdfrwt beam="2">  1       -1 0.61985291E-02 0.14122605E+03</pdfrwt>
<totfact> 0.66019027E+03</totfact>
</mgrwt>
</event>
<event>
 7    1  0.8712071E-006  0.1356785E+03  0.7546771E-02  0.1231449E+00
         -2   -1    0    0    0  501 -0.00000000000E+00  0.00000000000E+00  0.10006839684E+03  0.10006839684E+03  0.00000000000E+00 0. -1.
          2   -1    0    0  501    0  0.00000000000E+00 -0.00000000000E+00 -0.19275683338E+03  0.19275683338E+03  0.00000000000E+00 0.  1.
         23    2    1    2    0    0  0.21797607439E+02  0.48602870005E+02  0.21645294971E+02  0.13739420754E+03  0.12478491418E+03 0.  0.
          5    1    3    3  502    0 -0.20438665558E+02  0.22667834743E+02 -0.44771796601E+02  0.54389094059E+02  0.47000000000E+01 0.  1.
         -5    1    3    3    0  502  0.42236272996E+02  0.25935035262E+02  0.66417091573E+02  0.83005113479E+02  0.47000000000E+01 0.  1.
        -11    1    1    2    0    0  0.15948577550E+02 -0.22659512980E+02 -0.10512082978E+03  0.10871154267E+03  0.00000000000E+00 0.  1.
         11    1    1    2    0    0 -0.37746184989E+02 -0.25943357025E+02 -0.92129017298E+01  0.46719480019E+02  0.00000000000E+00 0. -1.
<mgrwt>
<rscale>  0 0.12734533E+03</rscale>
<asrwt>0</asrwt>
<pdfrwt beam="2">  1        2 0.29654897E-01 0.13567848E+03</pdfrwt>
<pdfrwt beam="1">  1       -2 0.15395138E-01 0.13567848E+03</pdfrwt>
<totfact> 0.55541298E+03</totfact>
</mgrwt>
</event>
<event>
 7    1  0.8712071E-006  0.1334943E+03  0.7546771E-02  0.1236259E+00
         -2   -1    0    0    0  501 -0.00000000000E+00  0.00000000000E+00  0.61773154573E+02  0.61773154573E+02  0.00000000000E+00 0.  1.
          2   -1    0    0  501    0  0.00000000000E+00 -0.00000000000E+00 -0.23661227928E+03  0.23661227928E+03  0.00000000000E+00 0. -1.
         23    2    1    2    0    0  0.33462225985E+02 -0.32809661771E+02 -0.61037494463E+02  0.14678659798E+03  0.12499814056E+03 0.  0.
          5    1    3    3  502    0  0.27761736679E+01  0.47282181184E+02 -0.21614160155E+02  0.52274025261E+02  0.47000000000E+01 0.  1.
         -5    1    3    3    0  502  0.30686052317E+02 -0.80091842955E+02 -0.39423334308E+02  0.94512572723E+02  0.47000000000E+01 0.  1.
        -11    1    1    2    0    0 -0.49738724135E+02  0.22503551300E+02 -0.23793935123E+02  0.59552513367E+02  0.00000000000E+00 0.  1.
         11    1    1    2    0    0  0.16276498150E+02  0.10306110471E+02 -0.90007695121E+02  0.92046322501E+02  0.00000000000E+00 0. -1.
<mgrwt>
<rscale>  0 0.12424165E+03</rscale>
<asrwt>0</asrwt>
<pdfrwt beam="2">  1        2 0.36401889E-01 0.13349431E+03</pdfrwt>
<pdfrwt beam="1">  1       -2 0.95035622E-02 0.13349431E+03</pdfrwt>
<totfact> 0.96239349E+03</totfact>
</mgrwt>
</event>
<event>
 7    1  0.8712071E-006  0.1294421E+03  0.7546771E-02  0.1242620E+00
          1   -1    0    0  501    0  0.00000000000E+00  0.00000000000E+00  0.68946602278E+02  0.68946602278E+02  0.00000000000E+00 0. -1.
         -1   -1    0    0    0  501 -0.00000000000E+00 -0.00000000000E+00 -0.21618939528E+03  0.21618939528E+03  0.00000000000E+00 0.  1.
         23    2    1    2    0    0  0.33368175846E+02 -0.41070083106E+01 -0.13631828940E+03  0.18798386446E+03  0.12499981839E+03 0.  0.
          5    1    3    3  502    0 -0.28449368717E+01  0.55410792006E+02 -0.83791256173E+02  0.10060573616E+03  0.47000000000E+01 0. -1.
         -5    1    3    3    0  502  0.36213112718E+02 -0.59517800317E+02 -0.52527033222E+02  0.87378128307E+02  0.47000000000E+01 0. -1.
        -11    1    1    2    0    0  0.16299843764E+02 -0.31442967292E+02 -0.26685003585E+01  0.35517122533E+02  0.00000000000E+00 0.  1.
         11    1    1    2    0    0 -0.49668019611E+02  0.35549975602E+02 -0.82560032487E+01  0.61635010562E+02  0.00000000000E+00 0. -1.
<mgrwt>
<rscale>  0 0.12028984E+03</rscale>
<asrwt>0</asrwt>
<pdfrwt beam="1">  1        1 0.10607170E-01 0.12944210E+03</pdfrwt>
<pdfrwt beam="2">  1       -1 0.33259907E-01 0.12944210E+03</pdfrwt>
<totfact> 0.48199266E+03</totfact>
</mgrwt>
</event>
<event>
 7    1  0.8712071E-006  0.1960867E+03  0.7546771E-02  0.1157268E+00
         -3   -1    0    0    0  501 -0.00000000000E+00  0.00000000000E+00  0.22262248812E+03  0.22262248812E+03  0.00000000000E+00 0.  1.
          3   -1    0    0  501    0  0.00000000000E+00 -0.00000000000E+00 -0.17393711446E+03  0.17393711446E+03  0.00000000000E+00 0. -1.
         23    2    1    2    0    0  0.36499735060E+02 -0.14660600318E+03  0.87356051616E+02  0.21466501088E+03  0.12499774523E+03 0.  0.
          5    1    3    3  502    0 -0.44078729517E+02 -0.69189637010E+02  0.52530855566E+02  0.97528052640E+02  0.47000000000E+01 0. -1.
         -5    1    3    3    0  502  0.80578464577E+02 -0.77416366170E+02  0.34825196050E+02  0.11713695823E+03  0.47000000000E+01 0. -1.
        -11    1    1    2    0    0  0.17210637323E+02 -0.40585667284E+01 -0.20228201896E+01  0.17798028050E+02  0.00000000000E+00 0.  1.
         11    1    1    2    0    0 -0.53710372383E+02  0.15066456991E+03 -0.36647857765E+02  0.16409656366E+03  0.00000000000E+00 0. -1.
<mgrwt>
<rscale>  0 0.19132872E+03</rscale>
<asrwt>0</asrwt>
<pdfrwt beam="2">  1        3 0.26759556E-01 0.19608668E+03</pdfrwt>
<pdfrwt beam="1">  1       -3 0.34249614E-01 0.19608668E+03</pdfrwt>
<totfact> 0.27047146E+02</totfact>
</mgrwt>
</event>
<event>
 7    1  0.8712071E-006  0.1312814E+03  0.7546771E-02  0.1238044E+00
          1   -1    0    0  501    0  0.00000000000E+00  0.00000000000E+00  0.23243947088E+03  0.23243947088E+03  0.00000000000E+00 0. -1.
         -1   -1    0    0    0  501 -0.00000000000E+00 -0.00000000000E+00 -0.58623598195E+02  0.58623598195E+02  0.00000000000E+00 0.  1.
         23    2    1    2    0    0  0.98918644035E+01 -0.38892474861E+02  0.87245070619E+02  0.15762772853E+03  0.12499729946E+03 0.  0.
          5    1    3    3  502    0  0.56268576709E+02  0.14612502903E+02  0.25865475849E+02  0.63802749210E+02  0.47000000000E+01 0.  1.
         -5    1    3    3    0  502 -0.46376712305E+02 -0.53504977764E+02  0.61379594770E+02  0.93824979317E+02  0.47000000000E+01 0.  1.
        -11    1    1    2    0    0  0.70317068952E+01  0.23592673608E+02 -0.15337098730E+02  0.29004926259E+02  0.00000000000E+00 0.  1.
         11    1    1    2    0    0 -0.16923571299E+02  0.15299801253E+02  0.10190790080E+03  0.10443041429E+03  0.00000000000E+00 0. -1.
<mgrwt>
<rscale>  0 0.12311536E+03</rscale>
<asrwt>0</asrwt>
<pdfrwt beam="1">  1        1 0.35759918E-01 0.13128137E+03</pdfrwt>
<pdfrwt beam="2">  1       -1 0.90190152E-02 0.13128137E+03</pdfrwt>
<totfact> 0.81921307E+03</totfact>
</mgrwt>
</event>
<event>
 7    1  0.8712071E-006  0.1303852E+03  0.7546771E-02  0.1240326E+00
          1   -1    0    0  501    0  0.00000000000E+00  0.00000000000E+00  0.39015960201E+02  0.39015960201E+02  0.00000000000E+00 0. -1.
         -1   -1    0    0    0  501 -0.00000000000E+00 -0.00000000000E+00 -0.34008460475E+03  0.34008460475E+03  0.00000000000E+00 0.  1.
         23    2    1    2    0    0 -0.60193881586E+01 -0.36593411112E+02 -0.18885498593E+03  0.22949184292E+03  0.12499995793E+03 0.  0.
          5    1    3    3  502    0  0.15630533382E+02 -0.46179531470E+02 -0.19778079708E+03  0.20375523648E+03  0.47000000000E+01 0.  1.
         -5    1    3    3    0  502 -0.21649921541E+02  0.95861203588E+01  0.89258111444E+01  0.25736606436E+02  0.47000000000E+01 0.  1.
        -11    1    1    2    0    0  0.15301927027E+02 -0.28943155940E+02 -0.38518748852E+02  0.50552440689E+02  0.00000000000E+00 0.  1.
         11    1    1    2    0    0 -0.92825388680E+01  0.65536567052E+02 -0.73694909762E+02  0.99056281343E+02  0.00000000000E+00 0. -1.
<mgrwt>
<rscale>  0 0.12169531E+03</rscale>
<asrwt>0</asrwt>
<pdfrwt beam="1">  1        1 0.60024557E-02 0.13038520E+03</pdfrwt>
<pdfrwt beam="2">  1       -1 0.52320706E-01 0.13038520E+03</pdfrwt>
<totfact> 0.46443237E+03</totfact>
</mgrwt>
</event>
<event>
 7    1  0.8712071E-006  0.1270532E+03  0.7546771E-02  0.1246161E+00
         -1   -1    0    0    0  501 -0.00000000000E+00  0.00000000000E+00  0.12546248091E+02  0.12546248091E+02  0.00000000000E+00 0.  1.
          1   -1    0    0  501    0  0.00000000000E+00 -0.00000000000E+00 -0.98313896081E+03  0.98313896081E+03  0.00000000000E+00 0. -1.
         23    2    1    2    0    0  0.13678294784E+02  0.18102213596E+02 -0.54832357286E+03  0.56285100495E+03  0.12501090883E+03 0.  0.
          5    1    3    3  502    0 -0.20218217539E+02 -0.13271269270E+02 -0.18031983332E+02  0.30531055196E+02  0.47000000000E+01 0.  1.
         -5    1    3    3    0  502  0.33896512323E+02  0.31373482866E+02 -0.53029158953E+03  0.53231994975E+03  0.47000000000E+01 0.  1.
        -11    1    1    2    0    0  0.19789568144E+02  0.29022797510E+02 -0.11774642588E+03  0.12287461328E+03  0.00000000000E+00 0. -1.
         11    1    1    2    0    0 -0.33467862928E+02 -0.47125011106E+02 -0.30452271398E+03  0.30995959067E+03  0.00000000000E+00 0.  1.
<mgrwt>
<rscale>  0 0.11816137E+03</rscale>
<asrwt>0</asrwt>
<pdfrwt beam="2">  1        1 0.15125211E+00 0.12705319E+03</pdfrwt>
<pdfrwt beam="1">  1       -1 0.19301925E-02 0.12705319E+03</pdfrwt>
<totfact> 0.11396031E+04</totfact>
</mgrwt>
</event>
<event>
 7    1  0.8712071E-006  0.1649685E+03  0.7546771E-02  0.1190385E+00
          2   -1    0    0  501    0  0.00000000000E+00  0.00000000000E+00  0.44100814057E+03  0.44100814057E+03  0.00000000000E+00 0. -1.
         -2   -1    0    0    0  501 -0.00000000000E+00 -0.00000000000E+00 -0.53961844680E+02  0.53961844680E+02  0.00000000000E+00 0.  1.
         23    2    1    2    0    0 -0.10016517871E+03  0.39448748830E+02  0.17469666662E+03  0.24027800755E+03  0.12500131509E+03 0.  0.
          5    1    3    3  502    0 -0.12663415789E+02 -0.13335430997E+02 -0.15374413237E+02  0.24426592102E+02  0.47000000000E+01 0.  1.
         -5    1    3    3    0  502 -0.87501762918E+02  0.52784179827E+02  0.19007107985E+03  0.21585141545E+03  0.47000000000E+01 0.  1.
        -11    1    1    2    0    0  0.10022451386E+03 -0.18834532479E+02  0.10884312821E+03  0.14915267128E+03  0.00000000000E+00 0.  1.
         11    1    1    2    0    0 -0.59335154836E-01 -0.20614216351E+02  0.10350650106E+03  0.10553930641E+03  0.00000000000E+00 0. -1.
<mgrwt>
<rscale>  0 0.15851378E+03</rscale>
<asrwt>0</asrwt>
<pdfrwt beam="1">  1        2 0.67847404E-01 0.16496847E+03</pdfrwt>
<pdfrwt beam="2">  1       -2 0.83018226E-02 0.16496847E+03</pdfrwt>
<totfact> 0.61976969E+03</totfact>
</mgrwt>
</event>
<event>
 7    1  0.8712071E-006  0.1641701E+03  0.7546771E-02  0.1191148E+00
         -2   -1    0    0    0  501 -0.00000000000E+00  0.00000000000E+00  0.28323166106E+02  0.28323166106E+02  0.00000000000E+00 0.  1.
          2   -1    0    0  501    0  0.00000000000E+00 -0.00000000000E+00 -0.89088592068E+03  0.89088592068E+03  0.00000000000E+00 0. -1.
         23    2    1    2    0    0 -0.34464750550E+02 -0.10068386591E+03 -0.33149714714E+03  0.36992185570E+03  0.12500704333E+03 0.  0.
          5    1    3    3  502    0 -0.57792735639E+02 -0.76366171015E+02 -0.11041673132E+03  0.14623863006E+03  0.47000000000E+01 0. -1.
         -5    1    3    3    0  502  0.23327985089E+02 -0.24317694896E+02 -0.22108041582E+03  0.22368322564E+03  0.47000000000E+01 0. -1.
        -11    1    1    2    0    0  0.31138434641E+02  0.55419386409E+01 -0.52071019452E+02  0.60923774198E+02  0.00000000000E+00 0.  1.
         11    1    1    2    0    0  0.33263159089E+01  0.95141927270E+02 -0.47899458799E+03  0.48836345689E+03  0.00000000000E+00 0. -1.
<mgrwt>
<rscale>  0 0.15784820E+03</rscale>
<asrwt>0</asrwt>
<pdfrwt beam="2">  1        2 0.13705936E+00 0.16417010E+03</pdfrwt>
<pdfrwt beam="1">  1       -2 0.43574106E-02 0.16417010E+03</pdfrwt>
<totfact> 0.72606939E+03</totfact>
</mgrwt>
</event>
<event>
 7    1  0.8712071E-006  0.1412789E+03  0.7546771E-02  0.1223053E+00
          1   -1    0    0  501    0  0.00000000000E+00  0.00000000000E+00  0.48465902677E+03  0.48465902677E+03  0.00000000000E+00 0. -1.
         -1   -1    0    0    0  501 -0.00000000000E+00 -0.00000000000E+00 -0.66595494970E+02  0.66595494970E+02  0.00000000000E+00 0.  1.
         23    2    1    2    0    0 -0.52452110391E+02 -0.31905892343E+02  0.25836052449E+02  0.14362181655E+03  0.12724195350E+03 0.  0.
          5    1    3    3  502    0 -0.23106871449E+01  0.40221637513E+02  0.37056143906E+02  0.54939668733E+02  0.47000000000E+01 0. -1.
         -5    1    3    3    0  502 -0.50141423246E+02 -0.72127529856E+02 -0.11220091457E+02  0.88682147812E+02  0.47000000000E+01 0.  1.
        -11    1    1    2    0    0  0.77552373511E+01  0.55341653287E+02  0.26360601288E+03  0.26946423199E+03  0.00000000000E+00 0. -1.
         11    1    1    2    0    0  0.44696873040E+02 -0.23435760944E+02  0.12862146646E+03  0.13816847320E+03  0.00000000000E+00 0.  1.
<mgrwt>
<rscale>  0 0.13301273E+03</rscale>
<asrwt>0</asrwt>
<pdfrwt beam="1">  1        1 0.74562925E-01 0.14127889E+03</pdfrwt>
<pdfrwt beam="2">  1       -1 0.10245461E-01 0.14127889E+03</pdfrwt>
<totfact> 0.27002783E+03</totfact>
</mgrwt>
</event>
<event>
 7    1  0.8712071E-006  0.1494192E+03  0.7546771E-02  0.1210332E+00
          1   -1    0    0  501    0  0.00000000000E+00  0.00000000000E+00  0.30547462673E+03  0.30547462673E+03  0.00000000000E+00 0. -1.
         -1   -1    0    0    0  501 -0.00000000000E+00 -0.00000000000E+00 -0.11675582482E+03  0.11675582482E+03  0.00000000000E+00 0.  1.
         23    2    1    2    0    0 -0.51318002305E+02 -0.63778227582E+02 -0.46857617977E+02  0.15659420043E+03  0.12499963029E+03 0.  0.
          5    1    3    3  502    0  0.39030999023E+02 -0.30013754295E+01 -0.20604841305E+02  0.44486814051E+02  0.47000000000E+01 0. -1.
         -5    1    3    3    0  502 -0.90349001328E+02 -0.60776852152E+02 -0.26252776671E+02  0.11210738638E+03  0.47000000000E+01 0. -1.
        -11    1    1    2    0    0  0.21865109685E+01  0.29132993011E+02  0.80532145374E+01  0.30304560323E+02  0.00000000000E+00 0.  1.
         11    1    1    2    0    0  0.49131491337E+02  0.34645234571E+02  0.22752320535E+03  0.23533169079E+03  0.00000000000E+00 0. -1.
<mgrwt>
<rscale>  0 0.14225120E+03</rscale>
<asrwt>0</asrwt>
<pdfrwt beam="1">  1        1 0.46996096E-01 0.14941923E+03</pdfrwt>
<pdfrwt beam="2">  1       -1 0.17962435E-01 0.14941923E+03</pdfrwt>
<totfact> 0.20190594E+03</totfact>
</mgrwt>
</event>
<event>
 7    1  0.8712071E-006  0.1275277E+03  0.7546771E-02  0.1251876E+00
         -2   -1    0    0    0  501 -0.00000000000E+00  0.00000000000E+00  0.39524754320E+02  0.39524754320E+02  0.00000000000E+00 0.  1.
          2   -1    0    0  501    0  0.00000000000E+00 -0.00000000000E+00 -0.28574500990E+03  0.28574500990E+03  0.00000000000E+00 0. -1.
         23    2    1    2    0    0 -0.20860579635E+02  0.14214262230E+02 -0.16505583857E+03  0.20858268776E+03  0.12500439494E+03 0.  0.
          5    1    3    3  502    0  0.32929543143E+02 -0.26472259794E+02 -0.12007526267E+03  0.12737854629E+03  0.47000000000E+01 0.  1.
         -5    1    3    3    0  502 -0.53790122778E+02  0.40686522024E+02 -0.44980575896E+02  0.81204141463E+02  0.47000000000E+01 0.  1.
        -11    1    1    2    0    0 -0.29690427552E+02 -0.15021367433E+02 -0.32692437997E+02  0.46647170011E+02  0.00000000000E+00 0.  1.
         11    1    1    2    0    0  0.50551007187E+02  0.80710520329E+00 -0.48471979018E+02  0.70039906456E+02  0.00000000000E+00 0. -1.
<mgrwt>
<rscale>  0 0.11483094E+03</rscale>
<asrwt>0</asrwt>
<pdfrwt beam="2">  1        2 0.43960769E-01 0.12752767E+03</pdfrwt>
<pdfrwt beam="1">  1       -2 0.60807317E-02 0.12752767E+03</pdfrwt>
<totfact> 0.15594128E+04</totfact>
</mgrwt>
</event>
<event>
 7    1  0.8712071E-006  0.1548739E+03  0.7546771E-02  0.1195319E+00
          2   -1    0    0  501    0  0.00000000000E+00  0.00000000000E+00  0.12140419353E+04  0.12140419353E+04  0.00000000000E+00 0. -1.
         -2   -1    0    0    0  501 -0.00000000000E+00 -0.00000000000E+00 -0.19453100421E+02  0.19453100421E+02  0.00000000000E+00 0.  1.
         23    2    1    2    0    0 -0.17349167642E+02 -0.89768882913E+02  0.60298309122E+03  0.62255484031E+03  0.12500589964E+03 0.  0.
          5    1    3    3  502    0  0.78216499677E+01 -0.55403647802E+02  0.79551856486E+02  0.97372122645E+02  0.47000000000E+01 0. -1.
         -5    1    3    3    0  502 -0.25170817610E+02 -0.34365235111E+02  0.52343123473E+03  0.52518271767E+03  0.47000000000E+01 0. -1.
        -11    1    1    2    0    0 -0.19242281551E+02 -0.24332083366E+02  0.89106635013E+02  0.94352043346E+02  0.00000000000E+00 0. -1.
         11    1    1    2    0    0  0.36591449193E+02  0.11410096628E+03  0.50249910864E+03  0.51658815205E+03  0.00000000000E+00 0.  1.
<mgrwt>
<rscale>  0 0.15427226E+03</rscale>
<asrwt>0</asrwt>
<pdfrwt beam="1">  1        2 0.18677562E+00 0.15487389E+03</pdfrwt>
<pdfrwt beam="2">  1       -2 0.29927856E-02 0.15487389E+03</pdfrwt>
<totfact> 0.81559374E+03</totfact>
</mgrwt>
</event>
<event>
 7    1  0.8712071E-006  0.1471899E+03  0.7546771E-02  0.1214158E+00
          1   -1    0    0  501    0  0.00000000000E+00  0.00000000000E+00  0.34853369010E+03  0.34853369010E+03  0.00000000000E+00 0. -1.
         -1   -1    0    0    0  501 -0.00000000000E+00 -0.00000000000E+00 -0.84779038166E+02  0.84779038166E+02  0.00000000000E+00 0.  1.
         23    2    1    2    0    0 -0.29100918752E+02 -0.72057584787E+02  0.33048943084E+01  0.14722701629E+03  0.12500285197E+03 0.  0.
          5    1    3    3  502    0  0.30279404689E+01  0.30662753716E+02  0.21644739212E+02  0.37946773572E+02  0.47000000000E+01 0.  1.
         -5    1    3    3    0  502 -0.32128859221E+02 -0.10272033850E+03 -0.18339844904E+02  0.10928024272E+03  0.47000000000E+01 0.  1.
        -11    1    1    2    0    0 -0.30204250096E+02  0.17285929810E+02  0.10960911648E+03  0.11500112395E+03  0.00000000000E+00 0. -1.
         11    1    1    2    0    0  0.59305168848E+02  0.54771654978E+02  0.15084064115E+03  0.17108458803E+03  0.00000000000E+00 0.  1.
<mgrwt>
<rscale>  0 0.13938532E+03</rscale>
<asrwt>0</asrwt>
<pdfrwt beam="1">  1        1 0.53620567E-01 0.14718992E+03</pdfrwt>
<pdfrwt beam="2">  1       -1 0.13042929E-01 0.14718992E+03</pdfrwt>
<totfact> 0.28329597E+03</totfact>
</mgrwt>
</event>
<event>
 7    1  0.8712071E-006  0.1325462E+03  0.7546771E-02  0.1236972E+00
         -3   -1    0    0    0  501 -0.00000000000E+00  0.00000000000E+00  0.21087457056E+02  0.21087457056E+02  0.00000000000E+00 0.  1.
          3   -1    0    0  501    0  0.00000000000E+00 -0.00000000000E+00 -0.77425454700E+03  0.77425454700E+03  0.00000000000E+00 0. -1.
         23    2    1    2    0    0  0.20624105805E+02 -0.38967907470E+02 -0.25850073317E+03  0.29050151759E+03  0.12499860445E+03 0.  0.
          5    1    3    3  502    0 -0.11783688239E+02  0.42020566456E+02 -0.10640723315E+03  0.11510505020E+03  0.47000000000E+01 0.  1.
         -5    1    3    3    0  502  0.32407794044E+02 -0.80988473925E+02 -0.15209350002E+03  0.17539646739E+03  0.47000000000E+01 0.  1.
        -11    1    1    2    0    0 -0.15655245173E+02 -0.28637694795E+02 -0.18295948956E+03  0.18584773091E+03  0.00000000000E+00 0.  1.
         11    1    1    2    0    0 -0.49688606315E+01  0.67605602265E+02 -0.31170686721E+03  0.31899275556E+03  0.00000000000E+00 0. -1.
<mgrwt>
<rscale>  0 0.12379010E+03</rscale>
<asrwt>0</asrwt>
<pdfrwt beam="2">  1        3 0.11911607E+00 0.13254623E+03</pdfrwt>
<pdfrwt beam="1">  1       -3 0.32442247E-02 0.13254623E+03</pdfrwt>
<totfact> 0.62880045E+02</totfact>
</mgrwt>
</event>
<event>
 7    1  0.8712071E-006  0.1476317E+03  0.7546771E-02  0.1213026E+00
         -1   -1    0    0    0  501 -0.00000000000E+00  0.00000000000E+00  0.62675073098E+03  0.62675073098E+03  0.00000000000E+00 0.  1.
          1   -1    0    0  501    0  0.00000000000E+00 -0.00000000000E+00 -0.48984719465E+02  0.48984719465E+02  0.00000000000E+00 0. -1.
         23    2    1    2    0    0 -0.73597342580E+02 -0.27357600757E+02  0.52344643827E+03  0.54386697380E+03  0.12502041556E+03 0.  0.
          5    1    3    3  502    0  0.10656278995E+02  0.12096776138E+02  0.31622718489E+03  0.31667271865E+03  0.47000000000E+01 0.  1.
         -5    1    3    3    0  502 -0.84253621575E+02 -0.39454376895E+02  0.20721925338E+03  0.22719425515E+03  0.47000000000E+01 0.  1.
        -11    1    1    2    0    0  0.16804246874E+02  0.66451392139E+01 -0.25801369040E+02  0.31500019563E+02  0.00000000000E+00 0. -1.
         11    1    1    2    0    0  0.56793095706E+02  0.20712461543E+02  0.80120942290E+02  0.10036845708E+03  0.00000000000E+00 0.  1.
<mgrwt>
<rscale>  0 0.14022505E+03</rscale>
<asrwt>0</asrwt>
<pdfrwt beam="2">  1        1 0.75361111E-02 0.14763167E+03</pdfrwt>
<pdfrwt beam="1">  1       -1 0.96423184E-01 0.14763167E+03</pdfrwt>
<totfact> 0.10172476E+03</totfact>
</mgrwt>
</event>
<event>
 7    1  0.8712071E-006  0.1420425E+03  0.7546771E-02  0.1221133E+00
         -2   -1    0    0    0  501 -0.00000000000E+00  0.00000000000E+00  0.36178009712E+02  0.36178009712E+02  0.00000000000E+00 0.  1.
          2   -1    0    0  501    0  0.00000000000E+00 -0.00000000000E+00 -0.49797182961E+03  0.49797182961E+03  0.00000000000E+00 0. -1.
         23    2    1    2    0    0 -0.65409687077E+02 -0.16534755798E+02 -0.17339254286E+03  0.22414517331E+03  0.12499703791E+03 0.  0.
          5    1    3    3  502    0 -0.86872819646E+02 -0.48738354202E+02 -0.14472401377E+03  0.17575393061E+03  0.47000000000E+01 0.  1.
         -5    1    3    3    0  502  0.21463132568E+02  0.32203598405E+02 -0.28668529095E+02  0.48391242703E+02  0.47000000000E+01 0.  1.
        -11    1    1    2    0    0  0.80775017658E+02  0.30757806833E+02 -0.26432471088E+03  0.27809746302E+03  0.00000000000E+00 0. -1.
         11    1    1    2    0    0 -0.15365330580E+02 -0.14223051035E+02 -0.24076566161E+02  0.31907202991E+02  0.00000000000E+00 0.  1.
<mgrwt>
<rscale>  0 0.13435491E+03</rscale>
<asrwt>0</asrwt>
<pdfrwt beam="2">  1        2 0.76611047E-01 0.14204255E+03</pdfrwt>
<pdfrwt beam="1">  1       -2 0.55658479E-02 0.14204255E+03</pdfrwt>
<totfact> 0.99257880E+03</totfact>
</mgrwt>
</event>
<event>
 7    1  0.8712071E-006  0.1586259E+03  0.7546771E-02  0.1198695E+00
         -2   -1    0    0    0  501 -0.00000000000E+00  0.00000000000E+00  0.23139366470E+03  0.23139366470E+03  0.00000000000E+00 0.  1.
          2   -1    0    0  501    0  0.00000000000E+00 -0.00000000000E+00 -0.16554979598E+03  0.16554979598E+03  0.00000000000E+00 0. -1.
         23    2    1    2    0    0 -0.46150875668E+02  0.86074103732E+02  0.16733312257E+03  0.23057003949E+03  0.12499405804E+03 0.  0.
          5    1    3    3  502    0  0.48988069931E+00  0.70506269743E+02  0.16682384071E+03  0.18117300540E+03  0.47000000000E+01 0.  1.
         -5    1    3    3    0  502 -0.46640756367E+02  0.15567833989E+02  0.50928186481E+00  0.49397034097E+02  0.47000000000E+01 0.  1.
        -11    1    1    2    0    0  0.42570578293E+02 -0.37125863303E+02 -0.32761892871E+01  0.56580184503E+02  0.00000000000E+00 0.  1.
         11    1    1    2    0    0  0.35802973744E+01 -0.48948240430E+02 -0.98213064563E+02  0.10979323668E+03  0.00000000000E+00 0. -1.
<mgrwt>
<rscale>  0 0.15145614E+03</rscale>
<asrwt>0</asrwt>
<pdfrwt beam="2">  1        2 0.25469199E-01 0.15862588E+03</pdfrwt>
<pdfrwt beam="1">  1       -2 0.35599025E-01 0.15862588E+03</pdfrwt>
<totfact> 0.15403448E+03</totfact>
</mgrwt>
</event>
<event>
 7    1  0.8712071E-006  0.1312010E+03  0.7546771E-02  0.1239311E+00
         -3   -1    0    0    0  501 -0.00000000000E+00  0.00000000000E+00  0.59900930496E+02  0.59900930496E+02  0.00000000000E+00 0.  1.
          3   -1    0    0  501    0  0.00000000000E+00 -0.00000000000E+00 -0.24430945169E+03  0.24430945169E+03  0.00000000000E+00 0. -1.
         23    2    1    2    0    0 -0.30604509424E+00 -0.39863710314E+02 -0.57702961592E+02  0.14332948585E+03  0.12499800268E+03 0.  0.
          5    1    3    3  502    0  0.40696086718E+02 -0.57756048813E+02 -0.82580339352E+00  0.70814579006E+02  0.47000000000E+01 0. -1.
         -5    1    3    3    0  502 -0.41002131812E+02  0.17892338498E+02 -0.56877158199E+02  0.72514906846E+02  0.47000000000E+01 0. -1.
        -11    1    1    2    0    0  0.12755368838E+02 -0.22152968046E+02 -0.87199343632E+01  0.27009085189E+02  0.00000000000E+00 0.  1.
         11    1    1    2    0    0 -0.12449323743E+02  0.62016678361E+02 -0.11798562524E+03  0.13387181115E+03  0.00000000000E+00 0. -1.
<mgrwt>
<rscale>  0 0.12232440E+03</rscale>
<asrwt>0</asrwt>
<pdfrwt beam="2">  1        3 0.37586070E-01 0.13120103E+03</pdfrwt>
<pdfrwt beam="1">  1       -3 0.92155276E-02 0.13120103E+03</pdfrwt>
<totfact> 0.13542924E+03</totfact>
</mgrwt>
</event>
<event>
 7    1  0.8712071E-006  0.1264278E+03  0.7546771E-02  0.1247720E+00
         -2   -1    0    0    0  501 -0.00000000000E+00  0.00000000000E+00  0.12717114565E+03  0.12717114565E+03  0.00000000000E+00 0.  1.
          2   -1    0    0  501    0  0.00000000000E+00 -0.00000000000E+00 -0.97776219188E+02  0.97776219188E+02  0.00000000000E+00 0. -1.
         23    2    1    2    0    0 -0.15630064857E+02 -0.10716129281E+02  0.35313849238E+02  0.13126708799E+03  0.12499938435E+03 0.  0.
          5    1    3    3  502    0 -0.22350353326E+02  0.48295408611E+02 -0.12509834077E+02  0.54868668066E+02  0.47000000000E+01 0.  1.
         -5    1    3    3    0  502  0.67202884688E+01 -0.59011537892E+02  0.47823683316E+02  0.76398419927E+02  0.47000000000E+01 0.  1.
        -11    1    1    2    0    0  0.43155488433E+01  0.19687336290E+02  0.40407814633E+02  0.45155361314E+02  0.00000000000E+00 0.  1.
         11    1    1    2    0    0  0.11314516013E+02 -0.89712070089E+01 -0.46326737411E+02  0.48524915528E+02  0.00000000000E+00 0. -1.
<mgrwt>
<rscale>  0 0.11724025E+03</rscale>
<asrwt>0</asrwt>
<pdfrwt beam="2">  1        2 0.15042495E-01 0.12642777E+03</pdfrwt>
<pdfrwt beam="1">  1       -2 0.19564792E-01 0.12642777E+03</pdfrwt>
<totfact> 0.79579793E+03</totfact>
</mgrwt>
</event>
<event>
 7    1  0.8712071E-006  0.1435754E+03  0.7546771E-02  0.1218240E+00
          1   -1    0    0  501    0  0.00000000000E+00  0.00000000000E+00  0.27052770517E+03  0.27052770517E+03  0.00000000000E+00 0. -1.
         -1   -1    0    0    0  501 -0.00000000000E+00 -0.00000000000E+00 -0.66853746653E+02  0.66853746653E+02  0.00000000000E+00 0.  1.
         23    2    1    2    0    0  0.16626262839E+02  0.68649706851E+02  0.69971858314E+02  0.15971840080E+03  0.12499876692E+03 0.  0.
          5    1    3    3  502    0  0.54902002560E+02 -0.78187085625E+01  0.13935721111E+02  0.57372958888E+02  0.47000000000E+01 0.  1.
         -5    1    3    3    0  502 -0.38275739721E+02  0.76468415414E+02  0.56036137204E+02  0.10234544191E+03  0.47000000000E+01 0.  1.
        -11    1    1    2    0    0  0.17156596832E+02 -0.24917360925E+02  0.11562967822E+03  0.11952173934E+03  0.00000000000E+00 0. -1.
         11    1    1    2    0    0 -0.33782859671E+02 -0.43732345926E+02  0.18072421984E+02  0.58141311682E+02  0.00000000000E+00 0.  1.
<mgrwt>
<rscale>  0 0.13641190E+03</rscale>
<asrwt>0</asrwt>
<pdfrwt beam="1">  1        1 0.41619646E-01 0.14357544E+03</pdfrwt>
<pdfrwt beam="2">  1       -1 0.10285192E-01 0.14357544E+03</pdfrwt>
<totfact> 0.55912304E+03</totfact>
</mgrwt>
</event>
<event>
 7    1  0.8712071E-006  0.1197195E+03  0.7546771E-02  0.1254698E+00
         -1   -1    0    0    0  501 -0.00000000000E+00  0.00000000000E+00  0.13012262469E+03  0.13012262469E+03  0.00000000000E+00 0.  1.
          1   -1    0    0  501    0  0.00000000000E+00 -0.00000000000E+00 -0.11221726796E+03  0.11221726796E+03  0.00000000000E+00 0. -1.
         23    2    1    2    0    0  0.33197955145E+02 -0.67544081816E+01  0.64297110627E+02  0.13589289261E+03  0.11482610143E+03 0.  0.
          5    1    3    3  502    0 -0.12752727785E+02  0.43578950218E+02  0.59179541549E+01  0.46031175842E+02  0.47000000000E+01 0. -1.
         -5    1    3    3    0  502  0.45950682930E+02 -0.50333358399E+02  0.58379156473E+02  0.89861716765E+02  0.47000000000E+01 0.  1.
        -11    1    1    2    0    0 -0.61033948182E+02  0.95272233923E+01 -0.48291144115E+02  0.78408835065E+02  0.00000000000E+00 0. -1.
         11    1    1    2    0    0  0.27835993037E+02 -0.27728152107E+01  0.18993902156E+01  0.28038164985E+02  0.00000000000E+00 0.  1.
<mgrwt>
<rscale>  0 0.11323267E+03</rscale>
<asrwt>0</asrwt>
<pdfrwt beam="2">  1        1 0.17264195E-01 0.11971950E+03</pdfrwt>
<pdfrwt beam="1">  1       -1 0.20018865E-01 0.11971950E+03</pdfrwt>
<totfact> 0.58749788E+03</totfact>
</mgrwt>
</event>
<event>
 7    1  0.8712071E-006  0.1643532E+03  0.7546771E-02  0.1188723E+00
          1   -1    0    0  501    0  0.00000000000E+00  0.00000000000E+00  0.93944170658E+02  0.93944170658E+02  0.00000000000E+00 0. -1.
         -1   -1    0    0    0  501 -0.00000000000E+00 -0.00000000000E+00 -0.31056202831E+03  0.31056202831E+03  0.00000000000E+00 0.  1.
         23    2    1    2    0    0  0.10959898966E+03 -0.51619758121E+01 -0.19559910288E+03  0.25548185241E+03  0.12236577680E+03 0.  0.
          5    1    3    3  502    0  0.82128268364E+02 -0.30974943904E+02 -0.42305812096E+02  0.97551890558E+02  0.47000000000E+01 0. -1.
         -5    1    3    3    0  502  0.27470721298E+02  0.25812968092E+02 -0.15329329078E+03  0.15792996185E+03  0.47000000000E+01 0.  1.
        -11    1    1    2    0    0 -0.10435626769E+03 -0.13140025743E+02  0.16962009764E+02  0.10653919775E+03  0.00000000000E+00 0.  1.
         11    1    1    2    0    0 -0.52427219746E+01  0.18302001555E+02 -0.37980764539E+02  0.42485148813E+02  0.00000000000E+00 0. -1.
<mgrwt>
<rscale>  0 0.15997683E+03</rscale>
<asrwt>0</asrwt>
<pdfrwt beam="1">  1        1 0.14452949E-01 0.16435318E+03</pdfrwt>
<pdfrwt beam="2">  1       -1 0.47778774E-01 0.16435318E+03</pdfrwt>
<totfact> 0.17200374E+03</totfact>
</mgrwt>
</event>
<event>
 7    1  0.8712071E-006  0.1212704E+03  0.7546771E-02  0.1250360E+00
         -1   -1    0    0    0  501 -0.00000000000E+00  0.00000000000E+00  0.43198634380E+02  0.43198634380E+02  0.00000000000E+00 0.  1.
          1   -1    0    0  501    0  0.00000000000E+00 -0.00000000000E+00 -0.28459659923E+03  0.28459659923E+03  0.00000000000E+00 0. -1.
         23    2    1    2    0    0  0.16874425665E+01  0.40970650873E+02 -0.13266791335E+03  0.17974228820E+03  0.11412744298E+03 0.  0.
          5    1    3    3  502    0 -0.27107723056E+02  0.28817059617E+01  0.98506481305E+01  0.29364232446E+02  0.47000000000E+01 0. -1.
         -5    1    3    3    0  502  0.28795165622E+02  0.38088944911E+02 -0.14251856148E+03  0.15037805576E+03  0.47000000000E+01 0.  1.
        -11    1    1    2    0    0 -0.21437509162E+02 -0.55057354845E+02 -0.10878437486E+03  0.12379385823E+03  0.00000000000E+00 0. -1.
         11    1    1    2    0    0  0.19750066596E+02  0.14086703972E+02  0.54323364503E-01  0.24259087171E+02  0.00000000000E+00 0.  1.
<mgrwt>
<rscale>  0 0.11570247E+03</rscale>
<asrwt>0</asrwt>
<pdfrwt beam="2">  1        1 0.43784094E-01 0.12127042E+03</pdfrwt>
<pdfrwt beam="1">  1       -1 0.66459435E-02 0.12127042E+03</pdfrwt>
<totfact> 0.10038727E+04</totfact>
</mgrwt>
</event>
<event>
 7    1  0.8712071E-006  0.2117312E+03  0.7546771E-02  0.1144109E+00
         -1   -1    0    0    0  501 -0.00000000000E+00  0.00000000000E+00  0.33425976559E+03  0.33425976559E+03  0.00000000000E+00 0.  1.
          1   -1    0    0  501    0  0.00000000000E+00 -0.00000000000E+00 -0.25605400100E+03  0.25605400100E+03  0.00000000000E+00 0. -1.
         23    2    1    2    0    0  0.13765330053E+03  0.10127508978E+03  0.25313513594E+03  0.33001135691E+03  0.12500009476E+03 0.  0.
          5    1    3    3  502    0  0.15255399387E+03  0.80779595150E+02  0.16747278762E+03  0.24055620680E+03  0.47000000000E+01 0. -1.
         -5    1    3    3    0  502 -0.14900693338E+02  0.20495494630E+02  0.85662348320E+02  0.89455150113E+02  0.47000000000E+01 0. -1.
        -11    1    1    2    0    0 -0.23852804384E+02 -0.54305216856E+02 -0.20391246947E+02  0.62720138766E+02  0.00000000000E+00 0.  1.
         11    1    1    2    0    0 -0.11380049615E+03 -0.46969872924E+02 -0.15453812440E+03  0.19758227091E+03  0.00000000000E+00 0. -1.
<mgrwt>
<rscale>  0 0.20682060E+03</rscale>
<asrwt>0</asrwt>
<pdfrwt beam="2">  1        1 0.39392923E-01 0.21173119E+03</pdfrwt>
<pdfrwt beam="1">  1       -1 0.51424579E-01 0.21173119E+03</pdfrwt>
<totfact> 0.42079704E+02</totfact>
</mgrwt>
</event>
<event>
 7    1  0.8712071E-006  0.1485025E+03  0.7546771E-02  0.1211560E+00
         -1   -1    0    0    0  501 -0.00000000000E+00  0.00000000000E+00  0.36182677712E+02  0.36182677712E+02  0.00000000000E+00 0.  1.
          1   -1    0    0  501    0  0.00000000000E+00 -0.00000000000E+00 -0.50747219509E+03  0.50747219509E+03  0.00000000000E+00 0. -1.
         23    2    1    2    0    0 -0.75511272314E+02  0.26939997330E+02 -0.23925258787E+03  0.28159332962E+03  0.12500114713E+03 0.  0.
          5    1    3    3  502    0 -0.95571389704E+02 -0.57379875668E+01 -0.10628284208E+03  0.14312563555E+03  0.47000000000E+01 0. -1.
         -5    1    3    3    0  502  0.20060117389E+02  0.32677984897E+02 -0.13296974579E+03  0.13846769407E+03  0.47000000000E+01 0. -1.
        -11    1    1    2    0    0 -0.18848251166E+02 -0.17951586118E+02 -0.37335292550E+02  0.45513075989E+02  0.00000000000E+00 0. -1.
         11    1    1    2    0    0  0.94359523480E+02 -0.89884112120E+01 -0.19470163696E+03  0.21654846719E+03  0.00000000000E+00 0.  1.
<mgrwt>
<rscale>  0 0.14132265E+03</rscale>
<asrwt>0</asrwt>
<pdfrwt beam="2">  1        1 0.78072644E-01 0.14850253E+03</pdfrwt>
<pdfrwt beam="1">  1       -1 0.55665659E-02 0.14850253E+03</pdfrwt>
<totfact> 0.63942702E+03</totfact>
</mgrwt>
</event>
<event>
 7    1  0.8712071E-006  0.1442304E+03  0.7546771E-02  0.1217792E+00
          1   -1    0    0  501    0  0.00000000000E+00  0.00000000000E+00  0.29892333270E+03  0.29892333270E+03  0.00000000000E+00 0. -1.
         -1   -1    0    0    0  501 -0.00000000000E+00 -0.00000000000E+00 -0.60624777250E+02  0.60624777250E+02  0.00000000000E+00 0.  1.
         23    2    1    2    0    0  0.21307945453E+02 -0.68726737130E+02  0.86446052585E+02  0.16815266950E+03  0.12500002926E+03 0.  0.
          5    1    3    3  502    0 -0.20383545762E+02  0.38289678632E+01  0.81461658869E+02  0.84191696731E+02  0.47000000000E+01 0. -1.
         -5    1    3    3    0  502  0.41691491215E+02 -0.72555704993E+02  0.49843937157E+01  0.83960972764E+02  0.47000000000E+01 0. -1.
        -11    1    1    2    0    0 -0.26584337112E+02  0.28779494539E+02  0.14540231179E+03  0.15058824178E+03  0.00000000000E+00 0. -1.
         11    1    1    2    0    0  0.52763916594E+01  0.39947242590E+02  0.64501910742E+01  0.40807198684E+02  0.00000000000E+00 0.  1.
<mgrwt>
<rscale>  0 0.13673420E+03</rscale>
<asrwt>0</asrwt>
<pdfrwt beam="1">  1        1 0.45988204E-01 0.14423037E+03</pdfrwt>
<pdfrwt beam="2">  1       -1 0.93268889E-02 0.14423037E+03</pdfrwt>
<totfact> 0.57383245E+03</totfact>
</mgrwt>
</event>
<event>
 7    1  0.8712071E-006  0.1341996E+03  0.7546771E-02  0.1234139E+00
         -2   -1    0    0    0  501 -0.00000000000E+00  0.00000000000E+00  0.11773415415E+03  0.11773415415E+03  0.00000000000E+00 0. -1.
          2   -1    0    0  501    0  0.00000000000E+00 -0.00000000000E+00 -0.11995860412E+03  0.11995860412E+03  0.00000000000E+00 0.  1.
         23    2    1    2    0    0  0.37388907360E+02 -0.31420068778E+02  0.65566554935E+01  0.13435970998E+03  0.12499756325E+03 0.  0.
          5    1    3    3  502    0  0.73893284559E+02  0.13054337355E+02  0.12900173002E+02  0.76283272676E+02  0.47000000000E+01 0.  1.
         -5    1    3    3    0  502 -0.36504377199E+02 -0.44474406133E+02 -0.63435175087E+01  0.58076437304E+02  0.47000000000E+01 0.  1.
        -11    1    1    2    0    0  0.72542871985E+01 -0.17102812040E+02  0.23469887032E+02  0.29932698839E+02  0.00000000000E+00 0. -1.
         11    1    1    2    0    0 -0.44643194559E+02  0.48522880818E+02 -0.32250992494E+02  0.73400349455E+02  0.00000000000E+00 0.  1.
<mgrwt>
<rscale>  0 0.12559717E+03</rscale>
<asrwt>0</asrwt>
<pdfrwt beam="2">  1        2 0.18455170E-01 0.13419963E+03</pdfrwt>
<pdfrwt beam="1">  1       -2 0.18112947E-01 0.13419963E+03</pdfrwt>
<totfact> 0.71850029E+03</totfact>
</mgrwt>
</event>
<event>
 7    1  0.8712071E-006  0.1452138E+03  0.7546771E-02  0.1214240E+00
         -1   -1    0    0    0  501 -0.00000000000E+00  0.00000000000E+00  0.33411713760E+03  0.33411713760E+03  0.00000000000E+00 0.  1.
          1   -1    0    0  501    0  0.00000000000E+00 -0.00000000000E+00 -0.11768667214E+03  0.11768667214E+03  0.00000000000E+00 0. -1.
         23    2    1    2    0    0  0.47667192120E+02 -0.67124535914E+02  0.27842350005E+03  0.31401702062E+03  0.11962098198E+03 0.  0.
          5    1    3    3  502    0  0.62661453444E+02 -0.22464636256E+02  0.57531310433E+02  0.88108224984E+02  0.47000000000E+01 0.  1.
         -5    1    3    3    0  502 -0.14994261323E+02 -0.44659899659E+02  0.22089218962E+03  0.22590879564E+03  0.47000000000E+01 0. -1.
        -11    1    1    2    0    0 -0.54851986495E+02  0.58331494085E+02 -0.56047309912E+01  0.80266534958E+02  0.00000000000E+00 0.  1.
         11    1    1    2    0    0  0.71847943750E+01  0.87930418294E+01 -0.56388303608E+02  0.57520254160E+02  0.00000000000E+00 0. -1.
<mgrwt>
<rscale>  0 0.13932499E+03</rscale>
<asrwt>0</asrwt>
<pdfrwt beam="2">  1        1 0.18105642E-01 0.14521379E+03</pdfrwt>
<pdfrwt beam="1">  1       -1 0.51402636E-01 0.14521379E+03</pdfrwt>
<totfact> 0.11204650E+03</totfact>
</mgrwt>
</event>
<event>
 7    1  0.8712071E-006  0.1190469E+03  0.7546771E-02  0.1252320E+00
         -4   -1    0    0    0  501 -0.00000000000E+00  0.00000000000E+00  0.38219891088E+03  0.38219891088E+03  0.00000000000E+00 0.  1.
          4   -1    0    0  501    0  0.00000000000E+00 -0.00000000000E+00 -0.33133392250E+02  0.33133392250E+02  0.00000000000E+00 0. -1.
         23    2    1    2    0    0  0.37187028641E+02  0.24495286551E+02  0.14919593688E+03  0.19087062314E+03  0.11040504079E+03 0.  0.
          5    1    3    3  502    0 -0.18715439306E+02 -0.19504493737E+02  0.22342003523E+01  0.27527705962E+02  0.47000000000E+01 0. -1.
         -5    1    3    3    0  502  0.55902467947E+02  0.43999780288E+02  0.14696173653E+03  0.16334291717E+03  0.47000000000E+01 0.  1.
        -11    1    1    2    0    0 -0.61019601546E+02 -0.70034077065E+00  0.84193282899E+02  0.10398264824E+03  0.00000000000E+00 0. -1.
         11    1    1    2    0    0  0.23832572905E+02 -0.23794945780E+02  0.11567629885E+03  0.12047903175E+03  0.00000000000E+00 0.  1.
<mgrwt>
<rscale>  0 0.11457798E+03</rscale>
<asrwt>0</asrwt>
<pdfrwt beam="2">  1        4 0.50974452E-02 0.11904691E+03</pdfrwt>
<pdfrwt beam="1">  1       -4 0.58799829E-01 0.11904691E+03</pdfrwt>
<totfact> 0.10292540E+03</totfact>
</mgrwt>
</event>
<event>
 7    1  0.8712071E-006  0.1470354E+03  0.7546771E-02  0.1214306E+00
          1   -1    0    0  501    0  0.00000000000E+00  0.00000000000E+00  0.89074831844E+03  0.89074831844E+03  0.00000000000E+00 0. -1.
         -1   -1    0    0    0  501 -0.00000000000E+00 -0.00000000000E+00 -0.19795326471E+02  0.19795326471E+02  0.00000000000E+00 0.  1.
         23    2    1    2    0    0  0.14202007845E+01  0.77406940529E+02  0.46631365110E+03  0.48894562518E+03  0.12500220703E+03 0.  0.
          5    1    3    3  502    0 -0.42152583919E+02 -0.14388283151E+02  0.12413263198E+03  0.13196538692E+03  0.47000000000E+01 0.  1.
         -5    1    3    3    0  502  0.43572784704E+02  0.91795223680E+02  0.34218101912E+03  0.35698023825E+03  0.47000000000E+01 0.  1.
        -11    1    1    2    0    0  0.30601292227E+02 -0.14889619220E+02  0.52809132430E+02  0.62824711018E+02  0.00000000000E+00 0.  1.
         11    1    1    2    0    0 -0.32021493011E+02 -0.62517321309E+02  0.35183020844E+03  0.35877330872E+03  0.00000000000E+00 0. -1.
<mgrwt>
<rscale>  0 0.13927671E+03</rscale>
<asrwt>0</asrwt>
<pdfrwt beam="1">  1        1 0.13703817E+00 0.14703538E+03</pdfrwt>
<pdfrwt beam="2">  1       -1 0.30454355E-02 0.14703538E+03</pdfrwt>
<totfact> 0.69666406E+03</totfact>
</mgrwt>
</event>
<event>
 7    1  0.8712071E-006  0.1435494E+03  0.7546771E-02  0.1218479E+00
          3   -1    0    0  501    0  0.00000000000E+00  0.00000000000E+00  0.55893743207E+03  0.55893743207E+03  0.00000000000E+00 0.  1.
         -3   -1    0    0    0  501 -0.00000000000E+00 -0.00000000000E+00 -0.31100974237E+02  0.31100974237E+02  0.00000000000E+00 0. -1.
         23    2    1    2    0    0  0.38822637594E+02 -0.58940729022E+02  0.24184754086E+03  0.28124127810E+03  0.12500086703E+03 0.  0.
          5    1    3    3  502    0  0.75687585255E+02 -0.44128697565E+01  0.10834684546E+03  0.13232238247E+03  0.47000000000E+01 0. -1.
         -5    1    3    3    0  502 -0.36864947661E+02 -0.54527859265E+02  0.13350069540E+03  0.14891889562E+03  0.47000000000E+01 0. -1.
        -11    1    1    2    0    0 -0.61963797905E+02  0.15055553327E+02  0.12482143543E+03  0.14016623231E+03  0.00000000000E+00 0. -1.
         11    1    1    2    0    0  0.23141160312E+02  0.43885175695E+02  0.16116748154E+03  0.16863089590E+03  0.00000000000E+00 0.  1.
<mgrwt>
<rscale>  0 0.13624089E+03</rscale>
<asrwt>0</asrwt>
<pdfrwt beam="1">  1        3 0.85990367E-01 0.14354938E+03</pdfrwt>
<pdfrwt beam="2">  1       -3 0.47847657E-02 0.14354938E+03</pdfrwt>
<totfact> 0.72643640E+02</totfact>
</mgrwt>
</event>
<event>
 7    1  0.8712071E-006  0.1284156E+03  0.7546771E-02  0.1243545E+00
          1   -1    0    0  501    0  0.00000000000E+00  0.00000000000E+00  0.20922457561E+03  0.20922457561E+03  0.00000000000E+00 0. -1.
         -1   -1    0    0    0  501 -0.00000000000E+00 -0.00000000000E+00 -0.61034645160E+02  0.61034645160E+02  0.00000000000E+00 0.  1.
         23    2    1    2    0    0 -0.80117890818E+01 -0.28313047166E+02  0.93724295375E+02  0.15898053000E+03  0.12499899188E+03 0.  0.
          5    1    3    3  502    0  0.19380073340E+02 -0.47812009368E+02  0.10980713216E+03  0.12141363908E+03  0.47000000000E+01 0. -1.
         -5    1    3    3    0  502 -0.27391862422E+02  0.19498962203E+02 -0.16082836784E+02  0.37566890914E+02  0.47000000000E+01 0. -1.
        -11    1    1    2    0    0  0.14054170512E+02 -0.24577730340E+02 -0.77914311523E+01  0.29364790768E+02  0.00000000000E+00 0.  1.
         11    1    1    2    0    0 -0.60423814298E+01  0.52890777505E+02  0.62257066223E+02  0.81913899999E+02  0.00000000000E+00 0. -1.
<mgrwt>
<rscale>  0 0.11972895E+03</rscale>
<asrwt>0</asrwt>
<pdfrwt beam="1">  1        1 0.32188396E-01 0.12841560E+03</pdfrwt>
<pdfrwt beam="2">  1       -1 0.93899455E-02 0.12841560E+03</pdfrwt>
<totfact> 0.87630700E+03</totfact>
</mgrwt>
</event>
<event>
 7    1  0.8712071E-006  0.1879479E+03  0.7546771E-02  0.1165350E+00
         -1   -1    0    0    0  501 -0.00000000000E+00  0.00000000000E+00  0.58222528235E+02  0.58222528235E+02  0.00000000000E+00 0.  1.
          1   -1    0    0  501    0  0.00000000000E+00 -0.00000000000E+00 -0.57299310359E+03  0.57299310359E+03  0.00000000000E+00 0. -1.
         23    2    1    2    0    0 -0.84165792150E+02  0.11232221276E+03 -0.19811402869E+03  0.27308161101E+03  0.12499695141E+03 0.  0.
          5    1    3    3  502    0  0.32165094160E+02  0.36302624580E+02 -0.46380497862E+02  0.67273430236E+02  0.47000000000E+01 0.  1.
         -5    1    3    3    0  502 -0.11633088631E+03  0.76019588182E+02 -0.15173353083E+03  0.20580818078E+03  0.47000000000E+01 0.  1.
        -11    1    1    2    0    0  0.34130019868E+01  0.11437517815E+02 -0.66722008215E+02  0.67781205187E+02  0.00000000000E+00 0. -1.
         11    1    1    2    0    0  0.80752790163E+02 -0.12375973058E+03 -0.24993453845E+03  0.29035281562E+03  0.00000000000E+00 0.  1.
<mgrwt>
<rscale>  0 0.18255793E+03</rscale>
<asrwt>0</asrwt>
<pdfrwt beam="2">  1        1 0.88152786E-01 0.18794786E+03</pdfrwt>
<pdfrwt beam="1">  1       -1 0.89573120E-02 0.18794786E+03</pdfrwt>
<totfact> 0.26798337E+03</totfact>
</mgrwt>
</event>
<event>
 7    1  0.8712071E-006  0.1929915E+03  0.7546771E-02  0.1160460E+00
         -1   -1    0    0    0  501 -0.00000000000E+00  0.00000000000E+00  0.89595044824E+02  0.89595044824E+02  0.00000000000E+00 0.  1.
          1   -1    0    0  501    0  0.00000000000E+00 -0.00000000000E+00 -0.39111013831E+03  0.39111013831E+03  0.00000000000E+00 0. -1.
         23    2    1    2    0    0  0.14633437466E+03 -0.14357816136E+02 -0.10821706899E+03  0.22126150825E+03  0.12500329964E+03 0.  0.
          5    1    3    3  502    0  0.51527580475E+02  0.48409818316E+02 -0.73945439103E+02  0.10241396401E+03  0.47000000000E+01 0. -1.
         -5    1    3    3    0  502  0.94806794182E+02 -0.62767634453E+02 -0.34271629887E+02  0.11884754424E+03  0.47000000000E+01 0. -1.
        -11    1    1    2    0    0 -0.66424785824E+02  0.13529035769E+02 -0.15829657589E+03  0.17220073437E+03  0.00000000000E+00 0. -1.
         11    1    1    2    0    0 -0.79909588833E+02  0.82878036738E+00 -0.35001448605E+02  0.87242940510E+02  0.00000000000E+00 0.  1.
<mgrwt>
<rscale>  0 0.18780088E+03</rscale>
<asrwt>0</asrwt>
<pdfrwt beam="2">  1        1 0.60170791E-01 0.19299151E+03</pdfrwt>
<pdfrwt beam="1">  1       -1 0.13783853E-01 0.19299151E+03</pdfrwt>
<totfact> 0.22680981E+03</totfact>
</mgrwt>
</event>
<event>
 7    1  0.8712071E-006  0.1283021E+03  0.7546771E-02  0.1244282E+00
          1   -1    0    0  501    0  0.00000000000E+00  0.00000000000E+00  0.50306524614E+03  0.50306524614E+03  0.00000000000E+00 0. -1.
         -1   -1    0    0    0  501 -0.00000000000E+00 -0.00000000000E+00 -0.25737985567E+02  0.25737985567E+02  0.00000000000E+00 0.  1.
         23    2    1    2    0    0  0.17844128763E+02  0.22767448362E+02  0.22700758322E+03  0.26075635865E+03  0.12499866439E+03 0.  0.
          5    1    3    3  502    0 -0.10406737937E+02  0.71065807729E+02  0.12075385293E+03  0.14057820678E+03  0.47000000000E+01 0.  1.
         -5    1    3    3    0  502  0.28250866700E+02 -0.48298359367E+02  0.10625373028E+03  0.12017815187E+03  0.47000000000E+01 0.  1.
        -11    1    1    2    0    0 -0.31159255778E+02 -0.51044739613E+02  0.20055047521E+03  0.20927722707E+03  0.00000000000E+00 0.  1.
         11    1    1    2    0    0  0.13315127015E+02  0.28277291251E+02  0.49769202139E+02  0.58769645988E+02  0.00000000000E+00 0. -1.
<mgrwt>
<rscale>  0 0.11928478E+03</rscale>
<asrwt>0</asrwt>
<pdfrwt beam="1">  1        1 0.77394646E-01 0.12830213E+03</pdfrwt>
<pdfrwt beam="2">  1       -1 0.39596905E-02 0.12830213E+03</pdfrwt>
<totfact> 0.10595530E+04</totfact>
</mgrwt>
</event>
<event>
 7    1  0.8712071E-006  0.1406214E+03  0.7546771E-02  0.1220244E+00
         -2   -1    0    0    0  501 -0.00000000000E+00  0.00000000000E+00  0.19275849709E+03  0.19275849709E+03  0.00000000000E+00 0.  1.
          2   -1    0    0  501    0  0.00000000000E+00 -0.00000000000E+00 -0.18013538374E+03  0.18013538374E+03  0.00000000000E+00 0. -1.
         23    2    1    2    0    0 -0.15320295203E+02  0.76374297306E+02  0.13991930136E+03  0.19837287584E+03  0.11707536992E+03 0.  0.
          5    1    3    3  502    0 -0.17428902537E+02  0.34602260850E+01 -0.17143332214E+02  0.25134113225E+02  0.47000000000E+01 0. -1.
         -5    1    3    3    0  502  0.21086073339E+01  0.72914071221E+02  0.15706263357E+03  0.17323876261E+03  0.47000000000E+01 0.  1.
        -11    1    1    2    0    0 -0.21509715442E+02 -0.78151082673E+02 -0.74290070134E+02  0.10995123511E+03  0.00000000000E+00 0.  1.
         11    1    1    2    0    0  0.36830010645E+02  0.17767853666E+01 -0.53006117878E+02  0.64569769884E+02  0.00000000000E+00 0. -1.
<mgrwt>
<rscale>  0 0.13498264E+03</rscale>
<asrwt>0</asrwt>
<pdfrwt beam="2">  1        2 0.27713136E-01 0.14062143E+03</pdfrwt>
<pdfrwt beam="1">  1       -2 0.29655153E-01 0.14062143E+03</pdfrwt>
<totfact> 0.19510387E+03</totfact>
</mgrwt>
</event>
<event>
 6    1  0.8712071E-006  0.1516355E+03  0.7546771E-02  0.1221757E+00
         -2   -1    0    0    0  501 -0.00000000000E+00  0.00000000000E+00  0.13834630802E+03  0.13834630802E+03  0.00000000000E+00 0.  1.
          2   -1    0    0  501    0  0.00000000000E+00 -0.00000000000E+00 -0.10783354779E+03  0.10783354779E+03  0.00000000000E+00 0. -1.
          5    1    1    2  502    0 -0.16899796820E+02 -0.54746220968E+02 -0.30158656774E+02  0.64918305748E+02  0.47000000000E+01 0. -1.
         -5    1    1    2    0  502  0.18951938485E+02  0.66246459441E+02  0.55975013380E+02  0.88899164697E+02  0.47000000000E+01 0.  1.
        -11    1    1    2    0    0 -0.40149668154E+02  0.88282375889E+01 -0.16453522630E+02  0.44279250657E+02  0.00000000000E+00 0.  1.
         11    1    1    2    0    0  0.38097526489E+02 -0.20328476063E+02  0.21149926255E+02  0.48083134717E+02  0.00000000000E+00 0. -1.
<mgrwt>
<rscale>  0 0.13391646E+03</rscale>
<asrwt>0</asrwt>
<pdfrwt beam="2">  1        2 0.16589777E-01 0.15163552E+03</pdfrwt>
<pdfrwt beam="1">  1       -2 0.21284047E-01 0.15163552E+03</pdfrwt>
<totfact> 0.62373639E+03</totfact>
</mgrwt>
</event>
<event>
 7    1  0.8712071E-006  0.1252144E+03  0.7546771E-02  0.1250399E+00
         -2   -1    0    0    0  501 -0.00000000000E+00  0.00000000000E+00  0.56905346466E+02  0.56905346466E+02  0.00000000000E+00 0.  1.
          2   -1    0    0  501    0  0.00000000000E+00 -0.00000000000E+00 -0.21335687082E+03  0.21335687082E+03  0.00000000000E+00 0. -1.
         23    2    1    2    0    0  0.64357438734E+01  0.32766337613E+01 -0.64929621545E+02  0.14104787757E+03  0.12500597140E+03 0.  0.
          5    1    3    3  502    0 -0.12191682804E+02 -0.38673059510E+02 -0.82203440106E+02  0.91780925179E+02  0.47000000000E+01 0.  1.
         -5    1    3    3    0  502  0.18627426677E+02  0.41949693272E+02  0.17273818561E+02  0.49266952391E+02  0.47000000000E+01 0.  1.
        -11    1    1    2    0    0 -0.25361952037E+02  0.26084444329E+02 -0.60523310670E+01  0.36881669681E+02  0.00000000000E+00 0.  1.
         11    1    1    2    0    0  0.18926208164E+02 -0.29361078090E+02 -0.85469571739E+02  0.92332670032E+02  0.00000000000E+00 0. -1.
<mgrwt>
<rscale>  0 0.11567958E+03</rscale>
<asrwt>0</asrwt>
<pdfrwt beam="2">  1        2 0.32824134E-01 0.12521441E+03</pdfrwt>
<pdfrwt beam="1">  1       -2 0.87546688E-02 0.12521441E+03</pdfrwt>
<totfact> 0.12153949E+04</totfact>
</mgrwt>
</event>
<event>
 6    1  0.8712071E-006  0.3487772E+03  0.7546771E-02  0.1086091E+00
          2   -1    0    0  501    0  0.00000000000E+00  0.00000000000E+00  0.54846137405E+03  0.54846137405E+03  0.00000000000E+00 0. -1.
         -2   -1    0    0    0  501 -0.00000000000E+00 -0.00000000000E+00 -0.13498092942E+03  0.13498092942E+03  0.00000000000E+00 0.  1.
          5    1    1    2  502    0  0.10103949898E+03 -0.12979056961E+03  0.90626587622E+02  0.18785590409E+03  0.47000000000E+01 0. -1.
         -5    1    1    2    0  502 -0.18356599524E+03 -0.10919573937E+02  0.11841710310E+03  0.21877022652E+03  0.47000000000E+01 0.  1.
        -11    1    1    2    0    0  0.98174948874E+02  0.13333801900E+03  0.16502157057E+03  0.23377225381E+03  0.00000000000E+00 0.  1.
         11    1    1    2    0    0 -0.15648452614E+02  0.73721245477E+01  0.39415183341E+02  0.43043919052E+02  0.00000000000E+00 0. -1.
<mgrwt>
<rscale>  0 0.29830439E+03</rscale>
<asrwt>0</asrwt>
<pdfrwt beam="1">  1        2 0.84378672E-01 0.34877721E+03</pdfrwt>
<pdfrwt beam="2">  1       -2 0.20766297E-01 0.34877721E+03</pdfrwt>
<totfact> 0.11056461E+03</totfact>
</mgrwt>
</event>
<event>
 7    1  0.8712071E-006  0.1352367E+03  0.7546771E-02  0.1232725E+00
         -1   -1    0    0    0  501 -0.00000000000E+00  0.00000000000E+00  0.10055061691E+03  0.10055061691E+03  0.00000000000E+00 0.  1.
          1   -1    0    0  501    0  0.00000000000E+00 -0.00000000000E+00 -0.17785411374E+03  0.17785411374E+03  0.00000000000E+00 0. -1.
         23    2    1    2    0    0 -0.50895718246E+02 -0.85570163730E+01  0.19502194933E+02  0.13663561786E+03  0.12500143917E+03 0.  0.
          5    1    3    3  502    0  0.11634133900E+02  0.35107528254E+02 -0.28032545400E+02  0.46645527260E+02  0.47000000000E+01 0.  1.
         -5    1    3    3    0  502 -0.62529852146E+02 -0.43664544627E+02  0.47534740333E+02  0.89990090596E+02  0.47000000000E+01 0.  1.
        -11    1    1    2    0    0  0.38109557804E+02  0.41851906791E+02 -0.88655363569E+02  0.10518409570E+03  0.00000000000E+00 0. -1.
         11    1    1    2    0    0  0.12786160442E+02 -0.33294890418E+02 -0.81503281966E+01  0.36585017104E+02  0.00000000000E+00 0.  1.
<mgrwt>
<rscale>  0 0.12651189E+03</rscale>
<asrwt>0</asrwt>
<pdfrwt beam="2">  1        1 0.27362171E-01 0.13523667E+03</pdfrwt>
<pdfrwt beam="1">  1       -1 0.15469326E-01 0.13523667E+03</pdfrwt>
<totfact> 0.49817391E+03</totfact>
</mgrwt>
</event>
<event>
 7    1  0.8712071E-006  0.1479392E+03  0.7546771E-02  0.1212646E+00
         -2   -1    0    0    0  501 -0.00000000000E+00  0.00000000000E+00  0.17936029742E+03  0.17936029742E+03  0.00000000000E+00 0. -1.
          2   -1    0    0  501    0  0.00000000000E+00 -0.00000000000E+00 -0.10551776373E+03  0.10551776373E+03  0.00000000000E+00 0.  1.
         23    2    1    2    0    0 -0.67428782895E+02 -0.41418518491E+02  0.71886098929E+02  0.16447981182E+03  0.12499545128E+03 0.  0.
          5    1    3    3  502    0 -0.52704173884E+02  0.15905547407E+02 -0.16804617186E+02  0.57751203813E+02  0.47000000000E+01 0. -1.
         -5    1    3    3    0  502 -0.14724609012E+02 -0.57324065898E+02  0.88690716114E+02  0.10672860800E+03  0.47000000000E+01 0. -1.
        -11    1    1    2    0    0 -0.16678938522E+02 -0.15269893493E+01 -0.17232789183E+02  0.24030973966E+02  0.00000000000E+00 0.  1.
         11    1    1    2    0    0  0.84107721418E+02  0.42945507840E+02  0.19189223941E+02  0.96367275364E+02  0.00000000000E+00 0. -1.
<mgrwt>
<rscale>  0 0.14050866E+03</rscale>
<asrwt>0</asrwt>
<pdfrwt beam="2">  1        2 0.16233502E-01 0.14793917E+03</pdfrwt>
<pdfrwt beam="1">  1       -2 0.27593892E-01 0.14793917E+03</pdfrwt>
<totfact> 0.40623831E+03</totfact>
</mgrwt>
</event>
<event>
 7    1  0.8712071E-006  0.1692963E+03  0.7546771E-02  0.1185049E+00
         -1   -1    0    0    0  501 -0.00000000000E+00  0.00000000000E+00  0.72485607630E+02  0.72485607630E+02  0.00000000000E+00 0.  1.
          1   -1    0    0  501    0  0.00000000000E+00 -0.00000000000E+00 -0.38947574019E+03  0.38947574019E+03  0.00000000000E+00 0. -1.
         23    2    1    2    0    0  0.52103196669E+02 -0.10159798125E+03 -0.89761582347E+02  0.19162038723E+03  0.12499735294E+03 0.  0.
          5    1    3    3  502    0  0.80819730064E+02 -0.62512943802E+02 -0.16457451669E+02  0.10359842965E+03  0.47000000000E+01 0. -1.
         -5    1    3    3    0  502 -0.28716533395E+02 -0.39085037449E+02 -0.73304130678E+02  0.88021957585E+02  0.47000000000E+01 0. -1.
        -11    1    1    2    0    0 -0.34514181801E+02  0.11236308983E+03 -0.21816383397E+03  0.24781475169E+03  0.00000000000E+00 0. -1.
         11    1    1    2    0    0 -0.17589014868E+02 -0.10765108574E+02 -0.90647162369E+01  0.22526208893E+02  0.00000000000E+00 0.  1.
<mgrwt>
<rscale>  0 0.16327420E+03</rscale>
<asrwt>0</asrwt>
<pdfrwt beam="2">  1        1 0.59919344E-01 0.16929628E+03</pdfrwt>
<pdfrwt beam="1">  1       -1 0.11151632E-01 0.16929628E+03</pdfrwt>
<totfact> 0.31576313E+03</totfact>
</mgrwt>
</event>
<event>
 7    1  0.8712071E-006  0.1388977E+03  0.7546771E-02  0.1227748E+00
          1   -1    0    0  501    0  0.00000000000E+00  0.00000000000E+00  0.85178898898E+02  0.85178898898E+02  0.00000000000E+00 0. -1.
         -1   -1    0    0    0  501 -0.00000000000E+00 -0.00000000000E+00 -0.19382511349E+03  0.19382511349E+03  0.00000000000E+00 0.  1.
         23    2    1    2    0    0 -0.38899689889E+02 -0.46351221914E+02 -0.10298920999E+03  0.17291429285E+03  0.12502381233E+03 0.  0.
          5    1    3    3  502    0 -0.43050788116E+01  0.79113827180E+01 -0.10773813076E+03  0.10821607320E+03  0.47000000000E+01 0. -1.
         -5    1    3    3    0  502 -0.34594611077E+02 -0.54262604632E+02  0.47489207653E+01  0.64698219647E+02  0.47000000000E+01 0. -1.
        -11    1    1    2    0    0  0.91519071456E+01  0.68252302304E+02 -0.62352401614E+01  0.69144865276E+02  0.00000000000E+00 0.  1.
         11    1    1    2    0    0  0.29747782743E+02 -0.21901080390E+02  0.57823555881E+00  0.36944854266E+02  0.00000000000E+00 0. -1.
<mgrwt>
<rscale>  0 0.12980310E+03</rscale>
<asrwt>0</asrwt>
<pdfrwt beam="1">  1        1 0.13104446E-01 0.13889772E+03</pdfrwt>
<pdfrwt beam="2">  1       -1 0.29819248E-01 0.13889772E+03</pdfrwt>
<totfact> 0.44112906E+03</totfact>
</mgrwt>
</event>
<event>
 7    1  0.8712071E-006  0.1505708E+03  0.7546771E-02  0.1208766E+00
          2   -1    0    0  501    0  0.00000000000E+00  0.00000000000E+00  0.44539357025E+03  0.44539357025E+03  0.00000000000E+00 0. -1.
         -2   -1    0    0    0  501 -0.00000000000E+00 -0.00000000000E+00 -0.43403623357E+02  0.43403623357E+02  0.00000000000E+00 0.  1.
         23    2    1    2    0    0  0.77904134981E+02 -0.31350922313E+02  0.18160127857E+03  0.23590376615E+03  0.12497850986E+03 0.  0.
          5    1    3    3  502    0  0.44430224700E+02 -0.33740418834E+02  0.51447818517E+01  0.56222944696E+02  0.47000000000E+01 0.  1.
         -5    1    3    3    0  502  0.33473910280E+02  0.23894965210E+01  0.17645649672E+03  0.17968082145E+03  0.47000000000E+01 0.  1.
        -11    1    1    2    0    0 -0.14332448443E+02 -0.40411378568E+01 -0.52687872282E+01  0.15795885300E+02  0.00000000000E+00 0.  1.
         11    1    1    2    0    0 -0.63571686538E+02  0.35392060170E+02  0.22565745555E+03  0.23709754216E+03  0.00000000000E+00 0. -1.
<mgrwt>
<rscale>  0 0.14344616E+03</rscale>
<asrwt>0</asrwt>
<pdfrwt beam="1">  1        2 0.68522084E-01 0.15057079E+03</pdfrwt>
<pdfrwt beam="2">  1       -2 0.66774808E-02 0.15057079E+03</pdfrwt>
<totfact> 0.85325047E+03</totfact>
</mgrwt>
</event>
<event>
 7    1  0.8712071E-006  0.1368253E+03  0.7546771E-02  0.1229938E+00
          1   -1    0    0  501    0  0.00000000000E+00  0.00000000000E+00  0.71397498697E+03  0.71397498697E+03  0.00000000000E+00 0. -1.
         -1   -1    0    0    0  501 -0.00000000000E+00 -0.00000000000E+00 -0.21266229890E+02  0.21266229890E+02  0.00000000000E+00 0.  1.
         23    2    1    2    0    0 -0.51591531721E+02  0.21002307239E+02  0.32616829145E+03  0.35370457485E+03  0.12497355267E+03 0.  0.
          5    1    3    3  502    0  0.37586111298E+02 -0.22041606585E+01  0.51605451419E+02  0.64052999171E+02  0.47000000000E+01 0. -1.
         -5    1    3    3    0  502 -0.89177643019E+02  0.23206467897E+02  0.27456284003E+03  0.28965157568E+03  0.47000000000E+01 0. -1.
        -11    1    1    2    0    0  0.74194168822E+02 -0.31524862907E+02  0.29284512189E+03  0.30373813900E+03  0.00000000000E+00 0.  1.
         11    1    1    2    0    0 -0.22602637101E+02  0.10522555668E+02  0.73695343740E+02  0.77798503011E+02  0.00000000000E+00 0. -1.
<mgrwt>
<rscale>  0 0.12834110E+03</rscale>
<asrwt>0</asrwt>
<pdfrwt beam="1">  1        1 0.10984229E+00 0.13682533E+03</pdfrwt>
<pdfrwt beam="2">  1       -1 0.32717282E-02 0.13682533E+03</pdfrwt>
<totfact> 0.87274011E+03</totfact>
</mgrwt>
</event>
<event>
 7    1  0.8712071E-006  0.1635821E+03  0.7546771E-02  0.1192866E+00
         -1   -1    0    0    0  501 -0.00000000000E+00  0.00000000000E+00  0.50543171506E+02  0.50543171506E+02  0.00000000000E+00 0.  1.
          1   -1    0    0  501    0  0.00000000000E+00 -0.00000000000E+00 -0.44950869644E+03  0.44950869644E+03  0.00000000000E+00 0. -1.
         23    2    1    2    0    0 -0.10393999840E+03  0.18246928831E+02 -0.19401653548E+03  0.25377451820E+03  0.12499046511E+03 0.  0.
          5    1    3    3  502    0 -0.37941384127E+02 -0.57672090886E+01  0.83158005726E+01  0.39548095647E+02  0.47000000000E+01 0.  1.
         -5    1    3    3    0  502 -0.65998614271E+02  0.24014137920E+02 -0.20233233606E+03  0.21422642255E+03  0.47000000000E+01 0.  1.
        -11    1    1    2    0    0  0.95024605663E+02 -0.26633873563E+00 -0.94482588216E+02  0.13400263465E+03  0.00000000000E+00 0.  1.
         11    1    1    2    0    0  0.89153927340E+01 -0.17980590096E+02 -0.11046640123E+03  0.11227471509E+03  0.00000000000E+00 0. -1.
<mgrwt>
<rscale>  0 0.15636231E+03</rscale>
<asrwt>0</asrwt>
<pdfrwt beam="2">  1        1 0.69155186E-01 0.16358206E+03</pdfrwt>
<pdfrwt beam="1">  1       -1 0.77758724E-02 0.16358206E+03</pdfrwt>
<totfact> 0.45559489E+03</totfact>
</mgrwt>
</event>
<event>
 7    1  0.8712071E-006  0.1726743E+03  0.7546771E-02  0.1181354E+00
          1   -1    0    0  501    0  0.00000000000E+00  0.00000000000E+00  0.29279133944E+03  0.29279133944E+03  0.00000000000E+00 0. -1.
         -1   -1    0    0    0  501 -0.00000000000E+00 -0.00000000000E+00 -0.11230867963E+03  0.11230867963E+03  0.00000000000E+00 0.  1.
         23    2    1    2    0    0 -0.35924034511E+02 -0.11358383948E+03  0.29046250719E+01  0.17269875911E+03  0.12499839881E+03 0.  0.
          5    1    3    3  502    0 -0.23551704539E+02 -0.46399499269E+02  0.62822858634E+02  0.81709227668E+02  0.47000000000E+01 0.  1.
         -5    1    3    3    0  502 -0.12372329972E+02 -0.67184340210E+02 -0.59918233562E+02  0.90989531440E+02  0.47000000000E+01 0.  1.
        -11    1    1    2    0    0  0.63830734241E+02  0.62970539753E+02  0.86866664320E+02  0.12484177538E+03  0.00000000000E+00 0.  1.
         11    1    1    2    0    0 -0.27906699730E+02  0.50613299727E+02  0.90711370422E+02  0.10755948458E+03  0.00000000000E+00 0. -1.
<mgrwt>
<rscale>  0 0.16668121E+03</rscale>
<asrwt>0</asrwt>
<pdfrwt beam="1">  1        1 0.45044821E-01 0.17267433E+03</pdfrwt>
<pdfrwt beam="2">  1       -1 0.17278259E-01 0.17267433E+03</pdfrwt>
<totfact> 0.22750942E+03</totfact>
</mgrwt>
</event>
<event>
 7    1  0.8712071E-006  0.1327991E+03  0.7546771E-02  0.1237485E+00
          2   -1    0    0  501    0  0.00000000000E+00  0.00000000000E+00  0.25917397806E+03  0.25917397806E+03  0.00000000000E+00 0. -1.
         -2   -1    0    0    0  501 -0.00000000000E+00 -0.00000000000E+00 -0.53281823944E+02  0.53281823944E+02  0.00000000000E+00 0.  1.
         23    2    1    2    0    0 -0.41382264864E+02 -0.17260494823E+02  0.92830191138E+02  0.16202792069E+03  0.12500074467E+03 0.  0.
          5    1    3    3  502    0 -0.10499175358E+02 -0.68544328938E+02  0.67399150270E+02  0.96815769221E+02  0.47000000000E+01 0. -1.
         -5    1    3    3    0  502 -0.30883089506E+02  0.51283834116E+02  0.25431040868E+02  0.65212151465E+02  0.47000000000E+01 0. -1.
        -11    1    1    2    0    0  0.63648228896E+02  0.29889256377E+02  0.63961831556E+02  0.95055670974E+02  0.00000000000E+00 0.  1.
         11    1    1    2    0    0 -0.22265964032E+02 -0.12628761555E+02  0.49100131424E+02  0.55372210345E+02  0.00000000000E+00 0. -1.
<mgrwt>
<rscale>  0 0.12346712E+03</rscale>
<asrwt>0</asrwt>
<pdfrwt beam="1">  1        2 0.39872919E-01 0.13279911E+03</pdfrwt>
<pdfrwt beam="2">  1       -2 0.81972038E-02 0.13279911E+03</pdfrwt>
<totfact> 0.10987346E+04</totfact>
</mgrwt>
</event>
<event>
 7    1  0.8712071E-006  0.1359595E+03  0.7546771E-02  0.1230170E+00
          1   -1    0    0  501    0  0.00000000000E+00  0.00000000000E+00  0.11465259308E+03  0.11465259308E+03  0.00000000000E+00 0. -1.
         -1   -1    0    0    0  501 -0.00000000000E+00 -0.00000000000E+00 -0.13667101869E+03  0.13667101869E+03  0.00000000000E+00 0.  1.
         23    2    1    2    0    0  0.23610297285E+02 -0.47976189012E+02 -0.41463727129E+02  0.14214161358E+03  0.12500334713E+03 0.  0.
          5    1    3    3  502    0  0.82257566093E+01 -0.10826820982E+02  0.44691129126E+02  0.46949655451E+02  0.47000000000E+01 0. -1.
         -5    1    3    3    0  502  0.15384540676E+02 -0.37149368030E+02 -0.86154856256E+02  0.95191958133E+02  0.47000000000E+01 0. -1.
        -11    1    1    2    0    0  0.23748179499E+01 -0.27502848596E+02  0.54333559333E+01  0.28134814694E+02  0.00000000000E+00 0. -1.
         11    1    1    2    0    0 -0.25985115235E+02  0.75479037608E+02  0.14011945586E+02  0.81047183487E+02  0.00000000000E+00 0.  1.
<mgrwt>
<rscale>  0 0.12818735E+03</rscale>
<asrwt>0</asrwt>
<pdfrwt beam="1">  1        1 0.17638861E-01 0.13595954E+03</pdfrwt>
<pdfrwt beam="2">  1       -1 0.21026310E-01 0.13595954E+03</pdfrwt>
<totfact> 0.53280191E+03</totfact>
</mgrwt>
</event>
<event>
 7    1  0.8712071E-006  0.1463096E+03  0.7546771E-02  0.1205765E+00
          2   -1    0    0  501    0  0.00000000000E+00  0.00000000000E+00  0.40846471822E+02  0.40846471822E+02  0.00000000000E+00 0.  1.
         -2   -1    0    0    0  501 -0.00000000000E+00 -0.00000000000E+00 -0.54903671360E+03  0.54903671360E+03  0.00000000000E+00 0. -1.
         23    2    1    2    0    0 -0.76018516529E+02  0.13400928501E+01 -0.32769911561E+03  0.35887771205E+03  0.12500356447E+03 0.  0.
          5    1    3    3  502    0 -0.26854105631E+01  0.46283632388E+02 -0.51009922465E+02  0.69090435278E+02  0.47000000000E+01 0. -1.
         -5    1    3    3    0  502 -0.73333105966E+02 -0.44943539538E+02 -0.27668919315E+03  0.28978727678E+03  0.47000000000E+01 0. -1.
        -11    1    1    2    0    0  0.22237416488E+02 -0.42095184376E+02 -0.11409292448E+02  0.48955890288E+02  0.00000000000E+00 0.  1.
         11    1    1    2    0    0  0.53781100041E+02  0.40755091526E+02 -0.16908183371E+03  0.18204958308E+03  0.00000000000E+00 0. -1.
<mgrwt>
<rscale>  0 0.14577306E+03</rscale>
<asrwt>0</asrwt>
<pdfrwt beam="1">  1        2 0.62840729E-02 0.14630961E+03</pdfrwt>
<pdfrwt beam="2">  1       -2 0.84467182E-01 0.14630961E+03</pdfrwt>
<totfact> 0.14247116E+03</totfact>
</mgrwt>
</event>
<event>
 7    1  0.8712071E-006  0.1841774E+03  0.7546771E-02  0.1168839E+00
          2   -1    0    0  501    0  0.00000000000E+00  0.00000000000E+00  0.65991149816E+03  0.65991149816E+03  0.00000000000E+00 0. -1.
         -2   -1    0    0    0  501 -0.00000000000E+00 -0.00000000000E+00 -0.50912370022E+02  0.50912370022E+02  0.00000000000E+00 0.  1.
         23    2    1    2    0    0 -0.11743558543E+03  0.67120980294E+02  0.20953340180E+03  0.27897235493E+03  0.12499994249E+03 0.  0.
          5    1    3    3  502    0 -0.16452907291E+01  0.53139833197E+02  0.12170694804E+03  0.13289552308E+03  0.47000000000E+01 0.  1.
         -5    1    3    3    0  502 -0.11579029470E+03  0.13981147097E+02  0.87826453761E+02  0.14607683185E+03  0.47000000000E+01 0.  1.
        -11    1    1    2    0    0  0.84728670253E+02 -0.27341801036E+01  0.15174654160E+03  0.17382012597E+03  0.00000000000E+00 0.  1.
         11    1    1    2    0    0  0.32706915180E+02 -0.64386800191E+02  0.24771918474E+03  0.25803138729E+03  0.00000000000E+00 0. -1.
<mgrwt>
<rscale>  0 0.17893384E+03</rscale>
<asrwt>0</asrwt>
<pdfrwt beam="1">  1        2 0.10152484E+00 0.18417744E+03</pdfrwt>
<pdfrwt beam="2">  1       -2 0.78326728E-02 0.18417744E+03</pdfrwt>
<totfact> 0.43299758E+03</totfact>
</mgrwt>
</event>
<event>
 7    1  0.8712071E-006  0.1895535E+03  0.7546771E-02  0.1163997E+00
          1   -1    0    0  501    0  0.00000000000E+00  0.00000000000E+00  0.70062094672E+03  0.70062094672E+03  0.00000000000E+00 0.  1.
         -1   -1    0    0    0  501 -0.00000000000E+00 -0.00000000000E+00 -0.46322976093E+02  0.46322976093E+02  0.00000000000E+00 0. -1.
         23    2    1    2    0    0  0.13164549250E+03  0.54536792947E+02  0.30257481954E+03  0.35704630556E+03  0.12500298160E+03 0.  0.
          5    1    3    3  502    0  0.13793189795E+03  0.43489976988E+02  0.30962590980E+03  0.34177021606E+03  0.47000000000E+01 0.  1.
         -5    1    3    3    0  502 -0.62864054500E+01  0.11046815960E+02 -0.70510902563E+01  0.15276089491E+02  0.47000000000E+01 0.  1.
        -11    1    1    2    0    0 -0.13217020185E+01 -0.34238046867E+02  0.10009847996E+03  0.10580026673E+03  0.00000000000E+00 0.  1.
         11    1    1    2    0    0 -0.13032379048E+03 -0.20298746080E+02  0.25162467112E+03  0.28409735053E+03  0.00000000000E+00 0. -1.
<mgrwt>
<rscale>  0 0.18398960E+03</rscale>
<asrwt>0</asrwt>
<pdfrwt beam="1">  1        1 0.10778783E+00 0.18955354E+03</pdfrwt>
<pdfrwt beam="2">  1       -1 0.71266122E-02 0.18955354E+03</pdfrwt>
<totfact> 0.28632435E+03</totfact>
</mgrwt>
</event>
<event>
 6    1  0.8712071E-006  0.4237185E+03  0.7546771E-02  0.1060845E+00
         -1   -1    0    0    0  501 -0.00000000000E+00  0.00000000000E+00  0.13837512188E+03  0.13837512188E+03  0.00000000000E+00 0.  1.
          1   -1    0    0  501    0  0.00000000000E+00 -0.00000000000E+00 -0.79408614174E+03  0.79408614174E+03  0.00000000000E+00 0. -1.
          5    1    1    2  502    0 -0.14897729786E+03  0.11457380895E+02 -0.20659469391E+03  0.25500777323E+03  0.47000000000E+01 0. -1.
         -5    1    1    2    0  502  0.17442208939E+03  0.17304973263E+03 -0.87871627917E+02  0.26098426815E+03  0.47000000000E+01 0.  1.
        -11    1    1    2    0    0 -0.38665270949E+02 -0.30255130465E+02 -0.57991187583E+02  0.75982589679E+02  0.00000000000E+00 0.  1.
         11    1    1    2    0    0  0.13220479419E+02 -0.15425198306E+03 -0.30325351044E+03  0.34048663256E+03  0.00000000000E+00 0. -1.
<mgrwt>
<rscale>  0 0.35434561E+03</rscale>
<asrwt>0</asrwt>
<pdfrwt beam="2">  1        1 0.12216710E+00 0.42371851E+03</pdfrwt>
<pdfrwt beam="1">  1       -1 0.21288480E-01 0.42371851E+03</pdfrwt>
<totfact> 0.42188504E+02</totfact>
</mgrwt>
</event>
<event>
 7    1  0.8712071E-006  0.1976098E+03  0.7546771E-02  0.1156097E+00
         -2   -1    0    0    0  501 -0.00000000000E+00  0.00000000000E+00  0.19194599332E+03  0.19194599332E+03  0.00000000000E+00 0.  1.
          2   -1    0    0  501    0  0.00000000000E+00 -0.00000000000E+00 -0.29428459501E+03  0.29428459501E+03  0.00000000000E+00 0. -1.
         23    2    1    2    0    0 -0.14365468968E+03  0.52794123807E+02  0.95753575710E+02  0.21958682310E+03  0.12500294494E+03 0.  0.
          5    1    3    3  502    0 -0.81120537690E+02  0.81415248204E+02  0.19280735178E+02  0.11663113231E+03  0.47000000000E+01 0. -1.
         -5    1    3    3    0  502 -0.62534151987E+02 -0.28621124397E+02  0.76472840533E+02  0.10295569079E+03  0.47000000000E+01 0. -1.
        -11    1    1    2    0    0  0.28116060946E+02 -0.87063709506E+01 -0.11240280953E+03  0.11619253577E+03  0.00000000000E+00 0. -1.
         11    1    1    2    0    0  0.11553862873E+03 -0.44087752857E+02 -0.85689367867E+02  0.15045122946E+03  0.00000000000E+00 0.  1.
<mgrwt>
<rscale>  0 0.19264569E+03</rscale>
<asrwt>0</asrwt>
<pdfrwt beam="2">  1        2 0.45274553E-01 0.19760978E+03</pdfrwt>
<pdfrwt beam="1">  1       -2 0.29530153E-01 0.19760978E+03</pdfrwt>
<totfact> 0.11695052E+03</totfact>
</mgrwt>
</event>
<event>
 7    1  0.8712071E-006  0.1482457E+03  0.7546771E-02  0.1211594E+00
         -1   -1    0    0    0  501 -0.00000000000E+00  0.00000000000E+00  0.72344324726E+02  0.72344324726E+02  0.00000000000E+00 0.  1.
          1   -1    0    0  501    0  0.00000000000E+00 -0.00000000000E+00 -0.31768820960E+03  0.31768820960E+03  0.00000000000E+00 0. -1.
         23    2    1    2    0    0  0.35758601440E+02  0.71235464395E+02 -0.44361176084E+02  0.15474072218E+03  0.12499443264E+03 0.  0.
          5    1    3    3  502    0 -0.42278867058E+02  0.26581084614E+01 -0.23511785122E+02  0.48677121730E+02  0.47000000000E+01 0. -1.
         -5    1    3    3    0  502  0.78037468497E+02  0.68577355934E+02 -0.20849390962E+02  0.10606360045E+03  0.47000000000E+01 0. -1.
        -11    1    1    2    0    0  0.30487260258E+02 -0.32667726247E+02 -0.59916734190E+02  0.74744019240E+02  0.00000000000E+00 0. -1.
         11    1    1    2    0    0 -0.66245861697E+02 -0.38567738148E+02 -0.14106597460E+03  0.16054779291E+03  0.00000000000E+00 0.  1.
<mgrwt>
<rscale>  0 0.14129691E+03</rscale>
<asrwt>0</asrwt>
<pdfrwt beam="2">  1        1 0.48875109E-01 0.14824566E+03</pdfrwt>
<pdfrwt beam="1">  1       -1 0.11129896E-01 0.14824566E+03</pdfrwt>
<totfact> 0.40653887E+03</totfact>
</mgrwt>
</event>
<event>
 7    1  0.8712071E-006  0.1274636E+03  0.7546771E-02  0.1245850E+00
          1   -1    0    0  501    0  0.00000000000E+00  0.00000000000E+00  0.13902175175E+03  0.13902175175E+03  0.00000000000E+00 0. -1.
         -1   -1    0    0    0  501 -0.00000000000E+00 -0.00000000000E+00 -0.91513177086E+02  0.91513177086E+02  0.00000000000E+00 0.  1.
         23    2    1    2    0    0 -0.87816102585E+00 -0.24495852685E+02  0.74281016813E+01  0.12767986707E+03  0.12508458656E+03 0.  0.
          5    1    3    3  502    0 -0.28074827993E+02 -0.62450546492E+02 -0.22256680311E+02  0.72150651712E+02  0.47000000000E+01 0.  1.
         -5    1    3    3    0  502  0.27196666967E+02  0.37954693807E+02  0.29684781993E+02  0.55529215356E+02  0.47000000000E+01 0.  1.
        -11    1    1    2    0    0  0.38682074169E+02 -0.73209016302E+01  0.21829471421E+00  0.39369355027E+02  0.00000000000E+00 0.  1.
         11    1    1    2    0    0 -0.37803913143E+02  0.31816754316E+02  0.39862178267E+02  0.63485706740E+02  0.00000000000E+00 0. -1.
<mgrwt>
<rscale>  0 0.11834643E+03</rscale>
<asrwt>0</asrwt>
<pdfrwt beam="1">  1        1 0.21387962E-01 0.12746361E+03</pdfrwt>
<pdfrwt beam="2">  1       -1 0.14078950E-01 0.12746361E+03</pdfrwt>
<totfact> 0.78337474E+03</totfact>
</mgrwt>
</event>
<event>
 7    1  0.8712071E-006  0.1888274E+03  0.7546771E-02  0.1164337E+00
          1   -1    0    0  501    0  0.00000000000E+00  0.00000000000E+00  0.23338800252E+03  0.23338800252E+03  0.00000000000E+00 0. -1.
         -1   -1    0    0    0  501 -0.00000000000E+00 -0.00000000000E+00 -0.19879907791E+03  0.19879907791E+03  0.00000000000E+00 0.  1.
         23    2    1    2    0    0 -0.12662554531E+03  0.63244437824E+02 -0.10233694155E+03  0.21477575190E+03  0.12498754480E+03 0.  0.
          5    1    3    3  502    0  0.14069512989E+01  0.23480361672E+02  0.21496237077E+02  0.32210015596E+02  0.47000000000E+01 0. -1.
         -5    1    3    3    0  502 -0.12803249661E+03  0.39764076152E+02 -0.12383317863E+03  0.18256573630E+03  0.47000000000E+01 0. -1.
        -11    1    1    2    0    0  0.21742067590E+01 -0.20138222736E+02 -0.78209987642E+01  0.21712743071E+02  0.00000000000E+00 0.  1.
         11    1    1    2    0    0  0.12445133855E+03 -0.43106215088E+02  0.14474686492E+03  0.19569858546E+03  0.00000000000E+00 0. -1.
<mgrwt>
<rscale>  0 0.18362866E+03</rscale>
<asrwt>0</asrwt>
<pdfrwt beam="1">  1        1 0.35905847E-01 0.18882737E+03</pdfrwt>
<pdfrwt beam="2">  1       -1 0.30584473E-01 0.18882737E+03</pdfrwt>
<totfact> 0.11849262E+03</totfact>
</mgrwt>
</event>
<event>
 7    1  0.8712071E-006  0.1569041E+03  0.7546771E-02  0.1199472E+00
         -2   -1    0    0    0  501 -0.00000000000E+00  0.00000000000E+00  0.52447101666E+03  0.52447101666E+03  0.00000000000E+00 0.  1.
          2   -1    0    0  501    0  0.00000000000E+00 -0.00000000000E+00 -0.73381724644E+02  0.73381724644E+02  0.00000000000E+00 0. -1.
         23    2    1    2    0    0  0.10471397255E+01 -0.94755412565E+02  0.43563084176E+03  0.46302607022E+03  0.12505689383E+03 0.  0.
          5    1    3    3  502    0  0.31009278589E+02 -0.50828085027E+02  0.38449172220E+03  0.38910287075E+03  0.47000000000E+01 0.  1.
         -5    1    3    3    0  502 -0.29962138864E+02 -0.43927327538E+02  0.51139119564E+02  0.73923199469E+02  0.47000000000E+01 0.  1.
        -11    1    1    2    0    0 -0.22829449589E+02  0.10341021060E+03  0.26124854076E+02  0.10907503576E+03  0.00000000000E+00 0.  1.
         11    1    1    2    0    0  0.21782309863E+02 -0.86547980342E+01 -0.10666403817E+02  0.25751635334E+02  0.00000000000E+00 0. -1.
<mgrwt>
<rscale>  0 0.15081738E+03</rscale>
<asrwt>0</asrwt>
<pdfrwt beam="2">  1        2 0.11289496E-01 0.15690415E+03</pdfrwt>
<pdfrwt beam="1">  1       -2 0.80687847E-01 0.15690415E+03</pdfrwt>
<totfact> 0.75904856E+02</totfact>
</mgrwt>
</event>
<event>
 7    1  0.8712071E-006  0.1974837E+03  0.7546771E-02  0.1156357E+00
          1   -1    0    0  501    0  0.00000000000E+00  0.00000000000E+00  0.65884098525E+03  0.65884098525E+03  0.00000000000E+00 0. -1.
         -1   -1    0    0    0  501 -0.00000000000E+00 -0.00000000000E+00 -0.61488754101E+02  0.61488754101E+02  0.00000000000E+00 0.  1.
         23    2    1    2    0    0 -0.15159550757E+03  0.20001317759E+02  0.18206076125E+03  0.26859993987E+03  0.12497422247E+03 0.  0.
          5    1    3    3  502    0 -0.17854219032E+02 -0.44340203074E+02  0.56369810816E+02  0.74057223262E+02  0.47000000000E+01 0.  1.
         -5    1    3    3    0  502 -0.13374128853E+03  0.64341520833E+02  0.12569095044E+03  0.19454271660E+03  0.47000000000E+01 0.  1.
        -11    1    1    2    0    0  0.32037979476E+02 -0.44999516533E+02  0.11631072031E+03  0.12876168792E+03  0.00000000000E+00 0.  1.
         11    1    1    2    0    0  0.11955752809E+03  0.24998198774E+02  0.29898074958E+03  0.32296811156E+03  0.00000000000E+00 0. -1.
<mgrwt>
<rscale>  0 0.19235211E+03</rscale>
<asrwt>0</asrwt>
<pdfrwt beam="1">  1        1 0.10136015E+00 0.19748369E+03</pdfrwt>
<pdfrwt beam="2">  1       -1 0.94598088E-02 0.19748369E+03</pdfrwt>
<totfact> 0.20327630E+03</totfact>
</mgrwt>
</event>
<event>
 7    1  0.8712071E-006  0.1322175E+03  0.7546771E-02  0.1239728E+00
         -2   -1    0    0    0  501 -0.00000000000E+00  0.00000000000E+00  0.81123990042E+02  0.81123990042E+02  0.00000000000E+00 0.  1.
          2   -1    0    0  501    0  0.00000000000E+00 -0.00000000000E+00 -0.16499076184E+03  0.16499076184E+03  0.00000000000E+00 0. -1.
         23    2    1    2    0    0 -0.19159720771E+02 -0.38603651460E+02 -0.28522472887E+02  0.13525898924E+03  0.12499650357E+03 0.  0.
          5    1    3    3  502    0 -0.45814808294E+02 -0.57180239933E+02 -0.56087363857E+02  0.92392959051E+02  0.47000000000E+01 0. -1.
         -5    1    3    3    0  502  0.26655087522E+02  0.18576588472E+02  0.27564890969E+02  0.42866030190E+02  0.47000000000E+01 0. -1.
        -11    1    1    2    0    0  0.16426133269E+02  0.16174664387E+02  0.21033133445E+02  0.31206254577E+02  0.00000000000E+00 0.  1.
         11    1    1    2    0    0  0.27335875021E+01  0.22428987074E+02 -0.76377432360E+02  0.79649508070E+02  0.00000000000E+00 0. -1.
<mgrwt>
<rscale>  0 0.12206563E+03</rscale>
<asrwt>0</asrwt>
<pdfrwt beam="2">  1        2 0.25383194E-01 0.13221748E+03</pdfrwt>
<pdfrwt beam="1">  1       -2 0.12480614E-01 0.13221748E+03</pdfrwt>
<totfact> 0.92309044E+03</totfact>
</mgrwt>
</event>
<event>
 7    1  0.8712071E-006  0.1321039E+03  0.7546771E-02  0.1238365E+00
         -1   -1    0    0    0  501 -0.00000000000E+00  0.00000000000E+00  0.71800344557E+02  0.71800344557E+02  0.00000000000E+00 0.  1.
          1   -1    0    0  501    0  0.00000000000E+00 -0.00000000000E+00 -0.30974068284E+03  0.30974068284E+03  0.00000000000E+00 0. -1.
         23    2    1    2    0    0 -0.38263429095E+02  0.19070720632E+02 -0.93547056344E+01  0.13243475024E+03  0.12499468053E+03 0.  0.
          5    1    3    3  502    0  0.35003049526E+02  0.35188389089E+02  0.17166371007E+02  0.52727701414E+02  0.47000000000E+01 0. -1.
         -5    1    3    3    0  502 -0.73266478621E+02 -0.16117668457E+02 -0.26521076642E+02  0.79707048824E+02  0.47000000000E+01 0. -1.
        -11    1    1    2    0    0  0.54449061746E+02  0.17158638397E+02 -0.10800804365E+03  0.12216733069E+03  0.00000000000E+00 0.  1.
         11    1    1    2    0    0 -0.16185632651E+02 -0.36229359029E+02 -0.12057758901E+03  0.12693894647E+03  0.00000000000E+00 0. -1.
<mgrwt>
<rscale>  0 0.12291481E+03</rscale>
<asrwt>0</asrwt>
<pdfrwt beam="2">  1        1 0.47652413E-01 0.13210395E+03</pdfrwt>
<pdfrwt beam="1">  1       -1 0.11046207E-01 0.13210395E+03</pdfrwt>
<totfact> 0.42193443E+03</totfact>
</mgrwt>
</event>
<event>
 7    1  0.8712071E-006  0.1518811E+03  0.7546771E-02  0.1206410E+00
          1   -1    0    0  501    0  0.00000000000E+00  0.00000000000E+00  0.76851128209E+03  0.76851128209E+03  0.00000000000E+00 0. -1.
         -1   -1    0    0    0  501 -0.00000000000E+00 -0.00000000000E+00 -0.25598943745E+02  0.25598943745E+02  0.00000000000E+00 0.  1.
         23    2    1    2    0    0  0.55959468253E+02 -0.65669645927E+02  0.36282417564E+03  0.39333097655E+03  0.12499564074E+03 0.  0.
          5    1    3    3  502    0  0.66995549956E+02 -0.95899664587E+02  0.25268819602E+03  0.27849338195E+03  0.47000000000E+01 0. -1.
         -5    1    3    3    0  502 -0.11036081703E+02  0.30230018660E+02  0.11013597962E+03  0.11483759460E+03  0.47000000000E+01 0. -1.
        -11    1    1    2    0    0 -0.38855204459E+02  0.87129981131E+02  0.24473266292E+03  0.26266982473E+03  0.00000000000E+00 0.  1.
         11    1    1    2    0    0 -0.17104263795E+02 -0.21460335205E+02  0.13535549979E+03  0.13810942455E+03  0.00000000000E+00 0. -1.
<mgrwt>
<rscale>  0 0.14526899E+03</rscale>
<asrwt>0</asrwt>
<pdfrwt beam="1">  1        1 0.11823249E+00 0.15188112E+03</pdfrwt>
<pdfrwt beam="2">  1       -1 0.39382996E-02 0.15188112E+03</pdfrwt>
<totfact> 0.60052557E+03</totfact>
</mgrwt>
</event>
<event>
 7    1  0.8712071E-006  0.1417527E+03  0.7546771E-02  0.1222654E+00
         -1   -1    0    0    0  501 -0.00000000000E+00  0.00000000000E+00  0.71925217132E+02  0.71925217132E+02  0.00000000000E+00 0.  1.
          1   -1    0    0  501    0  0.00000000000E+00 -0.00000000000E+00 -0.32724214199E+03  0.32724214199E+03  0.00000000000E+00 0. -1.
         23    2    1    2    0    0 -0.41434400078E+02 -0.52339223950E+02 -0.25499002167E+02  0.14402790054E+03  0.12505052239E+03 0.  0.
          5    1    3    3  502    0  0.96418452369E+01 -0.42563598997E+02  0.40600748677E+02  0.59792440428E+02  0.47000000000E+01 0.  1.
         -5    1    3    3    0  502 -0.51076245314E+02 -0.97756249531E+01 -0.66099750845E+02  0.84235460113E+02  0.47000000000E+01 0.  1.
        -11    1    1    2    0    0 -0.73790614809E+01  0.60467264689E+02 -0.13766444755E+03  0.15053983116E+03  0.00000000000E+00 0. -1.
         11    1    1    2    0    0  0.48813461558E+02 -0.81280407386E+01 -0.92153475142E+02  0.10459962742E+03  0.00000000000E+00 0.  1.
<mgrwt>
<rscale>  0 0.13329007E+03</rscale>
<asrwt>0</asrwt>
<pdfrwt beam="2">  1        1 0.50344943E-01 0.14175273E+03</pdfrwt>
<pdfrwt beam="1">  1       -1 0.11065418E-01 0.14175273E+03</pdfrwt>
<totfact> 0.39446649E+03</totfact>
</mgrwt>
</event>
<event>
 7    1  0.8712071E-006  0.1527873E+03  0.7546771E-02  0.1205676E+00
         -1   -1    0    0    0  501 -0.00000000000E+00  0.00000000000E+00  0.40431863266E+03  0.40431863266E+03  0.00000000000E+00 0.  1.
          1   -1    0    0  501    0  0.00000000000E+00 -0.00000000000E+00 -0.56905036875E+02  0.56905036875E+02  0.00000000000E+00 0. -1.
         23    2    1    2    0    0 -0.63777518718E+02  0.60492557839E+02  0.27648584866E+03  0.31589299057E+03  0.12496813809E+03 0.  0.
          5    1    3    3  502    0  0.30931546724E+02  0.11221126869E+02  0.21941457843E+02  0.39827024032E+02  0.47000000000E+01 0. -1.
         -5    1    3    3    0  502 -0.94709065442E+02  0.49271430970E+02  0.25454439081E+03  0.27606596654E+03  0.47000000000E+01 0. -1.
        -11    1    1    2    0    0  0.50884020513E+02  0.48691970339E+01  0.46028656755E+01  0.51323279277E+02  0.00000000000E+00 0. -1.
         11    1    1    2    0    0  0.12893498204E+02 -0.65361754873E+02  0.66324881450E+02  0.94007399684E+02  0.00000000000E+00 0.  1.
<mgrwt>
<rscale>  0 0.14584308E+03</rscale>
<asrwt>0</asrwt>
<pdfrwt beam="2">  1        1 0.87546213E-02 0.15278729E+03</pdfrwt>
<pdfrwt beam="1">  1       -1 0.62202865E-01 0.15278729E+03</pdfrwt>
<totfact> 0.20342192E+03</totfact>
</mgrwt>
</event>
<event>
 7    1  0.8712071E-006  0.1410825E+03  0.7546771E-02  0.1222954E+00
         -2   -1    0    0    0  501 -0.00000000000E+00  0.00000000000E+00  0.24328558896E+03  0.24328558896E+03  0.00000000000E+00 0.  1.
          2   -1    0    0  501    0  0.00000000000E+00 -0.00000000000E+00 -0.13644553434E+03  0.13644553434E+03  0.00000000000E+00 0. -1.
         23    2    1    2    0    0 -0.58901158091E+02 -0.28457356525E+02  0.19271462062E+03  0.23883717777E+03  0.12500041968E+03 0.  0.
          5    1    3    3  502    0 -0.66625308061E+02 -0.43598504501E+01  0.20095780883E+03  0.21181140408E+03  0.47000000000E+01 0. -1.
         -5    1    3    3    0  502  0.77241499695E+01 -0.24097506075E+02 -0.82431882048E+01  0.27025773690E+02  0.47000000000E+01 0. -1.
        -11    1    1    2    0    0  0.51450837786E+02 -0.24690493424E+02 -0.35006991726E+02  0.66949971203E+02  0.00000000000E+00 0. -1.
         11    1    1    2    0    0  0.74503203049E+01  0.53147849949E+02 -0.50867574275E+02  0.73943974328E+02  0.00000000000E+00 0.  1.
<mgrwt>
<rscale>  0 0.13308134E+03</rscale>
<asrwt>0</asrwt>
<pdfrwt beam="2">  1        2 0.20991621E-01 0.14108250E+03</pdfrwt>
<pdfrwt beam="1">  1       -2 0.37428552E-01 0.14108250E+03</pdfrwt>
<totfact> 0.17330840E+03</totfact>
</mgrwt>
</event>
<event>
 7    1  0.8712071E-006  0.1380368E+03  0.7546771E-02  0.1227955E+00
          2   -1    0    0  501    0  0.00000000000E+00  0.00000000000E+00  0.20924714669E+03  0.20924714669E+03  0.00000000000E+00 0. -1.
         -2   -1    0    0    0  501 -0.00000000000E+00 -0.00000000000E+00 -0.78572120743E+02  0.78572120743E+02  0.00000000000E+00 0.  1.
         23    2    1    2    0    0  0.58218899885E+02 -0.63112928318E+01  0.31510641275E+02  0.14158772676E+03  0.12499956454E+03 0.  0.
          5    1    3    3  502    0 -0.15330576233E+02 -0.39334846842E+02  0.42494387057E+02  0.60084271445E+02  0.47000000000E+01 0. -1.
         -5    1    3    3    0  502  0.73549476118E+02  0.33023554010E+02 -0.10983745783E+02  0.81503455314E+02  0.47000000000E+01 0. -1.
        -11    1    1    2    0    0 -0.23456755099E+02 -0.22445764929E+02 -0.48765746155E+01  0.32830057920E+02  0.00000000000E+00 0.  1.
         11    1    1    2    0    0 -0.34762144786E+02  0.28757057760E+02  0.10404095929E+03  0.11340148276E+03  0.00000000000E+00 0. -1.
<mgrwt>
<rscale>  0 0.12966399E+03</rscale>
<asrwt>0</asrwt>
<pdfrwt beam="1">  1        2 0.32191868E-01 0.13803682E+03</pdfrwt>
<pdfrwt beam="2">  1       -2 0.12088019E-01 0.13803682E+03</pdfrwt>
<totfact> 0.75251155E+03</totfact>
</mgrwt>
</event>
<event>
 7    1  0.8712071E-006  0.3910542E+03  0.7546771E-02  0.1047732E+00
          2   -1    0    0  501    0  0.00000000000E+00  0.00000000000E+00  0.13886279204E+04  0.13886279204E+04  0.00000000000E+00 0. -1.
         -2   -1    0    0    0  501 -0.00000000000E+00 -0.00000000000E+00 -0.14640962198E+03  0.14640962198E+03  0.00000000000E+00 0.  1.
         23    2    1    2    0    0  0.33750133016E+03 -0.15293800489E+03  0.23132392936E+03  0.45435026061E+03  0.12500487118E+03 0.  0.
          5    1    3    3  502    0  0.83545572168E+01 -0.41764679456E+02  0.34605934666E+02  0.55079467957E+02  0.47000000000E+01 0.  1.
         -5    1    3    3    0  502  0.32914677294E+03 -0.11117332544E+03  0.19671799469E+03  0.39927079265E+03  0.47000000000E+01 0.  1.
        -11    1    1    2    0    0 -0.73039429846E+02  0.58911207134E+02  0.16989704767E+03  0.19408837019E+03  0.00000000000E+00 0.  1.
         11    1    1    2    0    0 -0.26446190031E+03  0.94026797760E+02  0.84099732142E+03  0.88659891160E+03  0.00000000000E+00 0. -1.
<mgrwt>
<rscale>  0 0.38878858E+03</rscale>
<asrwt>0</asrwt>
<pdfrwt beam="1">  1        2 0.21363506E+00 0.39105421E+03</pdfrwt>
<pdfrwt beam="2">  1       -2 0.22524558E-01 0.39105421E+03</pdfrwt>
<totfact> 0.26541061E+02</totfact>
</mgrwt>
</event>
<event>
 7    1  0.8712071E-006  0.1635947E+03  0.7546771E-02  0.1201340E+00
         -2   -1    0    0    0  501 -0.00000000000E+00  0.00000000000E+00  0.17494344596E+03  0.17494344596E+03  0.00000000000E+00 0.  1.
          2   -1    0    0  501    0  0.00000000000E+00 -0.00000000000E+00 -0.16927214089E+03  0.16927214089E+03  0.00000000000E+00 0. -1.
         23    2    1    2    0    0 -0.57231727416E+02  0.88680485236E+02  0.10417876891E+03  0.19394957743E+03  0.12499409430E+03 0.  0.
          5    1    3    3  502    0 -0.59413917957E+01 -0.22733181778E+02 -0.10322938343E+02  0.26091200553E+02  0.47000000000E+01 0. -1.
         -5    1    3    3    0  502 -0.51290335620E+02  0.11141366701E+03  0.11450170725E+03  0.16785837688E+03  0.47000000000E+01 0. -1.
        -11    1    1    2    0    0  0.38100580874E+02 -0.74151555936E+02 -0.94317752057E+02  0.12588068106E+03  0.00000000000E+00 0. -1.
         11    1    1    2    0    0  0.19131146542E+02 -0.14528929300E+02 -0.41897117792E+01  0.24385328364E+02  0.00000000000E+00 0.  1.
<mgrwt>
<rscale>  0 0.14929669E+03</rscale>
<asrwt>0</asrwt>
<pdfrwt beam="2">  1        2 0.26041868E-01 0.16359469E+03</pdfrwt>
<pdfrwt beam="1">  1       -2 0.26914376E-01 0.16359469E+03</pdfrwt>
<totfact> 0.24994799E+03</totfact>
</mgrwt>
</event>
<event>
 7    1  0.9410143E-006  0.2183001E+03  0.7546771E-02  0.1138706E+00
         -1   -1    0    0    0  501 -0.00000000000E+00  0.00000000000E+00  0.11998226747E+03  0.11998226747E+03  0.00000000000E+00 0.  1.
          1   -1    0    0  501    0  0.00000000000E+00 -0.00000000000E+00 -0.36537318605E+03  0.36537318605E+03  0.00000000000E+00 0. -1.
         23    2    1    2    0    0  0.34717241156E+02  0.17556843055E+03 -0.12133256342E+03  0.24975288905E+03  0.12500141601E+03 0.  0.
          5    1    3    3  502    0 -0.45614567840E+02  0.79345368031E+02 -0.38297473803E+02  0.99323525547E+02  0.47000000000E+01 0.  1.
         -5    1    3    3    0  502  0.80331808996E+02  0.96223062523E+02 -0.83035089614E+02  0.15042936351E+03  0.47000000000E+01 0.  1.
        -11    1    1    2    0    0  0.28056139025E+02 -0.26773900049E+02 -0.25336900432E+02  0.46324369227E+02  0.00000000000E+00 0. -1.
         11    1    1    2    0    0 -0.62773380181E+02 -0.14879453051E+03 -0.98721454738E+02  0.18927819524E+03  0.00000000000E+00 0.  1.
<mgrwt>
<rscale>  0 0.21365247E+03</rscale>
<asrwt>0</asrwt>
<pdfrwt beam="2">  1        1 0.56211260E-01 0.21830006E+03</pdfrwt>
<pdfrwt beam="1">  1       -1 0.18458810E-01 0.21830006E+03</pdfrwt>
<totfact> 0.15584549E+03</totfact>
</mgrwt>
</event>
<event>
 7    1  0.8712071E-006  0.1682767E+03  0.7546771E-02  0.1185949E+00
         -1   -1    0    0    0  501 -0.00000000000E+00  0.00000000000E+00  0.17030136014E+03  0.17030136014E+03  0.00000000000E+00 0.  1.
          1   -1    0    0  501    0  0.00000000000E+00 -0.00000000000E+00 -0.16475997545E+03  0.16475997545E+03  0.00000000000E+00 0. -1.
         23    2    1    2    0    0  0.36456806701E+02  0.10659711152E+03  0.60598297212E+02  0.17885521419E+03  0.12499996432E+03 0.  0.
          5    1    3    3  502    0 -0.12546404895E+02 -0.24415844147E+02  0.51890631766E+01  0.28329526961E+02  0.47000000000E+01 0.  1.
         -5    1    3    3    0  502  0.49003211596E+02  0.13101295567E+03  0.55409234035E+02  0.15052568723E+03  0.47000000000E+01 0.  1.
        -11    1    1    2    0    0 -0.62985454881E+01 -0.28414999102E+02  0.26434917282E+02  0.39317791150E+02  0.00000000000E+00 0.  1.
         11    1    1    2    0    0 -0.30158261213E+02 -0.78182112422E+02 -0.81491829809E+02  0.11688833025E+03  0.00000000000E+00 0. -1.
<mgrwt>
<rscale>  0 0.16245802E+03</rscale>
<asrwt>0</asrwt>
<pdfrwt beam="2">  1        1 0.25347689E-01 0.16827666E+03</pdfrwt>
<pdfrwt beam="1">  1       -1 0.26200209E-01 0.16827666E+03</pdfrwt>
<totfact> 0.23703375E+03</totfact>
</mgrwt>
</event>
<event>
 7    1  0.8712071E-006  0.1282015E+03  0.7546771E-02  0.1246797E+00
          2   -1    0    0  501    0  0.00000000000E+00  0.00000000000E+00  0.60185451747E+02  0.60185451747E+02  0.00000000000E+00 0. -1.
         -2   -1    0    0    0  501 -0.00000000000E+00 -0.00000000000E+00 -0.20616716763E+03  0.20616716763E+03  0.00000000000E+00 0.  1.
         23    2    1    2    0    0  0.85429742673E+01  0.27148517998E+02 -0.10720766941E+03  0.16712004729E+03  0.12500240553E+03 0.  0.
          5    1    3    3  502    0  0.64758839814E+01  0.80347543202E+01 -0.13362838001E+03  0.13410864362E+03  0.47000000000E+01 0. -1.
         -5    1    3    3    0  502  0.20670902859E+01  0.19113763678E+02  0.26420710593E+02  0.33011403673E+02  0.47000000000E+01 0. -1.
        -11    1    1    2    0    0 -0.22849813694E+02  0.18990064606E+02 -0.41281650306E+02  0.50861686873E+02  0.00000000000E+00 0.  1.
         11    1    1    2    0    0  0.14306839427E+02 -0.46138582604E+02  0.25076038375E+01  0.48370885211E+02  0.00000000000E+00 0. -1.
<mgrwt>
<rscale>  0 0.11778488E+03</rscale>
<asrwt>0</asrwt>
<pdfrwt beam="1">  1        2 0.92593003E-02 0.12820150E+03</pdfrwt>
<pdfrwt beam="2">  1       -2 0.31718026E-01 0.12820150E+03</pdfrwt>
<totfact> 0.61434329E+03</totfact>
</mgrwt>
</event>
<event>
 7    1  0.8712071E-006  0.1370959E+03  0.7546771E-02  0.1229674E+00
          3   -1    0    0  501    0  0.00000000000E+00  0.00000000000E+00  0.20149040366E+02  0.20149040366E+02  0.00000000000E+00 0. -1.
         -3   -1    0    0    0  501 -0.00000000000E+00 -0.00000000000E+00 -0.76351679220E+03  0.76351679220E+03  0.00000000000E+00 0.  1.
         23    2    1    2    0    0 -0.36969891135E+02 -0.42472324297E+02 -0.49595110173E+03  0.51455105045E+03  0.12499846811E+03 0.  0.
          5    1    3    3  502    0 -0.23822188860E+02 -0.18169324260E+02 -0.48251770928E+03  0.48346980339E+03  0.47000000000E+01 0. -1.
         -5    1    3    3    0  502 -0.13147702275E+02 -0.24303000037E+02 -0.13433392455E+02  0.31081247060E+02  0.47000000000E+01 0. -1.
        -11    1    1    2    0    0  0.19220711171E+02  0.62550066637E+02 -0.10155123557E+03  0.12080811239E+03  0.00000000000E+00 0. -1.
         11    1    1    2    0    0  0.17749179965E+02 -0.20077742341E+02 -0.14586541453E+03  0.14830666972E+03  0.00000000000E+00 0.  1.
<mgrwt>
<rscale>  0 0.12851631E+03</rscale>
<asrwt>0</asrwt>
<pdfrwt beam="1">  1        3 0.30998530E-02 0.13709591E+03</pdfrwt>
<pdfrwt beam="2">  1       -3 0.11746410E+00 0.13709591E+03</pdfrwt>
<totfact> 0.69876178E+02</totfact>
</mgrwt>
</event>
<event>
 7    1  0.8712071E-006  0.1291560E+03  0.7546771E-02  0.1244228E+00
         -1   -1    0    0    0  501 -0.00000000000E+00  0.00000000000E+00  0.96860082215E+02  0.96860082215E+02  0.00000000000E+00 0.  1.
          1   -1    0    0  501    0  0.00000000000E+00 -0.00000000000E+00 -0.17567487861E+03  0.17567487861E+03  0.00000000000E+00 0. -1.
         23    2    1    2    0    0  0.78803068158E+01 -0.31507904307E+02  0.25944557807E+02  0.13173608995E+03  0.12500572005E+03 0.  0.
          5    1    3    3  502    0  0.43251059750E+02  0.25929553151E+02  0.37655393141E+02  0.63111128406E+02  0.47000000000E+01 0.  1.
         -5    1    3    3    0  502 -0.35370752934E+02 -0.57437457458E+02 -0.11710835334E+02  0.68624961542E+02  0.47000000000E+01 0.  1.
        -11    1    1    2    0    0 -0.18372602092E+02  0.57108794744E+02 -0.93145024188E+02  0.11079242969E+03  0.00000000000E+00 0. -1.
         11    1    1    2    0    0  0.10492295276E+02 -0.25600890437E+02 -0.11614330016E+02  0.30006441192E+02  0.00000000000E+00 0.  1.
<mgrwt>
<rscale>  0 0.11931709E+03</rscale>
<asrwt>0</asrwt>
<pdfrwt beam="2">  1        1 0.27026904E-01 0.12915602E+03</pdfrwt>
<pdfrwt beam="1">  1       -1 0.14901551E-01 0.12915602E+03</pdfrwt>
<totfact> 0.53489493E+03</totfact>
</mgrwt>
</event>
<event>
 7    1  0.8712071E-006  0.1481085E+03  0.7546771E-02  0.1212370E+00
          2   -1    0    0  501    0  0.00000000000E+00  0.00000000000E+00  0.15136854938E+03  0.15136854938E+03  0.00000000000E+00 0. -1.
         -2   -1    0    0    0  501 -0.00000000000E+00 -0.00000000000E+00 -0.12001746688E+03  0.12001746688E+03  0.00000000000E+00 0.  1.
         23    2    1    2    0    0 -0.60692427138E+02 -0.51242690796E+02  0.69798453302E+01  0.14827290196E+03  0.12500700437E+03 0.  0.
          5    1    3    3  502    0 -0.74608721895E+02 -0.44458456080E+02 -0.42074107726E+02  0.96619543783E+02  0.47000000000E+01 0. -1.
         -5    1    3    3    0  502  0.13916294757E+02 -0.67842347163E+01  0.49053953056E+02  0.51653358176E+02  0.47000000000E+01 0. -1.
        -11    1    1    2    0    0  0.39977722492E+02  0.40368690768E+02  0.58621358488E+02  0.81635244600E+02  0.00000000000E+00 0. -1.
         11    1    1    2    0    0  0.20714704646E+02  0.10874000028E+02 -0.34250121318E+02  0.41477869708E+02  0.00000000000E+00 0.  1.
<mgrwt>
<rscale>  0 0.14071518E+03</rscale>
<asrwt>0</asrwt>
<pdfrwt beam="1">  1        2 0.23287469E-01 0.14810853E+03</pdfrwt>
<pdfrwt beam="2">  1       -2 0.18464226E-01 0.14810853E+03</pdfrwt>
<totfact> 0.53887795E+03</totfact>
</mgrwt>
</event>
<event>
 7    1  0.8712071E-006  0.1350984E+03  0.7546771E-02  0.1234995E+00
          4   -1    0    0  501    0  0.00000000000E+00  0.00000000000E+00  0.46594131311E+02  0.46594131311E+02  0.00000000000E+00 0. -1.
         -4   -1    0    0    0  501 -0.00000000000E+00 -0.00000000000E+00 -0.32661176992E+03  0.32661176992E+03  0.00000000000E+00 0.  1.
         23    2    1    2    0    0 -0.41700551749E+02  0.29791672988E+02 -0.21730303574E+03  0.25587531375E+03  0.12500034820E+03 0.  0.
          5    1    3    3  502    0  0.47612098194E+01  0.29019569568E+02 -0.20557386784E+03  0.20771978643E+03  0.47000000000E+01 0.  1.
         -5    1    3    3    0  502 -0.46461761568E+02  0.77210342063E+00 -0.11729167896E+02  0.48155527318E+02  0.47000000000E+01 0.  1.
        -11    1    1    2    0    0  0.16410020394E+01 -0.45529868322E+02 -0.57299516797E+01  0.45918342123E+02  0.00000000000E+00 0. -1.
         11    1    1    2    0    0  0.40059549710E+02  0.15738195334E+02 -0.56984651190E+02  0.71412245354E+02  0.00000000000E+00 0.  1.
<mgrwt>
<rscale>  0 0.12504756E+03</rscale>
<asrwt>0</asrwt>
<pdfrwt beam="1">  1        4 0.71683283E-02 0.13509836E+03</pdfrwt>
<pdfrwt beam="2">  1       -4 0.50247962E-01 0.13509836E+03</pdfrwt>
<totfact> 0.84070901E+02</totfact>
</mgrwt>
</event>
<event>
 7    1  0.8712071E-006  0.1300794E+03  0.7546771E-02  0.1240500E+00
         -1   -1    0    0    0  501 -0.00000000000E+00  0.00000000000E+00  0.24357958829E+03  0.24357958829E+03  0.00000000000E+00 0.  1.
          1   -1    0    0  501    0  0.00000000000E+00 -0.00000000000E+00 -0.54001695670E+02  0.54001695670E+02  0.00000000000E+00 0. -1.
         23    2    1    2    0    0  0.17511683639E+02 -0.31466392705E+02  0.10675037276E+03  0.16827444557E+03  0.12499541596E+03 0.  0.
          5    1    3    3  502    0  0.26026688333E+02 -0.39620955663E+02 -0.11775471438E+02  0.49070972691E+02  0.47000000000E+01 0.  1.
         -5    1    3    3    0  502 -0.85150046945E+01  0.81545629574E+01  0.11852584420E+03  0.11920347288E+03  0.47000000000E+01 0.  1.
        -11    1    1    2    0    0 -0.36114746584E+02  0.11204692032E+02  0.92673696858E+02  0.10009112915E+03  0.00000000000E+00 0.  1.
         11    1    1    2    0    0  0.18603062945E+02  0.20261700673E+02 -0.98461770046E+01  0.29215709245E+02  0.00000000000E+00 0. -1.
<mgrwt>
<rscale>  0 0.12158786E+03</rscale>
<asrwt>0</asrwt>
<pdfrwt beam="2">  1        1 0.83079533E-02 0.13007939E+03</pdfrwt>
<pdfrwt beam="1">  1       -1 0.37473782E-01 0.13007939E+03</pdfrwt>
<totfact> 0.54353247E+03</totfact>
</mgrwt>
</event>
<event>
 7    1  0.8712071E-006  0.1267378E+03  0.7546771E-02  0.1247345E+00
          2   -1    0    0  501    0  0.00000000000E+00  0.00000000000E+00  0.32427915269E+03  0.32427915269E+03  0.00000000000E+00 0.  1.
         -2   -1    0    0    0  501 -0.00000000000E+00 -0.00000000000E+00 -0.78728182138E+02  0.78728182138E+02  0.00000000000E+00 0. -1.
         23    2    1    2    0    0  0.20668518739E+02 -0.33998707799E+01 -0.13634761811E+02  0.12746916591E+03  0.12499493886E+03 0.  0.
          5    1    3    3  502    0 -0.42432993781E+02  0.30968811107E+02 -0.16911709348E+02  0.55387021365E+02  0.47000000000E+01 0. -1.
         -5    1    3    3    0  502  0.63101512520E+02 -0.34368681887E+02  0.32769475375E+01  0.72082144545E+02  0.47000000000E+01 0. -1.
        -11    1    1    2    0    0 -0.50638468385E+02 -0.20550844562E+02  0.13809725637E+03  0.14851748688E+03  0.00000000000E+00 0.  1.
         11    1    1    2    0    0  0.29969949646E+02  0.23950715341E+02  0.12108847599E+03  0.12702068204E+03  0.00000000000E+00 0. -1.
<mgrwt>
<rscale>  0 0.11746101E+03</rscale>
<asrwt>0</asrwt>
<pdfrwt beam="1">  1        2 0.49889099E-01 0.12673785E+03</pdfrwt>
<pdfrwt beam="2">  1       -2 0.12112028E-01 0.12673785E+03</pdfrwt>
<totfact> 0.46811094E+03</totfact>
</mgrwt>
</event>
<event>
 6    1  0.8712071E-006  0.1497790E+03  0.7546771E-02  0.1216750E+00
         -2   -1    0    0    0  501 -0.00000000000E+00  0.00000000000E+00  0.34777609146E+02  0.34777609146E+02  0.00000000000E+00 0.  1.
          2   -1    0    0  501    0  0.00000000000E+00 -0.00000000000E+00 -0.47499196984E+03  0.47499196984E+03  0.00000000000E+00 0. -1.
          5    1    1    2  502    0 -0.29849863483E+02 -0.30291902722E+02 -0.22674169270E+03  0.23074336162E+03  0.47000000000E+01 0. -1.
         -5    1    1    2    0  502  0.41958604547E+02 -0.22283455631E+02 -0.90394789736E+01  0.48588878054E+02  0.47000000000E+01 0.  1.
        -11    1    1    2    0    0 -0.67681932517E+01  0.78992798267E+02 -0.14796687705E+03  0.16786860136E+03  0.00000000000E+00 0.  1.
         11    1    1    2    0    0 -0.53405478124E+01 -0.26417439914E+02 -0.56466311973E+02  0.62568737964E+02  0.00000000000E+00 0. -1.
<mgrwt>
<rscale>  0 0.13748758E+03</rscale>
<asrwt>0</asrwt>
<pdfrwt beam="2">  1        2 0.73075687E-01 0.14977897E+03</pdfrwt>
<pdfrwt beam="1">  1       -2 0.53504014E-02 0.14977897E+03</pdfrwt>
<totfact> 0.11136433E+04</totfact>
</mgrwt>
</event>
<event>
 7    1  0.8712071E-006  0.2164768E+03  0.7546771E-02  0.1140157E+00
         -2   -1    0    0    0  501 -0.00000000000E+00  0.00000000000E+00  0.26241157703E+03  0.26241157703E+03  0.00000000000E+00 0.  1.
          2   -1    0    0  501    0  0.00000000000E+00 -0.00000000000E+00 -0.16409692020E+03  0.16409692020E+03  0.00000000000E+00 0. -1.
         23    2    1    2    0    0 -0.16374201003E+03  0.66530196042E+02  0.44404599957E+02  0.22098413183E+03  0.12499802073E+03 0.  0.
          5    1    3    3  502    0  0.79706892109E+01  0.33821560853E+02 -0.12295659385E+02  0.37157813508E+02  0.47000000000E+01 0.  1.
         -5    1    3    3    0  502 -0.17171269924E+03  0.32708635189E+02  0.56700259343E+02  0.18382631832E+03  0.47000000000E+01 0.  1.
        -11    1    1    2    0    0  0.26708810815E+02 -0.26498542019E+02 -0.22258786860E+02  0.43714836117E+02  0.00000000000E+00 0. -1.
         11    1    1    2    0    0  0.13703319922E+03 -0.40031654023E+02  0.76168843730E+02  0.16180952928E+03  0.00000000000E+00 0.  1.
<mgrwt>
<rscale>  0 0.21178956E+03</rscale>
<asrwt>0</asrwt>
<pdfrwt beam="2">  1        2 0.25245680E-01 0.21647683E+03</pdfrwt>
<pdfrwt beam="1">  1       -2 0.40371012E-01 0.21647683E+03</pdfrwt>
<totfact> 0.12381795E+03</totfact>
</mgrwt>
</event>
<event>
 7    1  0.8712071E-006  0.2542991E+03  0.7546771E-02  0.1112933E+00
          1   -1    0    0  501    0  0.00000000000E+00  0.00000000000E+00  0.17609873801E+04  0.17609873801E+04  0.00000000000E+00 0. -1.
         -1   -1    0    0    0  501 -0.00000000000E+00 -0.00000000000E+00 -0.44695139914E+02  0.44695139914E+02  0.00000000000E+00 0.  1.
         23    2    1    2    0    0  0.19867732241E+03  0.97828069453E+02  0.44995844294E+03  0.51684683134E+03  0.12500014832E+03 0.  0.
          5    1    3    3  502    0 -0.34590470950E+01  0.44878468314E+02  0.76911825786E+02  0.89238785686E+02  0.47000000000E+01 0. -1.
         -5    1    3    3    0  502  0.20213636951E+03  0.52949601139E+02  0.37304661715E+03  0.42760804566E+03  0.47000000000E+01 0. -1.
        -11    1    1    2    0    0 -0.12724449497E+03 -0.12289559199E+02  0.71803560455E+03  0.72932662379E+03  0.00000000000E+00 0.  1.
         11    1    1    2    0    0 -0.71432827446E+02 -0.85538510254E+02  0.54829819270E+03  0.55950906489E+03  0.00000000000E+00 0. -1.
<mgrwt>
<rscale>  0 0.25058986E+03</rscale>
<asrwt>0</asrwt>
<pdfrwt beam="1">  1        1 0.27092108E+00 0.25429913E+03</pdfrwt>
<pdfrwt beam="2">  1       -1 0.68761767E-02 0.25429913E+03</pdfrwt>
<totfact> 0.52536077E+02</totfact>
</mgrwt>
</event>
<event>
 7    1  0.8712071E-006  0.1176467E+03  0.7546771E-02  0.1258632E+00
          3   -1    0    0  501    0  0.00000000000E+00  0.00000000000E+00  0.65613643811E+02  0.65613643811E+02  0.00000000000E+00 0. -1.
         -3   -1    0    0    0  501 -0.00000000000E+00 -0.00000000000E+00 -0.22460719821E+03  0.22460719821E+03  0.00000000000E+00 0.  1.
         23    2    1    2    0    0  0.15250879936E+02  0.19099576821E+01 -0.15776966276E+03  0.19680450065E+03  0.11663836296E+03 0.  0.
          5    1    3    3  502    0  0.42501376630E+02  0.21196509537E+02 -0.14880445854E+02  0.49991766330E+02  0.47000000000E+01 0. -1.
         -5    1    3    3    0  502 -0.27250496694E+02 -0.19286551855E+02 -0.14288921690E+03  0.14681273432E+03  0.47000000000E+01 0.  1.
        -11    1    1    2    0    0 -0.19552895432E+02  0.28786797851E+02  0.32496990170E+02  0.47613546606E+02  0.00000000000E+00 0. -1.
         11    1    1    2    0    0  0.43020154957E+01 -0.30696755534E+02 -0.33720881809E+02  0.45802794757E+02  0.00000000000E+00 0.  1.
<mgrwt>
<rscale>  0 0.11105323E+03</rscale>
<asrwt>0</asrwt>
<pdfrwt beam="1">  1        3 0.10094407E-01 0.11764670E+03</pdfrwt>
<pdfrwt beam="2">  1       -3 0.34554953E-01 0.11764670E+03</pdfrwt>
<totfact> 0.13412738E+03</totfact>
</mgrwt>
</event>
<event>
 7    1  0.8712071E-006  0.1824910E+03  0.7546771E-02  0.1170724E+00
          2   -1    0    0  501    0  0.00000000000E+00  0.00000000000E+00  0.39693423175E+03  0.39693423175E+03  0.00000000000E+00 0. -1.
         -2   -1    0    0    0  501 -0.00000000000E+00 -0.00000000000E+00 -0.95087735583E+02  0.95087735583E+02  0.00000000000E+00 0.  1.
         23    2    1    2    0    0 -0.10784845228E+03  0.77761281724E+02  0.43957145915E+02  0.18771040870E+03  0.12499944505E+03 0.  0.
          5    1    3    3  502    0 -0.46858180746E+02  0.90544487655E+01  0.76367272689E+02  0.90176063804E+02  0.47000000000E+01 0.  1.
         -5    1    3    3    0  502 -0.60990271535E+02  0.68706832958E+02 -0.32410126775E+02  0.97534344898E+02  0.47000000000E+01 0.  1.
        -11    1    1    2    0    0  0.43763257383E+02 -0.50977654718E+01  0.21887334576E+02  0.49196192174E+02  0.00000000000E+00 0.  1.
         11    1    1    2    0    0  0.64085194897E+02 -0.72663516252E+02  0.23600201568E+03  0.25511536646E+03  0.00000000000E+00 0. -1.
<mgrwt>
<rscale>  0 0.17701426E+03</rscale>
<asrwt>0</asrwt>
<pdfrwt beam="1">  1        2 0.61066804E-01 0.18249100E+03</pdfrwt>
<pdfrwt beam="2">  1       -2 0.14628883E-01 0.18249100E+03</pdfrwt>
<totfact> 0.28262960E+03</totfact>
</mgrwt>
</event>
<event>
 7    1  0.8712071E-006  0.1303089E+03  0.7546771E-02  0.1240668E+00
         -2   -1    0    0    0  501 -0.00000000000E+00  0.00000000000E+00  0.74149177981E+03  0.74149177981E+03  0.00000000000E+00 0.  1.
          2   -1    0    0  501    0  0.00000000000E+00 -0.00000000000E+00 -0.22511558883E+02  0.22511558883E+02  0.00000000000E+00 0. -1.
         23    2    1    2    0    0  0.30364415616E+02  0.20807198854E+02  0.57505819186E+03  0.58963746133E+03  0.12500189804E+03 0.  0.
          5    1    3    3  502    0 -0.42913640591E+02  0.25386652126E+02  0.14684954228E+03  0.15515457042E+03  0.47000000000E+01 0. -1.
         -5    1    3    3    0  502  0.73278056208E+02 -0.45794532714E+01  0.42820864958E+03  0.43448289090E+03  0.47000000000E+01 0. -1.
        -11    1    1    2    0    0  0.32770761371E+02 -0.88098818300E+01  0.55606767520E+02  0.65143299062E+02  0.00000000000E+00 0.  1.
         11    1    1    2    0    0 -0.63135176987E+02 -0.11997317024E+02  0.88315261540E+02  0.10922257830E+03  0.00000000000E+00 0. -1.
<mgrwt>
<rscale>  0 0.12148441E+03</rscale>
<asrwt>0</asrwt>
<pdfrwt beam="2">  1        2 0.34633173E-02 0.13030891E+03</pdfrwt>
<pdfrwt beam="1">  1       -2 0.11407564E+00 0.13030891E+03</pdfrwt>
<totfact> 0.15522256E+03</totfact>
</mgrwt>
</event>
<event>
 7    1  0.8712071E-006  0.1825315E+03  0.7546771E-02  0.1170629E+00
          2   -1    0    0  501    0  0.00000000000E+00  0.00000000000E+00  0.75639800296E+03  0.75639800296E+03  0.00000000000E+00 0. -1.
         -2   -1    0    0    0  501 -0.00000000000E+00 -0.00000000000E+00 -0.39669793503E+02  0.39669793503E+02  0.00000000000E+00 0.  1.
         23    2    1    2    0    0  0.11878100276E+03 -0.59852211861E+02  0.33580076932E+03  0.38220398774E+03  0.12500607060E+03 0.  0.
          5    1    3    3  502    0  0.37429870782E+02 -0.53719712300E+02  0.26829956964E+03  0.27621287404E+03  0.47000000000E+01 0.  1.
         -5    1    3    3    0  502  0.81351131979E+02 -0.61324995618E+01  0.67501199680E+02  0.10599111370E+03  0.47000000000E+01 0.  1.
        -11    1    1    2    0    0 -0.88775995486E+02  0.19221307594E+02  0.13440363205E+03  0.16221890256E+03  0.00000000000E+00 0.  1.
         11    1    1    2    0    0 -0.30005007275E+02  0.40630904267E+02  0.24652380808E+03  0.25164490616E+03  0.00000000000E+00 0. -1.
<mgrwt>
<rscale>  0 0.17711053E+03</rscale>
<asrwt>0</asrwt>
<pdfrwt beam="1">  1        2 0.11636891E+00 0.18253145E+03</pdfrwt>
<pdfrwt beam="2">  1       -2 0.61030457E-02 0.18253145E+03</pdfrwt>
<totfact> 0.53930240E+03</totfact>
</mgrwt>
</event>
<event>
 7    1  0.8712071E-006  0.1328633E+03  0.7546771E-02  0.1236810E+00
         -2   -1    0    0    0  501 -0.00000000000E+00  0.00000000000E+00  0.38502897388E+02  0.38502897388E+02  0.00000000000E+00 0.  1.
          2   -1    0    0  501    0  0.00000000000E+00 -0.00000000000E+00 -0.37419505943E+03  0.37419505943E+03  0.00000000000E+00 0. -1.
         23    2    1    2    0    0 -0.42809237319E+02  0.14016184109E+02 -0.14173994785E+03  0.19427524898E+03  0.12499430121E+03 0.  0.
          5    1    3    3  502    0  0.35451363360E+02  0.26386676891E+02 -0.87503746921E+02  0.98143016087E+02  0.47000000000E+01 0. -1.
         -5    1    3    3    0  502 -0.78260600678E+02 -0.12370492782E+02 -0.54236200925E+02  0.96132232893E+02  0.47000000000E+01 0. -1.
        -11    1    1    2    0    0 -0.26273718055E+02  0.27481779099E+00 -0.81911321640E+02  0.86022371497E+02  0.00000000000E+00 0. -1.
         11    1    1    2    0    0  0.69082955374E+02 -0.14291001900E+02 -0.11204089255E+03  0.13240033634E+03  0.00000000000E+00 0.  1.
<mgrwt>
<rscale>  0 0.12389269E+03</rscale>
<asrwt>0</asrwt>
<pdfrwt beam="2">  1        2 0.57568468E-01 0.13286331E+03</pdfrwt>
<pdfrwt beam="1">  1       -2 0.59235229E-02 0.13286331E+03</pdfrwt>
<totfact> 0.12234739E+04</totfact>
</mgrwt>
</event>
<event>
 7    1  0.8712071E-006  0.1905044E+03  0.7546771E-02  0.1162510E+00
         -1   -1    0    0    0  501 -0.00000000000E+00  0.00000000000E+00  0.21756200597E+02  0.21756200597E+02  0.00000000000E+00 0.  1.
          1   -1    0    0  501    0  0.00000000000E+00 -0.00000000000E+00 -0.15086751792E+04  0.15086751792E+04  0.00000000000E+00 0. -1.
         23    2    1    2    0    0 -0.31047170721E+02  0.14036635915E+03 -0.75214740137E+03  0.77589795812E+03  0.12500114576E+03 0.  0.
          5    1    3    3  502    0 -0.27160491634E+02  0.11708805962E+03 -0.73850215756E+03  0.74823447711E+03  0.47000000000E+01 0. -1.
         -5    1    3    3    0  502 -0.38866790866E+01  0.23278299525E+02 -0.13645243806E+02  0.27663481010E+02  0.47000000000E+01 0. -1.
        -11    1    1    2    0    0  0.33193099947E+02 -0.12780442182E+03 -0.72842545566E+03  0.74029683005E+03  0.00000000000E+00 0. -1.
         11    1    1    2    0    0 -0.21459292261E+01 -0.12561937326E+02 -0.63461215377E+01  0.14236591594E+02  0.00000000000E+00 0.  1.
<mgrwt>
<rscale>  0 0.18557957E+03</rscale>
<asrwt>0</asrwt>
<pdfrwt beam="2">  1        1 0.23210379E+00 0.19050440E+03</pdfrwt>
<pdfrwt beam="1">  1       -1 0.33471090E-02 0.19050440E+03</pdfrwt>
<totfact> 0.22626946E+03</totfact>
</mgrwt>
</event>
<event>
 7    1  0.8712071E-006  0.1282035E+03  0.7546771E-02  0.1244017E+00
         -2   -1    0    0    0  501 -0.00000000000E+00  0.00000000000E+00  0.21143146549E+02  0.21143146549E+02  0.00000000000E+00 0.  1.
          2   -1    0    0  501    0  0.00000000000E+00 -0.00000000000E+00 -0.59754542554E+03  0.59754542554E+03  0.00000000000E+00 0. -1.
         23    2    1    2    0    0 -0.28412002937E+02  0.18712101617E+01 -0.32728395725E+03  0.35149810721E+03  0.12500154942E+03 0.  0.
          5    1    3    3  502    0 -0.30028394352E+02  0.41551441753E+02 -0.29675308440E+03  0.30118550742E+03  0.47000000000E+01 0.  1.
         -5    1    3    3    0  502  0.16163914153E+01 -0.39680231591E+02 -0.30530872851E+02  0.50312599788E+02  0.47000000000E+01 0.  1.
        -11    1    1    2    0    0 -0.24692589059E+02 -0.25894749822E+02 -0.12583663557E+03  0.13082477163E+03  0.00000000000E+00 0. -1.
         11    1    1    2    0    0  0.53104591996E+02  0.24023539660E+02 -0.12328168617E+03  0.13636569325E+03  0.00000000000E+00 0.  1.
<mgrwt>
<rscale>  0 0.11944411E+03</rscale>
<asrwt>0</asrwt>
<pdfrwt beam="2">  1        2 0.91930060E-01 0.12820347E+03</pdfrwt>
<pdfrwt beam="1">  1       -2 0.32527920E-02 0.12820347E+03</pdfrwt>
<totfact> 0.17899010E+04</totfact>
</mgrwt>
</event>
<event>
 7    1  0.8712071E-006  0.2990179E+03  0.7546771E-02  0.1087360E+00
         -2   -1    0    0    0  501 -0.00000000000E+00  0.00000000000E+00  0.13394437677E+03  0.13394437677E+03  0.00000000000E+00 0.  1.
          2   -1    0    0  501    0  0.00000000000E+00 -0.00000000000E+00 -0.68937620856E+03  0.68937620856E+03  0.00000000000E+00 0. -1.
         23    2    1    2    0    0 -0.15701237591E+02 -0.27118492157E+03 -0.17264106920E+03  0.34527764008E+03  0.12499567758E+03 0.  0.
          5    1    3    3  502    0 -0.65299637020E+02 -0.20790265347E+03 -0.11696913750E+03  0.24736900582E+03  0.47000000000E+01 0.  1.
         -5    1    3    3    0  502  0.49598399428E+02 -0.63282268101E+02 -0.55671931705E+02  0.97908634254E+02  0.47000000000E+01 0.  1.
        -11    1    1    2    0    0  0.34577692407E+02  0.10900606383E+03 -0.21736430106E+03  0.24561184446E+03  0.00000000000E+00 0. -1.
         11    1    1    2    0    0 -0.18876454816E+02  0.16217885774E+03 -0.16542646153E+03  0.23243110080E+03  0.00000000000E+00 0.  1.
<mgrwt>
<rscale>  0 0.29579932E+03</rscale>
<asrwt>0</asrwt>
<pdfrwt beam="2">  1        2 0.10605788E+00 0.29901791E+03</pdfrwt>
<pdfrwt beam="1">  1       -2 0.20606828E-01 0.29901791E+03</pdfrwt>
<totfact> 0.85493822E+02</totfact>
</mgrwt>
</event>
<event>
 7    1  0.8712071E-006  0.1259205E+03  0.7546771E-02  0.1249949E+00
         -2   -1    0    0    0  501 -0.00000000000E+00  0.00000000000E+00  0.24389428745E+02  0.24389428745E+02  0.00000000000E+00 0.  1.
          2   -1    0    0  501    0  0.00000000000E+00 -0.00000000000E+00 -0.48314036898E+03  0.48314036898E+03  0.00000000000E+00 0. -1.
         23    2    1    2    0    0  0.15134081813E+02  0.45652199609E+00 -0.24681499730E+03  0.27708050532E+03  0.12500685856E+03 0.  0.
          5    1    3    3  502    0  0.10203335966E+02  0.39135976911E+02 -0.23129348464E+03  0.23484994953E+03  0.47000000000E+01 0. -1.
         -5    1    3    3    0  502  0.49307458471E+01 -0.38679454914E+02 -0.15521512657E+02  0.42230555789E+02  0.47000000000E+01 0. -1.
        -11    1    1    2    0    0 -0.35308572050E+02 -0.22475816499E+02 -0.18674964241E+03  0.19138256589E+03  0.00000000000E+00 0. -1.
         11    1    1    2    0    0  0.20174490237E+02  0.22019294503E+02 -0.25186300525E+02  0.39066726518E+02  0.00000000000E+00 0.  1.
<mgrwt>
<rscale>  0 0.11593991E+03</rscale>
<asrwt>0</asrwt>
<pdfrwt beam="2">  1        2 0.74329281E-01 0.12592047E+03</pdfrwt>
<pdfrwt beam="1">  1       -2 0.37522201E-02 0.12592047E+03</pdfrwt>
<totfact> 0.18325620E+04</totfact>
</mgrwt>
</event>
<event>
 7    1  0.8712071E-006  0.1541995E+03  0.7546771E-02  0.1204085E+00
          1   -1    0    0  501    0  0.00000000000E+00  0.00000000000E+00  0.76076877200E+02  0.76076877200E+02  0.00000000000E+00 0. -1.
         -1   -1    0    0    0  501 -0.00000000000E+00 -0.00000000000E+00 -0.45913897422E+03  0.45913897422E+03  0.00000000000E+00 0.  1.
         23    2    1    2    0    0  0.20349260058E+02 -0.87971785669E+02 -0.37706678821E+03  0.40737801251E+03  0.12499741937E+03 0.  0.
          5    1    3    3  502    0  0.64947603590E+02 -0.35415235750E+02 -0.26971641860E+03  0.27971676138E+03  0.47000000000E+01 0. -1.
         -5    1    3    3    0  502 -0.44598343533E+02 -0.52556549919E+02 -0.10735036961E+03  0.12766125113E+03  0.47000000000E+01 0. -1.
        -11    1    1    2    0    0 -0.39427372336E+02  0.45643027814E+02  0.31604573069E+02  0.68092971122E+02  0.00000000000E+00 0. -1.
         11    1    1    2    0    0  0.19078112278E+02  0.42328757854E+02 -0.37599881888E+02  0.59744867793E+02  0.00000000000E+00 0.  1.
<mgrwt>
<rscale>  0 0.14709826E+03</rscale>
<asrwt>0</asrwt>
<pdfrwt beam="1">  1        1 0.11704135E-01 0.15419949E+03</pdfrwt>
<pdfrwt beam="2">  1       -1 0.70636765E-01 0.15419949E+03</pdfrwt>
<totfact> 0.10792023E+03</totfact>
</mgrwt>
</event>
<event>
 7    1  0.8712071E-006  0.1589538E+03  0.7546771E-02  0.1196009E+00
          1   -1    0    0  501    0  0.00000000000E+00  0.00000000000E+00  0.67371340520E+02  0.67371340520E+02  0.00000000000E+00 0. -1.
         -1   -1    0    0    0  501 -0.00000000000E+00 -0.00000000000E+00 -0.35456414432E+03  0.35456414432E+03  0.00000000000E+00 0.  1.
         23    2    1    2    0    0  0.55381137445E+02  0.81078125463E+02 -0.20879325573E+03  0.26241368807E+03  0.12500234890E+03 0.  0.
          5    1    3    3  502    0  0.19694006886E+02  0.21319167078E+02 -0.18704235398E+03  0.18933909520E+03  0.47000000000E+01 0. -1.
         -5    1    3    3    0  502  0.35687130559E+02  0.59758958384E+02 -0.21750901758E+02  0.73074592862E+02  0.47000000000E+01 0. -1.
        -11    1    1    2    0    0 -0.76649230783E+02 -0.29762120108E+02 -0.36597506942E+02  0.90001477140E+02  0.00000000000E+00 0.  1.
         11    1    1    2    0    0  0.21268093338E+02 -0.51316005354E+02 -0.41802041123E+02  0.69520319633E+02  0.00000000000E+00 0. -1.
<mgrwt>
<rscale>  0 0.15369153E+03</rscale>
<asrwt>0</asrwt>
<pdfrwt beam="1">  1        1 0.10364822E-01 0.15895383E+03</pdfrwt>
<pdfrwt beam="2">  1       -1 0.54548328E-01 0.15895383E+03</pdfrwt>
<totfact> 0.20855941E+03</totfact>
</mgrwt>
</event>
<event>
 6    1  0.8712071E-006  0.1432487E+03  0.7546771E-02  0.1226419E+00
          1   -1    0    0  501    0  0.00000000000E+00  0.00000000000E+00  0.12578654294E+03  0.12578654294E+03  0.00000000000E+00 0. -1.
         -1   -1    0    0    0  501 -0.00000000000E+00 -0.00000000000E+00 -0.14446734824E+03  0.14446734824E+03  0.00000000000E+00 0.  1.
          5    1    1    2  502    0  0.32853055529E+02  0.34509640667E+02  0.27615271142E+02  0.55271437079E+02  0.47000000000E+01 0. -1.
         -5    1    1    2    0  502 -0.36849160322E+02  0.71335460356E+01 -0.96560928252E+02  0.10370559754E+03  0.47000000000E+01 0.  1.
        -11    1    1    2    0    0 -0.30321769940E+02 -0.13151573700E+02  0.57273544728E+02  0.66125884106E+02  0.00000000000E+00 0.  1.
         11    1    1    2    0    0  0.34317874733E+02 -0.28491613003E+02 -0.70086929099E+01  0.45150972459E+02  0.00000000000E+00 0. -1.
<mgrwt>
<rscale>  0 0.13070149E+03</rscale>
<asrwt>0</asrwt>
<pdfrwt beam="1">  1        1 0.19351776E-01 0.14324871E+03</pdfrwt>
<pdfrwt beam="2">  1       -1 0.22225746E-01 0.14324871E+03</pdfrwt>
<totfact> 0.43397827E+03</totfact>
</mgrwt>
</event>
<event>
 7    1  0.8712071E-006  0.1382039E+03  0.7546771E-02  0.1227169E+00
         -2   -1    0    0    0  501 -0.00000000000E+00  0.00000000000E+00  0.41918057437E+02  0.41918057437E+02  0.00000000000E+00 0. -1.
          2   -1    0    0  501    0  0.00000000000E+00 -0.00000000000E+00 -0.37248191816E+03  0.37248191816E+03  0.00000000000E+00 0.  1.
         23    2    1    2    0    0  0.54933004841E+02 -0.21403775095E+02 -0.21554289160E+03  0.25604502662E+03  0.12499824369E+03 0.  0.
          5    1    3    3  502    0  0.35751579450E+02 -0.65604300131E+02 -0.18297826352E+03  0.19769985976E+03  0.47000000000E+01 0.  1.
         -5    1    3    3    0  502  0.19181425391E+02  0.44200525036E+02 -0.32564628084E+02  0.58345166859E+02  0.47000000000E+01 0.  1.
        -11    1    1    2    0    0 -0.28570950504E+02  0.47328146825E+02 -0.24298579582E+02  0.60387694643E+02  0.00000000000E+00 0. -1.
         11    1    1    2    0    0 -0.26362054337E+02 -0.25924371730E+02 -0.90722389537E+02  0.97967254334E+02  0.00000000000E+00 0.  1.
<mgrwt>
<rscale>  0 0.13019336E+03</rscale>
<asrwt>0</asrwt>
<pdfrwt beam="2">  1        2 0.57304911E-01 0.13820390E+03</pdfrwt>
<pdfrwt beam="1">  1       -2 0.64489319E-02 0.13820390E+03</pdfrwt>
<totfact> 0.10837687E+04</totfact>
</mgrwt>
</event>
<event>
 7    1  0.8712071E-006  0.1376698E+03  0.7546771E-02  0.1226271E+00
         -1   -1    0    0    0  501 -0.00000000000E+00  0.00000000000E+00  0.35662347239E+02  0.35662347239E+02  0.00000000000E+00 0.  1.
          1   -1    0    0  501    0  0.00000000000E+00 -0.00000000000E+00 -0.49587701209E+03  0.49587701209E+03  0.00000000000E+00 0. -1.
         23    2    1    2    0    0  0.40474451530E+00  0.63325739393E+02 -0.16015296106E+03  0.21119169572E+03  0.12224012564E+03 0.  0.
          5    1    3    3  502    0  0.31173385431E+01 -0.26233805549E+02  0.88228352366E+00  0.26847695942E+02  0.47000000000E+01 0. -1.
         -5    1    3    3    0  502 -0.27125940277E+01  0.89559544942E+02 -0.16103524458E+03  0.18434399978E+03  0.47000000000E+01 0.  1.
        -11    1    1    2    0    0  0.34093220361E+02  0.21228640016E+01 -0.58856175256E+02  0.68050742773E+02  0.00000000000E+00 0.  1.
         11    1    1    2    0    0 -0.34497964876E+02 -0.65448603395E+02 -0.24120552853E+03  0.25229692083E+03  0.00000000000E+00 0. -1.
<mgrwt>
<rscale>  0 0.13080163E+03</rscale>
<asrwt>0</asrwt>
<pdfrwt beam="2">  1        1 0.76288769E-01 0.13766975E+03</pdfrwt>
<pdfrwt beam="1">  1       -1 0.54865151E-02 0.13766975E+03</pdfrwt>
<totfact> 0.67046538E+03</totfact>
</mgrwt>
</event>
<event>
 7    1  0.8712071E-006  0.1260936E+03  0.7546771E-02  0.1246229E+00
          2   -1    0    0  501    0  0.00000000000E+00  0.00000000000E+00  0.15966834728E+03  0.15966834728E+03  0.00000000000E+00 0. -1.
         -2   -1    0    0    0  501 -0.00000000000E+00 -0.00000000000E+00 -0.81495910651E+02  0.81495910651E+02  0.00000000000E+00 0.  1.
         23    2    1    2    0    0  0.73927368356E+01 -0.14900189488E+02  0.19174040819E+02  0.12754311478E+03  0.12499173605E+03 0.  0.
          5    1    3    3  502    0 -0.64135995753E+01 -0.69116998222E+02  0.15501974301E+02  0.71278993469E+02  0.47000000000E+01 0.  1.
         -5    1    3    3    0  502  0.13806336411E+02  0.54216808734E+02  0.36720665174E+01  0.56264121311E+02  0.47000000000E+01 0.  1.
        -11    1    1    2    0    0  0.32332612410E+02  0.62314850405E+01  0.64667167692E+02  0.72567704996E+02  0.00000000000E+00 0. -1.
         11    1    1    2    0    0 -0.39725349246E+02  0.86687044476E+01 -0.56687718836E+01  0.41053438153E+02  0.00000000000E+00 0.  1.
<mgrwt>
<rscale>  0 0.11812118E+03</rscale>
<asrwt>0</asrwt>
<pdfrwt beam="1">  1        2 0.24564361E-01 0.12609363E+03</pdfrwt>
<pdfrwt beam="2">  1       -2 0.12537832E-01 0.12609363E+03</pdfrwt>
<totfact> 0.94645164E+03</totfact>
</mgrwt>
</event>
<event>
 7    1  0.8712071E-006  0.2591066E+03  0.7546771E-02  0.1109753E+00
         -1   -1    0    0    0  501 -0.00000000000E+00  0.00000000000E+00  0.14708354345E+03  0.14708354345E+03  0.00000000000E+00 0.  1.
          1   -1    0    0  501    0  0.00000000000E+00 -0.00000000000E+00 -0.54686555439E+03  0.54686555439E+03  0.00000000000E+00 0. -1.
         23    2    1    2    0    0  0.22389442382E+03  0.37162849682E+02 -0.45957844802E+02  0.26315081976E+03  0.12500575997E+03 0.  0.
          5    1    3    3  502    0  0.15299382943E+03 -0.26660240632E+02 -0.60118001998E+02  0.16659575157E+03  0.47000000000E+01 0. -1.
         -5    1    3    3    0  502  0.70900594385E+02  0.63823090314E+02  0.14160157196E+02  0.96555068190E+02  0.47000000000E+01 0. -1.
        -11    1    1    2    0    0 -0.89065467132E+02  0.82891713589E+01 -0.71010412779E+02  0.11420966036E+03  0.00000000000E+00 0.  1.
         11    1    1    2    0    0 -0.13482895669E+03 -0.45452021041E+02 -0.28281375336E+03  0.31658861772E+03  0.00000000000E+00 0. -1.
<mgrwt>
<rscale>  0 0.25570224E+03</rscale>
<asrwt>0</asrwt>
<pdfrwt beam="2">  1        1 0.84133162E-01 0.25910660E+03</pdfrwt>
<pdfrwt beam="1">  1       -1 0.22628237E-01 0.25910660E+03</pdfrwt>
<totfact> 0.66057973E+02</totfact>
</mgrwt>
</event>
<event>
 7    1  0.8712071E-006  0.1293312E+03  0.7546771E-02  0.1241633E+00
         -1   -1    0    0    0  501 -0.00000000000E+00  0.00000000000E+00  0.17756609202E+02  0.17756609202E+02  0.00000000000E+00 0.  1.
          1   -1    0    0  501    0  0.00000000000E+00 -0.00000000000E+00 -0.73723562876E+03  0.73723562876E+03  0.00000000000E+00 0. -1.
         23    2    1    2    0    0 -0.28931857577E+02 -0.16219188520E+02 -0.37715988194E+03  0.39871811484E+03  0.12500577626E+03 0.  0.
          5    1    3    3  502    0 -0.34725770034E+02 -0.64155532046E+02 -0.28888548790E+03  0.29799115174E+03  0.47000000000E+01 0. -1.
         -5    1    3    3    0  502  0.57939124573E+01  0.47936343526E+02 -0.88274394041E+02  0.10072696310E+03  0.47000000000E+01 0. -1.
        -11    1    1    2    0    0  0.51703068833E+02 -0.15392558387E+02 -0.25521734471E+03  0.26085634212E+03  0.00000000000E+00 0. -1.
         11    1    1    2    0    0 -0.22771211256E+02  0.31611746907E+02 -0.87101792901E+02  0.95417781001E+02  0.00000000000E+00 0.  1.
<mgrwt>
<rscale>  0 0.12089176E+03</rscale>
<asrwt>0</asrwt>
<pdfrwt beam="2">  1        1 0.11342084E+00 0.12933120E+03</pdfrwt>
<pdfrwt beam="1">  1       -1 0.27317866E-02 0.12933120E+03</pdfrwt>
<totfact> 0.10793809E+04</totfact>
</mgrwt>
</event>
<event>
 7    1  0.8712071E-006  0.1289137E+03  0.7546771E-02  0.1242174E+00
          1   -1    0    0  501    0  0.00000000000E+00  0.00000000000E+00  0.17998834427E+03  0.17998834427E+03  0.00000000000E+00 0. -1.
         -1   -1    0    0    0  501 -0.00000000000E+00 -0.00000000000E+00 -0.80805826017E+02  0.80805826017E+02  0.00000000000E+00 0.  1.
         23    2    1    2    0    0  0.14101764667E+02 -0.28179886884E+02  0.12534042591E+02  0.12952158887E+03  0.12500309583E+03 0.  0.
          5    1    3    3  502    0 -0.31102612275E+02 -0.63480691316E+02  0.12689811884E+02  0.71974245296E+02  0.47000000000E+01 0.  1.
         -5    1    3    3    0  502  0.45204376942E+02  0.35300804431E+02 -0.15576929311E+00  0.57547343573E+02  0.47000000000E+01 0.  1.
        -11    1    1    2    0    0  0.27350572190E+02  0.20656110103E+02  0.82015386084E+02  0.88888988284E+02  0.00000000000E+00 0. -1.
         11    1    1    2    0    0 -0.41452336857E+02  0.75237767809E+01  0.46330895780E+01  0.42383593134E+02  0.00000000000E+00 0.  1.
<mgrwt>
<rscale>  0 0.12056129E+03</rscale>
<asrwt>0</asrwt>
<pdfrwt beam="1">  1        1 0.27690514E-01 0.12891369E+03</pdfrwt>
<pdfrwt beam="2">  1       -1 0.12431666E-01 0.12891369E+03</pdfrwt>
<totfact> 0.68768240E+03</totfact>
</mgrwt>
</event>
<event>
 7    1  0.8712071E-006  0.1295497E+03  0.7546771E-02  0.1240965E+00
         -2   -1    0    0    0  501 -0.00000000000E+00  0.00000000000E+00  0.36509788561E+02  0.36509788561E+02  0.00000000000E+00 0.  1.
          2   -1    0    0  501    0  0.00000000000E+00 -0.00000000000E+00 -0.36276206325E+03  0.36276206325E+03  0.00000000000E+00 0. -1.
         23    2    1    2    0    0  0.34062681100E+02 -0.21625826797E+01 -0.20308449961E+03  0.24088678624E+03  0.12497274422E+03 0.  0.
          5    1    3    3  502    0 -0.31364502882E+02  0.23671635403E+02 -0.19271500687E+02  0.44017713507E+02  0.47000000000E+01 0.  1.
         -5    1    3    3    0  502  0.65427183982E+02 -0.25834218082E+02 -0.18381299892E+03  0.19686907274E+03  0.47000000000E+01 0.  1.
        -11    1    1    2    0    0  0.20119361343E+02  0.84450049730E+01  0.19379317095E+01  0.21905761551E+02  0.00000000000E+00 0.  1.
         11    1    1    2    0    0 -0.54182042443E+02 -0.62824222934E+01 -0.12510570679E+03  0.13647930402E+03  0.00000000000E+00 0. -1.
<mgrwt>
<rscale>  0 0.12130169E+03</rscale>
<asrwt>0</asrwt>
<pdfrwt beam="2">  1        2 0.55809546E-01 0.12954972E+03</pdfrwt>
<pdfrwt beam="1">  1       -2 0.56168907E-02 0.12954972E+03</pdfrwt>
<totfact> 0.13674871E+04</totfact>
</mgrwt>
</event>
<event>
 7    1  0.8712071E-006  0.1276417E+03  0.7546771E-02  0.1246157E+00
          2   -1    0    0  501    0  0.00000000000E+00  0.00000000000E+00  0.34144266498E+02  0.34144266498E+02  0.00000000000E+00 0. -1.
         -2   -1    0    0    0  501 -0.00000000000E+00 -0.00000000000E+00 -0.40277317435E+03  0.40277317435E+03  0.00000000000E+00 0.  1.
         23    2    1    2    0    0 -0.22442599829E+02 -0.12803843666E+02 -0.28082603140E+03  0.30847310046E+03  0.12499914039E+03 0.  0.
          5    1    3    3  502    0  0.50606763108E+01 -0.60790916341E+02 -0.83676731009E+02  0.10365824264E+03  0.47000000000E+01 0.  1.
         -5    1    3    3    0  502 -0.27503276140E+02  0.47987072675E+02 -0.19714930039E+03  0.20481485783E+03  0.47000000000E+01 0.  1.
        -11    1    1    2    0    0 -0.16150823082E+02  0.15168293007E+02 -0.86992753827E+02  0.89770069719E+02  0.00000000000E+00 0.  1.
         11    1    1    2    0    0  0.38593422911E+02 -0.23644493412E+01 -0.81012262415E+00  0.38674270663E+02  0.00000000000E+00 0. -1.
<mgrwt>
<rscale>  0 0.11816377E+03</rscale>
<asrwt>0</asrwt>
<pdfrwt beam="1">  1        2 0.52529643E-02 0.12764166E+03</pdfrwt>
<pdfrwt beam="2">  1       -2 0.61965101E-01 0.12764166E+03</pdfrwt>
<totfact> 0.34564627E+03</totfact>
</mgrwt>
</event>
<event>
 7    1  0.8712071E-006  0.1263122E+03  0.7546771E-02  0.1247978E+00
          1   -1    0    0  501    0  0.00000000000E+00  0.00000000000E+00  0.56793761291E+02  0.56793761291E+02  0.00000000000E+00 0. -1.
         -1   -1    0    0    0  501 -0.00000000000E+00 -0.00000000000E+00 -0.21711856701E+03  0.21711856701E+03  0.00000000000E+00 0.  1.
         23    2    1    2    0    0  0.23701402136E+01  0.17957935559E+02 -0.11226003638E+03  0.16898843383E+03  0.12500667977E+03 0.  0.
          5    1    3    3  502    0 -0.48733981103E+02 -0.28868610878E+02 -0.51011653328E+02  0.76371960715E+02  0.47000000000E+01 0.  1.
         -5    1    3    3    0  502  0.51104121317E+02  0.46826546438E+02 -0.61248383048E+02  0.92616473118E+02  0.47000000000E+01 0.  1.
        -11    1    1    2    0    0  0.11175358219E+02 -0.30670061228E+01  0.25843754966E+02  0.28323044127E+02  0.00000000000E+00 0. -1.
         11    1    1    2    0    0 -0.13545498433E+02 -0.14890929437E+02 -0.73908524309E+02  0.76600850340E+02  0.00000000000E+00 0.  1.
<mgrwt>
<rscale>  0 0.11708909E+03</rscale>
<asrwt>0</asrwt>
<pdfrwt beam="1">  1        1 0.87375018E-02 0.12631221E+03</pdfrwt>
<pdfrwt beam="2">  1       -1 0.33402856E-01 0.12631221E+03</pdfrwt>
<totfact> 0.61772071E+03</totfact>
</mgrwt>
</event>
<event>
 7    1  0.8712071E-006  0.1353224E+03  0.7546771E-02  0.1231336E+00
         -2   -1    0    0    0  501 -0.00000000000E+00  0.00000000000E+00  0.25353382214E+03  0.25353382214E+03  0.00000000000E+00 0. -1.
          2   -1    0    0  501    0  0.00000000000E+00 -0.00000000000E+00 -0.59482999597E+02  0.59482999597E+02  0.00000000000E+00 0.  1.
         23    2    1    2    0    0 -0.42845236529E+02 -0.29119728335E+02  0.13591664748E+03  0.19179540083E+03  0.12501387062E+03 0.  0.
          5    1    3    3  502    0 -0.69980232817E+02  0.24787219154E+02  0.82219386710E+02  0.11087721483E+03  0.47000000000E+01 0. -1.
         -5    1    3    3    0  502  0.27134996288E+02 -0.53906947489E+02  0.53697260773E+02  0.80918186001E+02  0.47000000000E+01 0. -1.
        -11    1    1    2    0    0 -0.10842079334E+02 -0.24255616322E+02  0.13790018222E+01  0.26604271339E+02  0.00000000000E+00 0.  1.
         11    1    1    2    0    0  0.53687315864E+02  0.53375344657E+02  0.56755173235E+02  0.94617149560E+02  0.00000000000E+00 0. -1.
<mgrwt>
<rscale>  0 0.12741901E+03</rscale>
<asrwt>0</asrwt>
<pdfrwt beam="2">  1        2 0.91512308E-02 0.13532236E+03</pdfrwt>
<pdfrwt beam="1">  1       -2 0.39005203E-01 0.13532236E+03</pdfrwt>
<totfact> 0.42708528E+03</totfact>
</mgrwt>
</event>
<event>
 7    1  0.8712071E-006  0.1755364E+03  0.7546771E-02  0.1178157E+00
         -2   -1    0    0    0  501 -0.00000000000E+00  0.00000000000E+00  0.32534489641E+02  0.32534489641E+02  0.00000000000E+00 0.  1.
          2   -1    0    0  501    0  0.00000000000E+00 -0.00000000000E+00 -0.93893793151E+03  0.93893793151E+03  0.00000000000E+00 0. -1.
         23    2    1    2    0    0 -0.11080589145E+03  0.53960723810E+02 -0.31601237255E+03  0.36149253430E+03  0.12499330964E+03 0.  0.
          5    1    3    3  502    0  0.32809892471E+01  0.58635690271E+02 -0.13676013078E+03  0.14891048463E+03  0.47000000000E+01 0.  1.
         -5    1    3    3    0  502 -0.11408688070E+03 -0.46749664618E+01 -0.17925224177E+03  0.21258204966E+03  0.47000000000E+01 0.  1.
        -11    1    1    2    0    0  0.78928701266E+02  0.11024615328E+02 -0.34820114100E+03  0.35720486646E+03  0.00000000000E+00 0.  1.
         11    1    1    2    0    0  0.31877190184E+02 -0.64985339138E+02 -0.24218992832E+03  0.25277502040E+03  0.00000000000E+00 0. -1.
<mgrwt>
<rscale>  0 0.16970353E+03</rscale>
<asrwt>0</asrwt>
<pdfrwt beam="2">  1        2 0.14445198E+00 0.17553641E+03</pdfrwt>
<pdfrwt beam="1">  1       -2 0.50053064E-02 0.17553641E+03</pdfrwt>
<totfact> 0.55111322E+03</totfact>
</mgrwt>
</event>
<event>
 7    1  0.8712071E-006  0.1469652E+03  0.7546771E-02  0.1213230E+00
          2   -1    0    0  501    0  0.00000000000E+00  0.00000000000E+00  0.56283104516E+03  0.56283104516E+03  0.00000000000E+00 0. -1.
         -2   -1    0    0    0  501 -0.00000000000E+00 -0.00000000000E+00 -0.36400169489E+02  0.36400169489E+02  0.00000000000E+00 0.  1.
         23    2    1    2    0    0  0.73948490012E+02 -0.22435892526E+02  0.18113643538E+03  0.23325773404E+03  0.12500805502E+03 0.  0.
          5    1    3    3  502    0  0.78381855675E+02  0.22564211205E+01  0.36917156119E+02  0.86797310737E+02  0.47000000000E+01 0. -1.
         -5    1    3    3    0  502 -0.44333656629E+01 -0.24692313646E+02  0.14421927926E+03  0.14646042330E+03  0.47000000000E+01 0. -1.
        -11    1    1    2    0    0 -0.12417758853E+02  0.39660122823E+02  0.56169784266E+02  0.69872532097E+02  0.00000000000E+00 0.  1.
         11    1    1    2    0    0 -0.61530731158E+02 -0.17224230297E+02  0.28912465603E+03  0.29610094851E+03  0.00000000000E+00 0. -1.
<mgrwt>
<rscale>  0 0.14007359E+03</rscale>
<asrwt>0</asrwt>
<pdfrwt beam="1">  1        2 0.86589385E-01 0.14696517E+03</pdfrwt>
<pdfrwt beam="2">  1       -2 0.56000265E-02 0.14696517E+03</pdfrwt>
<totfact> 0.86017677E+03</totfact>
</mgrwt>
</event>
<event>
 7    1  0.8712071E-006  0.2716727E+03  0.7546771E-02  0.1102381E+00
          1   -1    0    0  501    0  0.00000000000E+00  0.00000000000E+00  0.71312871972E+03  0.71312871972E+03  0.00000000000E+00 0. -1.
         -1   -1    0    0    0  501 -0.00000000000E+00 -0.00000000000E+00 -0.11961541481E+03  0.11961541481E+03  0.00000000000E+00 0.  1.
         23    2    1    2    0    0  0.18141251171E+03  0.15899604220E+03  0.12712638698E+03  0.29994525711E+03  0.12496318722E+03 0.  0.
          5    1    3    3  502    0  0.12321089494E+03  0.93354436756E+02  0.14303938680E+03  0.21066165211E+03  0.47000000000E+01 0.  1.
         -5    1    3    3    0  502  0.58201616767E+02  0.65641605442E+02 -0.15912999819E+02  0.89283605004E+02  0.47000000000E+01 0.  1.
        -11    1    1    2    0    0 -0.34199793678E+02 -0.80057380166E+02  0.20338648125E+03  0.22123487691E+03  0.00000000000E+00 0. -1.
         11    1    1    2    0    0 -0.14721271803E+03 -0.78938662031E+02  0.26300043669E+03  0.31156400051E+03  0.00000000000E+00 0.  1.
<mgrwt>
<rscale>  0 0.26808408E+03</rscale>
<asrwt>0</asrwt>
<pdfrwt beam="1">  1        1 0.10971211E+00 0.27167267E+03</pdfrwt>
<pdfrwt beam="2">  1       -1 0.18402372E-01 0.27167267E+03</pdfrwt>
<totfact> 0.63627440E+02</totfact>
</mgrwt>
</event>
<event>
 7    1  0.8712071E-006  0.1282057E+03  0.7546771E-02  0.1247104E+00
         -2   -1    0    0    0  501 -0.00000000000E+00  0.00000000000E+00  0.15813549620E+03  0.15813549620E+03  0.00000000000E+00 0. -1.
          2   -1    0    0  501    0  0.00000000000E+00 -0.00000000000E+00 -0.10391415234E+03  0.10391415234E+03  0.00000000000E+00 0.  1.
         23    2    1    2    0    0  0.45692852953E+01  0.17455186900E+02  0.97903604147E+02  0.16131280424E+03  0.12692967812E+03 0.  0.
          5    1    3    3  502    0  0.86199009208E+01 -0.25836437410E+02 -0.20941318358E+02  0.34676404146E+02  0.47000000000E+01 0.  1.
         -5    1    3    3    0  502 -0.40506156255E+01  0.43291624310E+02  0.11884492251E+03  0.12663640009E+03  0.47000000000E+01 0. -1.
        -11    1    1    2    0    0  0.36149473237E+02 -0.31016058314E+02 -0.19441534204E+02  0.51446608643E+02  0.00000000000E+00 0.  1.
         11    1    1    2    0    0 -0.40718758532E+02  0.13560871415E+02 -0.24240726085E+02  0.49290235656E+02  0.00000000000E+00 0. -1.
<mgrwt>
<rscale>  0 0.11760342E+03</rscale>
<asrwt>0</asrwt>
<pdfrwt beam="2">  1        2 0.15986793E-01 0.12820571E+03</pdfrwt>
<pdfrwt beam="1">  1       -2 0.24328538E-01 0.12820571E+03</pdfrwt>
<totfact> 0.51125324E+03</totfact>
</mgrwt>
</event>
<event>
 7    1  0.8712071E-006  0.1436966E+03  0.7546771E-02  0.1218809E+00
          1   -1    0    0  501    0  0.00000000000E+00  0.00000000000E+00  0.38742284614E+03  0.38742284614E+03  0.00000000000E+00 0. -1.
         -1   -1    0    0    0  501 -0.00000000000E+00 -0.00000000000E+00 -0.55567548832E+02  0.55567548832E+02  0.00000000000E+00 0.  1.
         23    2    1    2    0    0  0.47039991753E+02  0.53018519608E+02  0.76465846011E+02  0.16277507868E+03  0.12499990555E+03 0.  0.
          5    1    3    3  502    0 -0.99708870628E+01  0.66219015044E+02  0.79423429808E+02  0.10399301777E+03  0.47000000000E+01 0. -1.
         -5    1    3    3    0  502  0.57010878816E+02 -0.13200495436E+02 -0.29575837967E+01  0.58782060912E+02  0.47000000000E+01 0. -1.
        -11    1    1    2    0    0 -0.20196478839E+02 -0.18078771901E+02  0.70642338154E+01  0.28011482473E+02  0.00000000000E+00 0.  1.
         11    1    1    2    0    0 -0.26843512914E+02 -0.34939747707E+02  0.24832521748E+03  0.25220383382E+03  0.00000000000E+00 0. -1.
<mgrwt>
<rscale>  0 0.13600453E+03</rscale>
<asrwt>0</asrwt>
<pdfrwt beam="1">  1        1 0.59603513E-01 0.14369656E+03</pdfrwt>
<pdfrwt beam="2">  1       -1 0.85488539E-02 0.14369656E+03</pdfrwt>
<totfact> 0.47379104E+03</totfact>
</mgrwt>
</event>
<event>
 7    1  0.8712071E-006  0.1494390E+03  0.7546771E-02  0.1208825E+00
         -2   -1    0    0    0  501 -0.00000000000E+00  0.00000000000E+00  0.91613113120E+02  0.91613113120E+02  0.00000000000E+00 0.  1.
          2   -1    0    0  501    0  0.00000000000E+00 -0.00000000000E+00 -0.21010442544E+03  0.21010442544E+03  0.00000000000E+00 0. -1.
         23    2    1    2    0    0  0.41842022083E+02  0.70479964094E+02 -0.49384112174E+02  0.15738744621E+03  0.12495534218E+03 0.  0.
          5    1    3    3  502    0  0.35748347098E+02 -0.23843644695E+02 -0.45369450684E+02  0.62665307531E+02  0.47000000000E+01 0.  1.
         -5    1    3    3    0  502  0.60936749853E+01  0.94323608789E+02 -0.40146614904E+01  0.94722138683E+02  0.47000000000E+01 0.  1.
        -11    1    1    2    0    0 -0.92634377233E+01 -0.11244512390E+02  0.24714901862E+02  0.28689313540E+02  0.00000000000E+00 0.  1.
         11    1    1    2    0    0 -0.32578584360E+02 -0.59235451704E+02 -0.93822102004E+02  0.11564077880E+03  0.00000000000E+00 0. -1.
<mgrwt>
<rscale>  0 0.14340045E+03</rscale>
<asrwt>0</asrwt>
<pdfrwt beam="2">  1        2 0.32323758E-01 0.14943901E+03</pdfrwt>
<pdfrwt beam="1">  1       -2 0.14094325E-01 0.14943901E+03</pdfrwt>
<totfact> 0.58794940E+03</totfact>
</mgrwt>
</event>
<event>
 7    1  0.8712071E-006  0.1312094E+03  0.7546771E-02  0.1239178E+00
          2   -1    0    0  501    0  0.00000000000E+00  0.00000000000E+00  0.51292019690E+02  0.51292019690E+02  0.00000000000E+00 0. -1.
         -2   -1    0    0    0  501 -0.00000000000E+00 -0.00000000000E+00 -0.34255546484E+03  0.34255546484E+03  0.00000000000E+00 0.  1.
         23    2    1    2    0    0 -0.18936781035E+02  0.35127827054E+02 -0.25728839879E+03  0.28881349183E+03  0.12499338783E+03 0.  0.
          5    1    3    3  502    0  0.26667280305E+02  0.20372361473E+02 -0.78703213023E+01  0.34788056977E+02  0.47000000000E+01 0.  1.
         -5    1    3    3    0  502 -0.45604061340E+02  0.14755465581E+02 -0.24941807748E+03  0.25402543485E+03  0.47000000000E+01 0.  1.
        -11    1    1    2    0    0  0.21415190622E+02  0.82512977649E+01  0.23589973834E+02  0.32911717817E+02  0.00000000000E+00 0. -1.
         11    1    1    2    0    0 -0.24784095871E+01 -0.43379124819E+02 -0.57565020198E+02  0.72122274884E+02  0.00000000000E+00 0.  1.
<mgrwt>
<rscale>  0 0.12240707E+03</rscale>
<asrwt>0</asrwt>
<pdfrwt beam="1">  1        2 0.78910800E-02 0.13120942E+03</pdfrwt>
<pdfrwt beam="2">  1       -2 0.52700841E-01 0.13120942E+03</pdfrwt>
<totfact> 0.28606652E+03</totfact>
</mgrwt>
</event>
<event>
 7    1  0.8712071E-006  0.1818704E+03  0.7546771E-02  0.1172410E+00
         -1   -1    0    0    0  501 -0.00000000000E+00  0.00000000000E+00  0.52405182336E+02  0.52405182336E+02  0.00000000000E+00 0.  1.
          1   -1    0    0  501    0  0.00000000000E+00 -0.00000000000E+00 -0.56282575470E+03  0.56282575470E+03  0.00000000000E+00 0. -1.
         23    2    1    2    0    0 -0.10147153945E+02  0.13169324860E+03 -0.22359486893E+03  0.28822126657E+03  0.12502302441E+03 0.  0.
          5    1    3    3  502    0 -0.59440705276E+02  0.60249118896E+02 -0.63013351878E+02  0.10562161846E+03  0.47000000000E+01 0. -1.
         -5    1    3    3    0  502  0.49293551330E+02  0.71444129701E+02 -0.16058151705E+03  0.18259964811E+03  0.47000000000E+01 0. -1.
        -11    1    1    2    0    0  0.26420626952E+02 -0.43977765541E+02 -0.41567429184E+02  0.66029876264E+02  0.00000000000E+00 0.  1.
         11    1    1    2    0    0 -0.16273473007E+02 -0.87715483057E+02 -0.24525827425E+03  0.26097979420E+03  0.00000000000E+00 0. -1.
<mgrwt>
<rscale>  0 0.17532125E+03</rscale>
<asrwt>0</asrwt>
<pdfrwt beam="2">  1        1 0.86588569E-01 0.18187037E+03</pdfrwt>
<pdfrwt beam="1">  1       -1 0.80623365E-02 0.18187037E+03</pdfrwt>
<totfact> 0.32204078E+03</totfact>
</mgrwt>
</event>
<event>
 7    1  0.8712071E-006  0.1407056E+03  0.7546771E-02  0.1223555E+00
          2   -1    0    0  501    0  0.00000000000E+00  0.00000000000E+00  0.37594060072E+03  0.37594060072E+03  0.00000000000E+00 0.  1.
         -2   -1    0    0    0  501 -0.00000000000E+00 -0.00000000000E+00 -0.68795143079E+02  0.68795143079E+02  0.00000000000E+00 0. -1.
         23    2    1    2    0    0  0.60788682160E+02  0.21800381044E+02  0.26923530319E+02  0.14325833114E+03  0.12501020944E+03 0.  0.
          5    1    3    3  502    0 -0.11262979773E+01 -0.42376946671E+02  0.32742328335E+02  0.53770105273E+02  0.47000000000E+01 0.  1.
         -5    1    3    3    0  502  0.61914980138E+02  0.64177327715E+02 -0.58187980160E+01  0.89488225865E+02  0.47000000000E+01 0.  1.
        -11    1    1    2    0    0  0.14528373424E+01 -0.38858947600E+02  0.16392100133E+03  0.16847024432E+03  0.00000000000E+00 0.  1.
         11    1    1    2    0    0 -0.62241519503E+02  0.17058566556E+02  0.11630092599E+03  0.13300716834E+03  0.00000000000E+00 0. -1.
<mgrwt>
<rscale>  0 0.13266452E+03</rscale>
<asrwt>0</asrwt>
<pdfrwt beam="1">  1        2 0.57837014E-01 0.14070563E+03</pdfrwt>
<pdfrwt beam="2">  1       -2 0.10583868E-01 0.14070563E+03</pdfrwt>
<totfact> 0.49851834E+03</totfact>
</mgrwt>
</event>
<event>
 7    1  0.8712071E-006  0.1269672E+03  0.7546771E-02  0.1243780E+00
          1   -1    0    0  501    0  0.00000000000E+00  0.00000000000E+00  0.27803660350E+02  0.27803660350E+02  0.00000000000E+00 0. -1.
         -1   -1    0    0    0  501 -0.00000000000E+00 -0.00000000000E+00 -0.46916938556E+03  0.46916938556E+03  0.00000000000E+00 0.  1.
         23    2    1    2    0    0 -0.29228914161E+02 -0.30466930750E+02 -0.21805930876E+03  0.25233018762E+03  0.11974179786E+03 0.  0.
          5    1    3    3  502    0 -0.22649033475E+02  0.45008480157E+02 -0.76920130117E+02  0.92073548974E+02  0.47000000000E+01 0. -1.
         -5    1    3    3    0  502 -0.65798806857E+01 -0.75475410907E+02 -0.14113917864E+03  0.16025663864E+03  0.47000000000E+01 0.  1.
        -11    1    1    2    0    0 -0.27878772190E+02  0.22628234681E+02 -0.46959282768E+02  0.59113764739E+02  0.00000000000E+00 0.  1.
         11    1    1    2    0    0  0.57107686351E+02  0.78386960685E+01 -0.17634713368E+03  0.18552909355E+03  0.00000000000E+00 0. -1.
<mgrwt>
<rscale>  0 0.11958692E+03</rscale>
<asrwt>0</asrwt>
<pdfrwt beam="1">  1        1 0.42774862E-02 0.12696717E+03</pdfrwt>
<pdfrwt beam="2">  1       -1 0.72179905E-01 0.12696717E+03</pdfrwt>
<totfact> 0.39812160E+03</totfact>
</mgrwt>
</event>
<event>
 6    1  0.8712071E-006  0.1766664E+03  0.7546771E-02  0.1183915E+00
         -1   -1    0    0    0  501 -0.00000000000E+00  0.00000000000E+00  0.44050616931E+03  0.44050616931E+03  0.00000000000E+00 0.  1.
          1   -1    0    0  501    0  0.00000000000E+00 -0.00000000000E+00 -0.85040021428E+02  0.85040021428E+02  0.00000000000E+00 0. -1.
          5    1    1    2  502    0  0.34513544561E+02  0.71221913896E+02  0.62304250534E+02  0.10083479267E+03  0.47000000000E+01 0. -1.
         -5    1    1    2    0  502  0.43852820986E+02 -0.46242305452E+01  0.28907780604E+03  0.29245943541E+03  0.47000000000E+01 0.  1.
        -11    1    1    2    0    0 -0.43209392282E+02  0.99233338074E+01 -0.13257452863E+02  0.46274012054E+02  0.00000000000E+00 0.  1.
         11    1    1    2    0    0 -0.35156973265E+02 -0.76521017158E+02  0.17341544168E+02  0.85977950605E+02  0.00000000000E+00 0. -1.
<mgrwt>
<rscale>  0 0.16431005E+03</rscale>
<asrwt>0</asrwt>
<pdfrwt beam="2">  1        1 0.13083081E-01 0.17666635E+03</pdfrwt>
<pdfrwt beam="1">  1       -1 0.67770178E-01 0.17666635E+03</pdfrwt>
<totfact> 0.10145154E+03</totfact>
</mgrwt>
</event>
<event>
 7    1  0.1196326E-005  0.1306975E+03  0.7546771E-02  0.1251814E+00
          1   -1    0    0  501    0  0.00000000000E+00  0.00000000000E+00  0.10746007871E+03  0.10746007871E+03  0.00000000000E+00 0. -1.
         -1   -1    0    0    0  501 -0.00000000000E+00 -0.00000000000E+00 -0.10255815044E+03  0.10255815044E+03  0.00000000000E+00 0.  1.
         23    2    1    2    0    0 -0.10657256417E+02 -0.36653798496E+02 -0.81634130122E+01  0.13095219888E+03  0.12499903608E+03 0.  0.
          5    1    3    3  502    0 -0.65775834391E+02 -0.17410381414E+02 -0.20254381420E+02  0.71147113346E+02  0.47000000000E+01 0. -1.
         -5    1    3    3    0  502  0.55118577973E+02 -0.19243417081E+02  0.12090968407E+02  0.59805085535E+02  0.47000000000E+01 0. -1.
        -11    1    1    2    0    0 -0.27486287244E+02  0.16285801348E+02  0.15988902876E+02  0.35726297418E+02  0.00000000000E+00 0. -1.
         11    1    1    2    0    0  0.38143543661E+02  0.20367997148E+02 -0.29235615923E+01  0.43339732847E+02  0.00000000000E+00 0.  1.
<mgrwt>
<rscale>  0 0.11486692E+03</rscale>
<asrwt>0</asrwt>
<pdfrwt beam="1">  1        1 0.16532320E-01 0.13069750E+03</pdfrwt>
<pdfrwt beam="2">  1       -1 0.15778177E-01 0.13069750E+03</pdfrwt>
<totfact> 0.91184750E+03</totfact>
</mgrwt>
</event>
<event>
 7    1  0.8712071E-006  0.1341585E+03  0.7546771E-02  0.1234478E+00
         -1   -1    0    0    0  501 -0.00000000000E+00  0.00000000000E+00  0.16283236673E+02  0.16283236673E+02  0.00000000000E+00 0.  1.
          1   -1    0    0  501    0  0.00000000000E+00 -0.00000000000E+00 -0.86011731295E+03  0.86011731295E+03  0.00000000000E+00 0. -1.
         23    2    1    2    0    0 -0.15974984926E+02 -0.46022191127E+02 -0.46116875217E+03  0.48028649438E+03  0.12500102594E+03 0.  0.
          5    1    3    3  502    0 -0.41204912875E+02 -0.68537670662E+02 -0.17960404888E+03  0.19665950655E+03  0.47000000000E+01 0. -1.
         -5    1    3    3    0  502  0.25229927949E+02  0.22515479535E+02 -0.28156470329E+03  0.28362698783E+03  0.47000000000E+01 0. -1.
        -11    1    1    2    0    0  0.30640428820E+02  0.68272862053E+02 -0.25807819316E+03  0.26870871470E+03  0.00000000000E+00 0. -1.
         11    1    1    2    0    0 -0.14665443894E+02 -0.22250670926E+02 -0.12458713095E+03  0.12740534054E+03  0.00000000000E+00 0.  1.
<mgrwt>
<rscale>  0 0.12537922E+03</rscale>
<asrwt>0</asrwt>
<pdfrwt beam="2">  1        1 0.13232577E+00 0.13415848E+03</pdfrwt>
<pdfrwt beam="1">  1       -1 0.25051128E-02 0.13415848E+03</pdfrwt>
<totfact> 0.97299966E+03</totfact>
</mgrwt>
</event>
<event>
 7    1  0.8712071E-006  0.1415332E+03  0.7546771E-02  0.1221554E+00
         -1   -1    0    0    0  501 -0.00000000000E+00  0.00000000000E+00  0.46413758653E+02  0.46413758653E+02  0.00000000000E+00 0.  1.
          1   -1    0    0  501    0  0.00000000000E+00 -0.00000000000E+00 -0.42287669454E+03  0.42287669454E+03  0.00000000000E+00 0. -1.
         23    2    1    2    0    0  0.50448340865E+02  0.43134148266E+02 -0.10920939324E+03  0.17876896372E+03  0.12500424383E+03 0.  0.
          5    1    3    3  502    0  0.15158625950E+02  0.48541705299E+02 -0.12824346334E+03  0.13803824464E+03  0.47000000000E+01 0. -1.
         -5    1    3    3    0  502  0.35289714915E+02 -0.54075570334E+01  0.19034070105E+02  0.40730719078E+02  0.47000000000E+01 0. -1.
        -11    1    1    2    0    0 -0.45666071602E+02  0.20530218792E+02 -0.11935918546E+03  0.12943529323E+03  0.00000000000E+00 0.  1.
         11    1    1    2    0    0 -0.47822692631E+01 -0.63664367058E+02 -0.14789435719E+03  0.16108619625E+03  0.00000000000E+00 0. -1.
<mgrwt>
<rscale>  0 0.13405898E+03</rscale>
<asrwt>0</asrwt>
<pdfrwt beam="2">  1        1 0.65057954E-01 0.14153321E+03</pdfrwt>
<pdfrwt beam="1">  1       -1 0.71405782E-02 0.14153321E+03</pdfrwt>
<totfact> 0.55601648E+03</totfact>
</mgrwt>
</event>
<event>
 6    1  0.8712071E-006  0.2838400E+03  0.7546771E-02  0.1138739E+00
         -2   -1    0    0    0  501 -0.00000000000E+00  0.00000000000E+00  0.28950972454E+03  0.28950972454E+03  0.00000000000E+00 0.  1.
          2   -1    0    0  501    0  0.00000000000E+00 -0.00000000000E+00 -0.12819693047E+03  0.12819693047E+03  0.00000000000E+00 0. -1.
          5    1    1    2  502    0 -0.91114700065E+02 -0.22448022386E+02 -0.44907156738E+02  0.10413714517E+03  0.47000000000E+01 0. -1.
         -5    1    1    2    0  502  0.80146466427E+02  0.19774088440E+02  0.20659123176E+03  0.22252302734E+03  0.47000000000E+01 0.  1.
        -11    1    1    2    0    0 -0.99102001009E+01  0.37808352080E+02 -0.21952670969E+02  0.44828599306E+02  0.00000000000E+00 0. -1.
         11    1    1    2    0    0  0.20878433739E+02 -0.35134418133E+02  0.21581390015E+02  0.46217883205E+02  0.00000000000E+00 0.  1.
<mgrwt>
<rscale>  0 0.21360925E+03</rscale>
<asrwt>0</asrwt>
<pdfrwt beam="2">  1        2 0.19722605E-01 0.28383997E+03</pdfrwt>
<pdfrwt beam="1">  1       -2 0.44539958E-01 0.28383997E+03</pdfrwt>
<totfact> 0.13640417E+03</totfact>
</mgrwt>
</event>
<event>
 7    1  0.8712071E-006  0.1807512E+03  0.7546771E-02  0.1172281E+00
         -2   -1    0    0    0  501 -0.00000000000E+00  0.00000000000E+00  0.19081956708E+03  0.19081956708E+03  0.00000000000E+00 0.  1.
          2   -1    0    0  501    0  0.00000000000E+00 -0.00000000000E+00 -0.18995394562E+03  0.18995394562E+03  0.00000000000E+00 0. -1.
         23    2    1    2    0    0 -0.10795423784E+03  0.73442477590E+02  0.84837527248E+02  0.19967073098E+03  0.12499231896E+03 0.  0.
          5    1    3    3  502    0  0.54737260644E+01  0.94471944057E+01 -0.26001482687E+02  0.28589827930E+02  0.47000000000E+01 0. -1.
         -5    1    3    3    0  502 -0.11342796390E+03  0.63995283185E+02  0.11083900993E+03  0.17108090305E+03  0.47000000000E+01 0. -1.
        -11    1    1    2    0    0  0.86918963132E+02 -0.54906106656E+02 -0.11564695704E+02  0.10345689386E+03  0.00000000000E+00 0.  1.
         11    1    1    2    0    0  0.21035274703E+02 -0.18536370934E+02 -0.72407210082E+02  0.77645887857E+02  0.00000000000E+00 0. -1.
<mgrwt>
<rscale>  0 0.17544928E+03</rscale>
<asrwt>0</asrwt>
<pdfrwt beam="2">  1        2 0.29223684E-01 0.18075120E+03</pdfrwt>
<pdfrwt beam="1">  1       -2 0.29356857E-01 0.18075120E+03</pdfrwt>
<totfact> 0.18924001E+03</totfact>
</mgrwt>
</event>
<event>
 7    1  0.8712071E-006  0.1291842E+03  0.7546771E-02  0.1234592E+00
         -3   -1    0    0    0  501 -0.00000000000E+00  0.00000000000E+00  0.56148090979E+03  0.56148090979E+03  0.00000000000E+00 0.  1.
          3   -1    0    0  501    0  0.00000000000E+00 -0.00000000000E+00 -0.32707485126E+02  0.32707485126E+02  0.00000000000E+00 0. -1.
         23    2    1    2    0    0  0.63733204812E+02 -0.22317868507E+02  0.40756475193E+03  0.42754832704E+03  0.11012963398E+03 0.  0.
          5    1    3    3  502    0  0.20833196369E+02  0.75825443733E+01  0.72340242277E+01  0.23789454736E+02  0.47000000000E+01 0. -1.
         -5    1    3    3    0  502  0.42900008443E+02 -0.29900412880E+02  0.40033072771E+03  0.40375887230E+03  0.47000000000E+01 0.  1.
        -11    1    1    2    0    0 -0.54312630922E+02  0.13010490331E+01  0.13084367208E+03  0.14167434888E+03  0.00000000000E+00 0.  1.
         11    1    1    2    0    0 -0.94205738897E+01  0.21016819474E+02 -0.96349993453E+01  0.24965719008E+02  0.00000000000E+00 0. -1.
<mgrwt>
<rscale>  0 0.12530603E+03</rscale>
<asrwt>0</asrwt>
<pdfrwt beam="2">  1        3 0.50319212E-02 0.12918415E+03</pdfrwt>
<pdfrwt beam="1">  1       -3 0.86381672E-01 0.12918415E+03</pdfrwt>
<totfact> 0.65276985E+02</totfact>
</mgrwt>
</event>
<event>
 6    1  0.8712071E-006  0.4629957E+03  0.7546771E-02  0.1072230E+00
         -2   -1    0    0    0  501 -0.00000000000E+00  0.00000000000E+00  0.19458113825E+03  0.19458113825E+03  0.00000000000E+00 0.  1.
          2   -1    0    0  501    0  0.00000000000E+00 -0.00000000000E+00 -0.46264479693E+03  0.46264479693E+03  0.00000000000E+00 0. -1.
          5    1    1    2  502    0 -0.13147885906E+03 -0.14901560955E+03 -0.18972596247E+03  0.27479150843E+03  0.47000000000E+01 0. -1.
         -5    1    1    2    0  502  0.73224086943E+02  0.18819475459E+03  0.51392203801E+02  0.20842811992E+03  0.47000000000E+01 0.  1.
        -11    1    1    2    0    0 -0.21859075007E+02 -0.11829852152E+02 -0.57810173316E+02  0.62926788420E+02  0.00000000000E+00 0.  1.
         11    1    1    2    0    0  0.80113847125E+02 -0.27349292890E+02 -0.71919726687E+02  0.11107951841E+03  0.00000000000E+00 0. -1.
<mgrwt>
<rscale>  0 0.32754148E+03</rscale>
<asrwt>0</asrwt>
<pdfrwt beam="2">  1        2 0.71176122E-01 0.46299566E+03</pdfrwt>
<pdfrwt beam="1">  1       -2 0.29935560E-01 0.46299566E+03</pdfrwt>
<totfact> 0.69855634E+02</totfact>
</mgrwt>
</event>
<event>
 7    1  0.8712071E-006  0.1332433E+03  0.7546771E-02  0.1237046E+00
          2   -1    0    0  501    0  0.00000000000E+00  0.00000000000E+00  0.22118937574E+03  0.22118937574E+03  0.00000000000E+00 0. -1.
         -2   -1    0    0    0  501 -0.00000000000E+00 -0.00000000000E+00 -0.61189422257E+02  0.61189422257E+02  0.00000000000E+00 0.  1.
         23    2    1    2    0    0  0.80307249924E+01 -0.45394408623E+02  0.84473845065E+02  0.15776441488E+03  0.12501454005E+03 0.  0.
          5    1    3    3  502    0  0.46519100397E+02  0.23485201424E+02  0.46812622275E+02  0.70207499542E+02  0.47000000000E+01 0. -1.
         -5    1    3    3    0  502 -0.38488375404E+02 -0.68879610047E+02  0.37661222790E+02  0.87556915338E+02  0.47000000000E+01 0. -1.
        -11    1    1    2    0    0  0.13173338014E+02  0.37939249863E+02 -0.54931818546E+01  0.40535152171E+02  0.00000000000E+00 0.  1.
         11    1    1    2    0    0 -0.21204063006E+02  0.74551587597E+01  0.81019290271E+02  0.84079230944E+02  0.00000000000E+00 0. -1.
<mgrwt>
<rscale>  0 0.12374372E+03</rscale>
<asrwt>0</asrwt>
<pdfrwt beam="1">  1        2 0.34029134E-01 0.13324331E+03</pdfrwt>
<pdfrwt beam="2">  1       -2 0.94137574E-02 0.13324331E+03</pdfrwt>
<totfact> 0.10497031E+04</totfact>
</mgrwt>
</event>
<event>
 7    1  0.8712071E-006  0.1490300E+03  0.7546771E-02  0.1210705E+00
          1   -1    0    0  501    0  0.00000000000E+00  0.00000000000E+00  0.68200081885E+03  0.68200081885E+03  0.00000000000E+00 0. -1.
         -1   -1    0    0    0  501 -0.00000000000E+00 -0.00000000000E+00 -0.41719647526E+02  0.41719647526E+02  0.00000000000E+00 0.  1.
         23    2    1    2    0    0 -0.80712894312E+02  0.83457095939E+01  0.12648430691E+03  0.19546920688E+03  0.12500283504E+03 0.  0.
          5    1    3    3  502    0 -0.88306527737E+02  0.40207190662E+02  0.44092768328E+02  0.10668141001E+03  0.47000000000E+01 0.  1.
         -5    1    3    3    0  502  0.75936334248E+01 -0.31861481068E+02  0.82391538581E+02  0.88787796877E+02  0.47000000000E+01 0.  1.
        -11    1    1    2    0    0  0.15242962962E+02 -0.45063554915E+02  0.18938113307E+03  0.19526465493E+03  0.00000000000E+00 0.  1.
         11    1    1    2    0    0  0.65469931351E+02  0.36717845321E+02  0.32441573135E+03  0.33298660457E+03  0.00000000000E+00 0. -1.
<mgrwt>
<rscale>  0 0.14196823E+03</rscale>
<asrwt>0</asrwt>
<pdfrwt beam="1">  1        1 0.10492319E+00 0.14902997E+03</pdfrwt>
<pdfrwt beam="2">  1       -1 0.64184078E-02 0.14902997E+03</pdfrwt>
<totfact> 0.34577340E+03</totfact>
</mgrwt>
</event>
<event>
 7    1  0.8712071E-006  0.1318837E+03  0.7546771E-02  0.1238028E+00
         -1   -1    0    0    0  501 -0.00000000000E+00  0.00000000000E+00  0.10289840546E+03  0.10289840546E+03  0.00000000000E+00 0.  1.
          1   -1    0    0  501    0  0.00000000000E+00 -0.00000000000E+00 -0.14150553614E+03  0.14150553614E+03  0.00000000000E+00 0. -1.
         23    2    1    2    0    0  0.14132926900E+01  0.42035894101E+02  0.11498470604E+02  0.13238404186E+03  0.12499722367E+03 0.  0.
          5    1    3    3  502    0 -0.38607630840E+02  0.33644298768E+02  0.53059061624E+02  0.73890743798E+02  0.47000000000E+01 0. -1.
         -5    1    3    3    0  502  0.40020923530E+02  0.83915953334E+01 -0.41560591020E+02  0.58493298063E+02  0.47000000000E+01 0. -1.
        -11    1    1    2    0    0  0.25866808275E+02 -0.35544688311E+02  0.10538887774E+02  0.45206026069E+02  0.00000000000E+00 0.  1.
         11    1    1    2    0    0 -0.27280100965E+02 -0.64912057900E+01 -0.60644489063E+02  0.66813873671E+02  0.00000000000E+00 0. -1.
<mgrwt>
<rscale>  0 0.12312570E+03</rscale>
<asrwt>0</asrwt>
<pdfrwt beam="2">  1        1 0.21770082E-01 0.13188374E+03</pdfrwt>
<pdfrwt beam="1">  1       -1 0.15830524E-01 0.13188374E+03</pdfrwt>
<totfact> 0.63923907E+03</totfact>
</mgrwt>
</event>
<event>
 7    1  0.8712071E-006  0.1493823E+03  0.7546771E-02  0.1211167E+00
         -2   -1    0    0    0  501 -0.00000000000E+00  0.00000000000E+00  0.24191720853E+03  0.24191720853E+03  0.00000000000E+00 0.  1.
          2   -1    0    0  501    0  0.00000000000E+00 -0.00000000000E+00 -0.75444498740E+02  0.75444498740E+02  0.00000000000E+00 0. -1.
         23    2    1    2    0    0 -0.51234984552E+02 -0.63744281598E+02  0.97276244666E+02  0.17826310926E+03  0.12500684489E+03 0.  0.
          5    1    3    3  502    0 -0.81871035595E+02 -0.77902801389E+02  0.86917958573E+02  0.14264828936E+03  0.47000000000E+01 0. -1.
         -5    1    3    3    0  502  0.30636051043E+02  0.14158519792E+02  0.10358286093E+02  0.35614819907E+02  0.47000000000E+01 0. -1.
        -11    1    1    2    0    0 -0.10983363620E+02  0.52535645871E+02  0.14740834264E+02  0.55658966558E+02  0.00000000000E+00 0. -1.
         11    1    1    2    0    0  0.62218348172E+02  0.11208635727E+02  0.54455630858E+02  0.83439631448E+02  0.00000000000E+00 0.  1.
<mgrwt>
<rscale>  0 0.14161867E+03</rscale>
<asrwt>0</asrwt>
<pdfrwt beam="2">  1        2 0.11606846E-01 0.14938229E+03</pdfrwt>
<pdfrwt beam="1">  1       -2 0.37218032E-01 0.14938229E+03</pdfrwt>
<totfact> 0.35079780E+03</totfact>
</mgrwt>
</event>
<event>
 7    1  0.8712071E-006  0.2432317E+03  0.7546771E-02  0.1121266E+00
         -2   -1    0    0    0  501 -0.00000000000E+00  0.00000000000E+00  0.98214073449E+02  0.98214073449E+02  0.00000000000E+00 0.  1.
          2   -1    0    0  501    0  0.00000000000E+00 -0.00000000000E+00 -0.56801091866E+03  0.56801091866E+03  0.00000000000E+00 0. -1.
         23    2    1    2    0    0  0.15995794873E+03  0.13398034395E+03 -0.18841731657E+03  0.30767307606E+03  0.12499743446E+03 0.  0.
          5    1    3    3  502    0  0.55149626447E+02  0.78848538734E+02 -0.14808912207E+02  0.97467775385E+02  0.47000000000E+01 0.  1.
         -5    1    3    3    0  502  0.10480832228E+03  0.55131805219E+02 -0.17360840437E+03  0.21020530068E+03  0.47000000000E+01 0.  1.
        -11    1    1    2    0    0 -0.10767892967E+03 -0.91528880640E+02 -0.24281541405E+03  0.28094770543E+03  0.00000000000E+00 0. -1.
         11    1    1    2    0    0 -0.52279019058E+02 -0.42451463313E+02 -0.38564114584E+02  0.77604210612E+02  0.00000000000E+00 0.  1.
<mgrwt>
<rscale>  0 0.23780145E+03</rscale>
<asrwt>0</asrwt>
<pdfrwt beam="2">  1        2 0.87386296E-01 0.24323165E+03</pdfrwt>
<pdfrwt beam="1">  1       -2 0.15109857E-01 0.24323165E+03</pdfrwt>
<totfact> 0.18140225E+03</totfact>
</mgrwt>
</event>
<event>
 7    1  0.8712071E-006  0.2616431E+03  0.7546771E-02  0.1107871E+00
         -1   -1    0    0    0  501 -0.00000000000E+00  0.00000000000E+00  0.40374895156E+02  0.40374895156E+02  0.00000000000E+00 0.  1.
          1   -1    0    0  501    0  0.00000000000E+00 -0.00000000000E+00 -0.16916274508E+04  0.16916274508E+04  0.00000000000E+00 0. -1.
         23    2    1    2    0    0  0.87401130294E+02 -0.21258847259E+03 -0.10165753718E+04  0.10497059622E+04  0.12499721658E+03 0.  0.
          5    1    3    3  502    0  0.40268785709E+01 -0.14429373661E+03 -0.71437134014E+03  0.72882467013E+03  0.47000000000E+01 0. -1.
         -5    1    3    3    0  502  0.83374251723E+02 -0.68294735983E+02 -0.30220403170E+03  0.32088129205E+03  0.47000000000E+01 0. -1.
        -11    1    1    2    0    0 -0.16773081074E+01  0.11859369831E+03 -0.24154075640E+03  0.26908960523E+03  0.00000000000E+00 0.  1.
         11    1    1    2    0    0 -0.85723822186E+02  0.93994774281E+02 -0.39313642744E+03  0.41320677858E+03  0.00000000000E+00 0. -1.
<mgrwt>
<rscale>  0 0.25879262E+03</rscale>
<asrwt>0</asrwt>
<pdfrwt beam="2">  1        1 0.26025027E+00 0.26164312E+03</pdfrwt>
<pdfrwt beam="1">  1       -1 0.62115248E-02 0.26164312E+03</pdfrwt>
<totfact> 0.67962685E+02</totfact>
</mgrwt>
</event>
<event>
 7    1  0.8712071E-006  0.1263522E+03  0.7546771E-02  0.1247854E+00
         -1   -1    0    0    0  501 -0.00000000000E+00  0.00000000000E+00  0.41981678993E+02  0.41981678993E+02  0.00000000000E+00 0.  1.
          1   -1    0    0  501    0  0.00000000000E+00 -0.00000000000E+00 -0.29403010183E+03  0.29403010183E+03  0.00000000000E+00 0. -1.
         23    2    1    2    0    0 -0.10203306548E+02  0.15346729405E+02 -0.11993399423E+03  0.17420979415E+03  0.12500103935E+03 0.  0.
          5    1    3    3  502    0 -0.24351411113E+01 -0.20170036012E+02  0.20396760139E+02  0.29169814692E+02  0.47000000000E+01 0.  1.
         -5    1    3    3    0  502 -0.77681654365E+01  0.35516765418E+02 -0.14033075437E+03  0.14503997946E+03  0.47000000000E+01 0.  1.
        -11    1    1    2    0    0  0.41028401828E+02  0.18202986724E+02 -0.45372485400E+02  0.63822730384E+02  0.00000000000E+00 0.  1.
         11    1    1    2    0    0 -0.30825095280E+02 -0.33549716129E+02 -0.86741943203E+02  0.97979256284E+02  0.00000000000E+00 0. -1.
<mgrwt>
<rscale>  0 0.11716206E+03</rscale>
<asrwt>0</asrwt>
<pdfrwt beam="2">  1        1 0.45235401E-01 0.12635224E+03</pdfrwt>
<pdfrwt beam="1">  1       -1 0.64587197E-02 0.12635224E+03</pdfrwt>
<totfact> 0.10095609E+04</totfact>
</mgrwt>
</event>
<event>
 7    1  0.8712071E-006  0.1369062E+03  0.7546771E-02  0.1229325E+00
         -2   -1    0    0    0  501 -0.00000000000E+00  0.00000000000E+00  0.19072032481E+02  0.19072032481E+02  0.00000000000E+00 0.  1.
          2   -1    0    0  501    0  0.00000000000E+00 -0.00000000000E+00 -0.78089100572E+03  0.78089100572E+03  0.00000000000E+00 0. -1.
         23    2    1    2    0    0  0.53559878647E+02  0.15805616772E+02 -0.41658624250E+03  0.43850587670E+03  0.12499931335E+03 0.  0.
          5    1    3    3  502    0  0.61313922946E+02  0.32745429451E+02 -0.41315525743E+03  0.41898808699E+03  0.47000000000E+01 0.  1.
         -5    1    3    3    0  502 -0.77540442984E+01 -0.16939812679E+02 -0.34309850672E+01  0.19517789709E+02  0.47000000000E+01 0.  1.
        -11    1    1    2    0    0 -0.34277586612E+02  0.37232748427E+02 -0.16780375677E+03  0.17526931073E+03  0.00000000000E+00 0. -1.
         11    1    1    2    0    0 -0.19282292035E+02 -0.53038365199E+02 -0.17742897397E+03  0.18618785077E+03  0.00000000000E+00 0.  1.
<mgrwt>
<rscale>  0 0.12874848E+03</rscale>
<asrwt>0</asrwt>
<pdfrwt beam="2">  1        2 0.12013705E+00 0.13690620E+03</pdfrwt>
<pdfrwt beam="1">  1       -2 0.29341594E-02 0.13690620E+03</pdfrwt>
<totfact> 0.15269128E+04</totfact>
</mgrwt>
</event>
<event>
 7    1  0.8712071E-006  0.1308947E+03  0.7546771E-02  0.1234320E+00
          2   -1    0    0  501    0  0.00000000000E+00  0.00000000000E+00  0.33373414915E+02  0.33373414915E+02  0.00000000000E+00 0. -1.
         -2   -1    0    0    0  501 -0.00000000000E+00 -0.00000000000E+00 -0.86628618701E+03  0.86628618701E+03  0.00000000000E+00 0.  1.
         23    2    1    2    0    0 -0.42006586050E+02 -0.46757323666E+02 -0.75035976938E+03  0.76169101845E+03  0.11481560651E+03 0.  0.
          5    1    3    3  502    0  0.24129175801E+02 -0.56999125392E+02 -0.29929958482E+03  0.30566885496E+03  0.47000000000E+01 0. -1.
         -5    1    3    3    0  502 -0.66135761851E+02  0.10241801725E+02 -0.45106018456E+03  0.45602216349E+03  0.47000000000E+01 0.  1.
        -11    1    1    2    0    0  0.39940347207E+02  0.73203925224E+02 -0.56094021636E+02  0.10050166798E+03  0.00000000000E+00 0. -1.
         11    1    1    2    0    0  0.20662388431E+01 -0.26446601558E+02 -0.26458981077E+02  0.37466915492E+02  0.00000000000E+00 0.  1.
<mgrwt>
<rscale>  0 0.12548070E+03</rscale>
<asrwt>0</asrwt>
<pdfrwt beam="1">  1        2 0.51343726E-02 0.13089471E+03</pdfrwt>
<pdfrwt beam="2">  1       -2 0.13327477E+00 0.13089471E+03</pdfrwt>
<totfact> 0.63436932E+02</totfact>
</mgrwt>
</event>
<event>
 7    1  0.8712071E-006  0.1890948E+03  0.7546771E-02  0.1164111E+00
          2   -1    0    0  501    0  0.00000000000E+00  0.00000000000E+00  0.27701601327E+03  0.27701601327E+03  0.00000000000E+00 0. -1.
         -2   -1    0    0    0  501 -0.00000000000E+00 -0.00000000000E+00 -0.12808341146E+03  0.12808341146E+03  0.00000000000E+00 0.  1.
         23    2    1    2    0    0 -0.18562223160E+02 -0.14067602321E+03  0.14099223472E+03  0.23587215080E+03  0.12499024616E+03 0.  0.
          5    1    3    3  502    0 -0.23712839630E+02 -0.16319138313E+03  0.11707731628E+03  0.20229412813E+03  0.47000000000E+01 0.  1.
         -5    1    3    3    0  502  0.51506164697E+01  0.22515359914E+02  0.23914918446E+02  0.33578022669E+02  0.47000000000E+01 0.  1.
        -11    1    1    2    0    0  0.27480945920E+01  0.47614392886E+02 -0.41004253015E+02  0.62896988792E+02  0.00000000000E+00 0.  1.
         11    1    1    2    0    0  0.15814128568E+02  0.93061630326E+02  0.48944620100E+02  0.10633028514E+03  0.00000000000E+00 0. -1.
<mgrwt>
<rscale>  0 0.18386866E+03</rscale>
<asrwt>0</asrwt>
<pdfrwt beam="1">  1        2 0.42617848E-01 0.18909485E+03</pdfrwt>
<pdfrwt beam="2">  1       -2 0.19705140E-01 0.18909485E+03</pdfrwt>
<totfact> 0.25315019E+03</totfact>
</mgrwt>
</event>
<event>
 7    1  0.8712071E-006  0.1370914E+03  0.7546771E-02  0.1231199E+00
         -1   -1    0    0    0  501 -0.00000000000E+00  0.00000000000E+00  0.37279457130E+03  0.37279457130E+03  0.00000000000E+00 0.  1.
          1   -1    0    0  501    0  0.00000000000E+00 -0.00000000000E+00 -0.43026659486E+02  0.43026659486E+02  0.00000000000E+00 0. -1.
         23    2    1    2    0    0 -0.44843161880E+02  0.34020514020E+02  0.25274033368E+03  0.28752690867E+03  0.12500296955E+03 0.  0.
          5    1    3    3  502    0  0.35439471942E+02 -0.79696152616E+01  0.31142459437E+02  0.48077164213E+02  0.47000000000E+01 0.  1.
         -5    1    3    3    0  502 -0.80282633821E+02  0.41990129282E+02  0.22159787425E+03  0.23944974446E+03  0.47000000000E+01 0.  1.
        -11    1    1    2    0    0  0.99546083484E+01  0.13944380875E+02  0.65717571811E+02  0.67914204921E+02  0.00000000000E+00 0.  1.
         11    1    1    2    0    0  0.34888553531E+02 -0.47964894896E+02  0.11310006324E+02  0.60380117198E+02  0.00000000000E+00 0. -1.
<mgrwt>
<rscale>  0 0.12750919E+03</rscale>
<asrwt>0</asrwt>
<pdfrwt beam="2">  1        1 0.66194863E-02 0.13709138E+03</pdfrwt>
<pdfrwt beam="1">  1       -1 0.57353009E-01 0.13709138E+03</pdfrwt>
<totfact> 0.34400157E+03</totfact>
</mgrwt>
</event>
<event>
 7    1  0.8712071E-006  0.1250631E+03  0.7546771E-02  0.1250313E+00
          1   -1    0    0  501    0  0.00000000000E+00  0.00000000000E+00  0.30462605085E+03  0.30462605085E+03  0.00000000000E+00 0. -1.
         -1   -1    0    0    0  501 -0.00000000000E+00 -0.00000000000E+00 -0.41878631964E+02  0.41878631964E+02  0.00000000000E+00 0.  1.
         23    2    1    2    0    0  0.55005122356E+00 -0.39975863688E+01  0.10177040324E+03  0.16123892722E+03  0.12499797366E+03 0.  0.
          5    1    3    3  502    0  0.50374244944E+02 -0.31515632135E+02  0.22882351559E+02  0.63847408995E+02  0.47000000000E+01 0. -1.
         -5    1    3    3    0  502 -0.49824193720E+02  0.27518045766E+02  0.78888051686E+02  0.97391518222E+02  0.47000000000E+01 0. -1.
        -11    1    1    2    0    0  0.24313570160E+02  0.17417211674E+02  0.98027140253E+01  0.31473832920E+02  0.00000000000E+00 0.  1.
         11    1    1    2    0    0 -0.24863621383E+02 -0.13419625305E+02  0.15117430162E+03  0.15379192268E+03  0.00000000000E+00 0. -1.
<mgrwt>
<rscale>  0 0.11572977E+03</rscale>
<asrwt>0</asrwt>
<pdfrwt beam="1">  1        1 0.46865545E-01 0.12506309E+03</pdfrwt>
<pdfrwt beam="2">  1       -1 0.64428667E-02 0.12506309E+03</pdfrwt>
<totfact> 0.96915668E+03</totfact>
</mgrwt>
</event>
<event>
 6    1  0.8712071E-006  0.2107340E+03  0.7546771E-02  0.1168400E+00
          2   -1    0    0  501    0  0.00000000000E+00  0.00000000000E+00  0.29462465514E+03  0.29462465514E+03  0.00000000000E+00 0. -1.
         -2   -1    0    0    0  501 -0.00000000000E+00 -0.00000000000E+00 -0.10429747039E+03  0.10429747039E+03  0.00000000000E+00 0.  1.
          5    1    1    2  502    0 -0.58432161029E+02 -0.12692525381E+02  0.67735647307E+02  0.90474446996E+02  0.47000000000E+01 0. -1.
         -5    1    1    2    0  502  0.12156193135E+03  0.13461805211E+02 -0.24060752627E+02  0.12473785780E+03  0.47000000000E+01 0.  1.
        -11    1    1    2    0    0 -0.81811357638E+02  0.64275692305E+00  0.14281006809E+03  0.16458501427E+03  0.00000000000E+00 0.  1.
         11    1    1    2    0    0  0.18681587321E+02 -0.14120367526E+01  0.38422219842E+01  0.19124806467E+02  0.00000000000E+00 0. -1.
<mgrwt>
<rscale>  0 0.17938428E+03</rscale>
<asrwt>0</asrwt>
<pdfrwt beam="1">  1        2 0.45326870E-01 0.21073405E+03</pdfrwt>
<pdfrwt beam="2">  1       -2 0.16045765E-01 0.21073405E+03</pdfrwt>
<totfact> 0.33607390E+03</totfact>
</mgrwt>
</event>
<event>
 7    1  0.8712071E-006  0.1517762E+03  0.7546771E-02  0.1210815E+00
          1   -1    0    0  501    0  0.00000000000E+00  0.00000000000E+00  0.58585734512E+02  0.58585734512E+02  0.00000000000E+00 0. -1.
         -1   -1    0    0    0  501 -0.00000000000E+00 -0.00000000000E+00 -0.38574275598E+03  0.38574275598E+03  0.00000000000E+00 0.  1.
         23    2    1    2    0    0 -0.29161486218E+02  0.80995851003E+02 -0.28137649430E+03  0.31970102528E+03  0.12500117545E+03 0.  0.
          5    1    3    3  502    0  0.29115780272E+02  0.40124881096E+02 -0.22009271834E+03  0.22565599794E+03  0.47000000000E+01 0. -1.
         -5    1    3    3    0  502 -0.58277266490E+02  0.40870969908E+02 -0.61283775963E+02  0.94045027338E+02  0.47000000000E+01 0. -1.
        -11    1    1    2    0    0  0.46509718153E+02 -0.21957067118E+02 -0.34855539661E+02  0.62130309223E+02  0.00000000000E+00 0.  1.
         11    1    1    2    0    0 -0.17348231935E+02 -0.59038783886E+02 -0.10924987505E+02  0.62497155983E+02  0.00000000000E+00 0. -1.
<mgrwt>
<rscale>  0 0.14188520E+03</rscale>
<asrwt>0</asrwt>
<pdfrwt beam="1">  1        1 0.90131898E-02 0.15177620E+03</pdfrwt>
<pdfrwt beam="2">  1       -1 0.59345040E-01 0.15177620E+03</pdfrwt>
<totfact> 0.21398524E+03</totfact>
</mgrwt>
</event>
<event>
 6    1  0.8712071E-006  0.2689895E+03  0.7546771E-02  0.1101859E+00
          4   -1    0    0  501    0  0.00000000000E+00  0.00000000000E+00  0.85896567531E+02  0.85896567531E+02  0.00000000000E+00 0. -1.
         -4   -1    0    0    0  501 -0.00000000000E+00 -0.00000000000E+00 -0.21058866745E+03  0.21058866745E+03  0.00000000000E+00 0.  1.
          5    1    1    2  502    0  0.10567115900E+02  0.11143758316E+02  0.19821030100E+02  0.25510988262E+02  0.47000000000E+01 0. -1.
         -5    1    1    2    0  502 -0.29877332826E+02 -0.28044803463E+02 -0.16755626195E+03  0.17255827114E+03  0.47000000000E+01 0.  1.
        -11    1    1    2    0    0 -0.22465552612E+02  0.38063054814E+02 -0.39311556218E+01  0.44372865362E+02  0.00000000000E+00 0.  1.
         11    1    1    2    0    0  0.41775769538E+02 -0.21162009667E+02  0.26974287554E+02  0.54043110224E+02  0.00000000000E+00 0. -1.
<mgrwt>
<rscale>  0 0.26898954E+03</rscale>
<asrwt>0</asrwt>
<pdfrwt beam="1">  1        4 0.13214857E-01 0.26898954E+03</pdfrwt>
<pdfrwt beam="2">  1       -4 0.32398256E-01 0.26898954E+03</pdfrwt>
<totfact> 0.80708572E+02</totfact>
</mgrwt>
</event>
<event>
 7    1  0.8712071E-006  0.2166604E+03  0.7546771E-02  0.1139896E+00
          2   -1    0    0  501    0  0.00000000000E+00  0.00000000000E+00  0.72664580034E+03  0.72664580034E+03  0.00000000000E+00 0. -1.
         -2   -1    0    0    0  501 -0.00000000000E+00 -0.00000000000E+00 -0.86963432355E+02  0.86963432355E+02  0.00000000000E+00 0.  1.
         23    2    1    2    0    0  0.16679618340E+03 -0.59124959473E+02  0.10046990173E+03  0.23882200421E+03  0.12500008364E+03 0.  0.
          5    1    3    3  502    0  0.14525407555E+03  0.69866294187E+01  0.80705601051E+02  0.16638222109E+03  0.47000000000E+01 0.  1.
         -5    1    3    3    0  502  0.21542107848E+02 -0.66111588891E+02  0.19764300681E+02  0.72439783115E+02  0.47000000000E+01 0.  1.
        -11    1    1    2    0    0 -0.84305407935E+02  0.93845164123E+01  0.13646338043E+03  0.16067895056E+03  0.00000000000E+00 0.  1.
         11    1    1    2    0    0 -0.82490775466E+02  0.49740443060E+02  0.40274908582E+03  0.41410827792E+03  0.00000000000E+00 0. -1.
<mgrwt>
<rscale>  0 0.21212317E+03</rscale>
<asrwt>0</asrwt>
<pdfrwt beam="1">  1        2 0.11179166E+00 0.21666045E+03</pdfrwt>
<pdfrwt beam="2">  1       -2 0.13378990E-01 0.21666045E+03</pdfrwt>
<totfact> 0.16528485E+03</totfact>
</mgrwt>
</event>
<event>
 7    1  0.8712071E-006  0.1701044E+03  0.7546771E-02  0.1185144E+00
          1   -1    0    0  501    0  0.00000000000E+00  0.00000000000E+00  0.21654592858E+03  0.21654592858E+03  0.00000000000E+00 0. -1.
         -1   -1    0    0    0  501 -0.00000000000E+00 -0.00000000000E+00 -0.11851803427E+03  0.11851803427E+03  0.00000000000E+00 0.  1.
         23    2    1    2    0    0 -0.39462484790E+02 -0.10841233601E+03  0.20176414498E+02  0.17129682477E+03  0.12499996868E+03 0.  0.
          5    1    3    3  502    0 -0.81335949131E+02 -0.57050856353E+02  0.30574564413E+02  0.10405398032E+03  0.47000000000E+01 0.  1.
         -5    1    3    3    0  502  0.41873464341E+02 -0.51361479654E+02 -0.10398149914E+02  0.67242844450E+02  0.47000000000E+01 0.  1.
        -11    1    1    2    0    0  0.35790355284E+02  0.29858463712E+02  0.70862827095E+02  0.84817555085E+02  0.00000000000E+00 0. -1.
         11    1    1    2    0    0  0.36721295061E+01  0.78553872295E+02  0.69886527116E+01  0.78949582990E+02  0.00000000000E+00 0.  1.
<mgrwt>
<rscale>  0 0.16318756E+03</rscale>
<asrwt>0</asrwt>
<pdfrwt beam="1">  1        1 0.33314758E-01 0.17010442E+03</pdfrwt>
<pdfrwt beam="2">  1       -1 0.18233544E-01 0.17010442E+03</pdfrwt>
<totfact> 0.30382562E+03</totfact>
</mgrwt>
</event>
<event>
 7    1  0.8712071E-006  0.1602237E+03  0.7546771E-02  0.1196326E+00
         -1   -1    0    0    0  501 -0.00000000000E+00  0.00000000000E+00  0.96381757940E+03  0.96381757940E+03  0.00000000000E+00 0.  1.
          1   -1    0    0  501    0  0.00000000000E+00 -0.00000000000E+00 -0.22747531583E+02  0.22747531583E+02  0.00000000000E+00 0. -1.
         23    2    1    2    0    0 -0.99708104075E+02  0.10216515885E+02  0.46667101759E+03  0.49341003127E+03  0.12500214832E+03 0.  0.
          5    1    3    3  502    0 -0.44714061237E+01  0.11187410112E+02  0.30812865249E+03  0.30839991586E+03  0.47000000000E+01 0.  1.
         -5    1    3    3    0  502 -0.95236697952E+02 -0.97089422663E+00  0.15854236510E+03  0.18501011541E+03  0.47000000000E+01 0.  1.
        -11    1    1    2    0    0  0.48685898839E+02  0.36673343317E+02  0.16016744051E+03  0.17137345143E+03  0.00000000000E+00 0. -1.
         11    1    1    2    0    0  0.51022205237E+02 -0.46889859203E+02  0.31423158971E+03  0.32178162828E+03  0.00000000000E+00 0.  1.
<mgrwt>
<rscale>  0 0.15342533E+03</rscale>
<asrwt>0</asrwt>
<pdfrwt beam="2">  1        1 0.34996210E-02 0.16022366E+03</pdfrwt>
<pdfrwt beam="1">  1       -1 0.14827960E+00 0.16022366E+03</pdfrwt>
<totfact> 0.10543925E+03</totfact>
</mgrwt>
</event>
<event>
 7    1  0.8712071E-006  0.1664863E+03  0.7546771E-02  0.1188681E+00
          2   -1    0    0  501    0  0.00000000000E+00  0.00000000000E+00  0.66514910201E+03  0.66514910201E+03  0.00000000000E+00 0. -1.
         -2   -1    0    0    0  501 -0.00000000000E+00 -0.00000000000E+00 -0.36147297305E+02  0.36147297305E+02  0.00000000000E+00 0.  1.
         23    2    1    2    0    0 -0.82653538176E+01  0.10965750161E+03  0.30408818300E+03  0.34668041019E+03  0.12499840015E+03 0.  0.
          5    1    3    3  502    0  0.21999490240E+02 -0.11809498309E+02  0.12849785236E+03  0.13098560945E+03  0.47000000000E+01 0. -1.
         -5    1    3    3    0  502 -0.30264844058E+02  0.12146699992E+03  0.17559033064E+03  0.21569480074E+03  0.47000000000E+01 0. -1.
        -11    1    1    2    0    0 -0.26908530623E+01 -0.86581504300E+02  0.31584643072E+03  0.32750964165E+03  0.00000000000E+00 0. -1.
         11    1    1    2    0    0  0.10956206880E+02 -0.23075997307E+02  0.90671909902E+01  0.27106347473E+02  0.00000000000E+00 0.  1.
<mgrwt>
<rscale>  0 0.16001429E+03</rscale>
<asrwt>0</asrwt>
<pdfrwt beam="1">  1        2 0.10233062E+00 0.16648629E+03</pdfrwt>
<pdfrwt beam="2">  1       -2 0.55611231E-02 0.16648629E+03</pdfrwt>
<totfact> 0.72240144E+03</totfact>
</mgrwt>
</event>
<event>
 7    1  0.8712071E-006  0.1681395E+03  0.7546771E-02  0.1185907E+00
          1   -1    0    0  501    0  0.00000000000E+00  0.00000000000E+00  0.15701300964E+03  0.15701300964E+03  0.00000000000E+00 0. -1.
         -1   -1    0    0    0  501 -0.00000000000E+00 -0.00000000000E+00 -0.18629521331E+03  0.18629521331E+03  0.00000000000E+00 0.  1.
         23    2    1    2    0    0 -0.10806618758E+03 -0.31110570518E+02 -0.82480248458E+02  0.18728025800E+03  0.12499894062E+03 0.  0.
          5    1    3    3  502    0 -0.74424721186E+02 -0.53262089719E+02 -0.10622157568E+03  0.14028899624E+03  0.47000000000E+01 0. -1.
         -5    1    3    3    0  502 -0.33641466394E+02  0.22151519202E+02  0.23741327224E+02  0.46991261767E+02  0.47000000000E+01 0. -1.
        -11    1    1    2    0    0  0.25100738525E+02  0.18281418424E+01 -0.27049301572E+02  0.36946635742E+02  0.00000000000E+00 0.  1.
         11    1    1    2    0    0  0.82965449055E+02  0.29282428675E+02  0.80247346364E+02  0.11908132920E+03  0.00000000000E+00 0. -1.
<mgrwt>
<rscale>  0 0.16249660E+03</rscale>
<asrwt>0</asrwt>
<pdfrwt beam="1">  1        1 0.24155847E-01 0.16813954E+03</pdfrwt>
<pdfrwt beam="2">  1       -1 0.28660802E-01 0.16813954E+03</pdfrwt>
<totfact> 0.21684139E+03</totfact>
</mgrwt>
</event>
<event>
 7    1  0.8712071E-006  0.1406033E+03  0.7546771E-02  0.1223588E+00
          1   -1    0    0  501    0  0.00000000000E+00  0.00000000000E+00  0.41780691051E+03  0.41780691051E+03  0.00000000000E+00 0. -1.
         -1   -1    0    0    0  501 -0.00000000000E+00 -0.00000000000E+00 -0.40780301489E+02  0.40780301489E+02  0.00000000000E+00 0.  1.
         23    2    1    2    0    0 -0.33130229855E+02  0.55203795654E+02  0.14926870596E+03  0.20506201162E+03  0.12499684334E+03 0.  0.
          5    1    3    3  502    0  0.11048736214E+02  0.27421220295E+02  0.14969675672E+03  0.15266042993E+03  0.47000000000E+01 0.  1.
         -5    1    3    3    0  502 -0.44178966070E+02  0.27782575359E+02 -0.42805075355E+00  0.52401581694E+02  0.47000000000E+01 0.  1.
        -11    1    1    2    0    0  0.13740464028E+00 -0.19474541577E+02 -0.11493222253E+01  0.19508910560E+02  0.00000000000E+00 0.  1.
         11    1    1    2    0    0  0.32992825215E+02 -0.35729254077E+02  0.22890722528E+03  0.23401628982E+03  0.00000000000E+00 0. -1.
<mgrwt>
<rscale>  0 0.13264176E+03</rscale>
<asrwt>0</asrwt>
<pdfrwt beam="1">  1        1 0.64277983E-01 0.14060328E+03</pdfrwt>
<pdfrwt beam="2">  1       -1 0.62738929E-02 0.14060328E+03</pdfrwt>
<totfact> 0.68509499E+03</totfact>
</mgrwt>
</event>
<event>
 7    1  0.8712071E-006  0.1625469E+03  0.7546771E-02  0.1193301E+00
          2   -1    0    0  501    0  0.00000000000E+00  0.00000000000E+00  0.10331558324E+04  0.10331558324E+04  0.00000000000E+00 0. -1.
         -2   -1    0    0    0  501 -0.00000000000E+00 -0.00000000000E+00 -0.22443854461E+02  0.22443854461E+02  0.00000000000E+00 0.  1.
         23    2    1    2    0    0  0.62089049698E+02 -0.83322399695E+02  0.45927039674E+03  0.48718661649E+03  0.12499531825E+03 0.  0.
          5    1    3    3  502    0 -0.27254999539E+02  0.49133090030E+01  0.16248906194E+03  0.16489924456E+03  0.47000000000E+01 0. -1.
         -5    1    3    3    0  502  0.89344049237E+02 -0.88235708698E+02  0.29678133480E+03  0.32228737194E+03  0.47000000000E+01 0. -1.
        -11    1    1    2    0    0 -0.45509249865E+02  0.88299815630E+02  0.53627569169E+03  0.54539853938E+03  0.00000000000E+00 0. -1.
         11    1    1    2    0    0 -0.16579799833E+02 -0.49774159358E+01  0.15165889508E+02  0.23014530985E+02  0.00000000000E+00 0.  1.
<mgrwt>
<rscale>  0 0.15598910E+03</rscale>
<asrwt>0</asrwt>
<pdfrwt beam="1">  1        2 0.15894701E+00 0.16254692E+03</pdfrwt>
<pdfrwt beam="2">  1       -2 0.34529015E-02 0.16254692E+03</pdfrwt>
<totfact> 0.83948968E+03</totfact>
</mgrwt>
</event>
<event>
 7    1  0.1621178E-005  0.2421438E+03  0.7546771E-02  0.1120987E+00
          2   -1    0    0  501    0  0.00000000000E+00  0.00000000000E+00  0.16982456776E+04  0.16982456776E+04  0.00000000000E+00 0. -1.
         -2   -1    0    0    0  501 -0.00000000000E+00 -0.00000000000E+00 -0.34985951017E+02  0.34985951017E+02  0.00000000000E+00 0.  1.
         23    2    1    2    0    0 -0.18671283753E+03 -0.90261070115E+02  0.62013112693E+03  0.66572983879E+03  0.12499943678E+03 0.  0.
          5    1    3    3  502    0 -0.12934135888E+03 -0.33476828615E+02  0.21938733783E+03  0.25691006047E+03  0.47000000000E+01 0. -1.
         -5    1    3    3    0  502 -0.57371478650E+02 -0.56784241500E+02  0.40074378910E+03  0.40881977832E+03  0.47000000000E+01 0. -1.
        -11    1    1    2    0    0  0.24660592012E+02  0.55161318809E+02  0.31353800710E+03  0.31930705879E+03  0.00000000000E+00 0. -1.
         11    1    1    2    0    0  0.16205224552E+03  0.35099751306E+02  0.72959059255E+03  0.74819473104E+03  0.00000000000E+00 0.  1.
<mgrwt>
<rscale>  0 0.23821579E+03</rscale>
<asrwt>0</asrwt>
<pdfrwt beam="1">  1        2 0.26126850E+00 0.24214377E+03</pdfrwt>
<pdfrwt beam="2">  1       -2 0.53824553E-02 0.24214377E+03</pdfrwt>
<totfact> 0.18751633E+03</totfact>
</mgrwt>
</event>
<event>
 7    1  0.8712071E-006  0.1253246E+03  0.7546771E-02  0.1271996E+00
         -2   -1    0    0    0  501 -0.00000000000E+00  0.00000000000E+00  0.99465465148E+02  0.99465465148E+02  0.00000000000E+00 0. -1.
          2   -1    0    0  501    0  0.00000000000E+00 -0.00000000000E+00 -0.85932978651E+02  0.85932978651E+02  0.00000000000E+00 0.  1.
         23    2    1    2    0    0 -0.43811082421E+02 -0.27779127397E+02  0.77654670028E+01  0.12556497662E+03  0.11408404803E+03 0.  0.
          5    1    3    3  502    0  0.12610294191E+02  0.32157857084E+02 -0.17934349783E+02  0.39203038071E+02  0.47000000000E+01 0. -1.
         -5    1    3    3    0  502 -0.56421376612E+02 -0.59936984482E+02  0.25699816786E+02  0.86361938552E+02  0.47000000000E+01 0.  1.
        -11    1    1    2    0    0  0.92157781616E+01  0.46601121729E+01 -0.10895534976E+02  0.15011991707E+02  0.00000000000E+00 0.  1.
         11    1    1    2    0    0  0.34595304260E+02  0.23119015224E+02  0.16662554470E+02  0.44821475469E+02  0.00000000000E+00 0. -1.
<mgrwt>
<rscale>  0 0.10405349E+03</rscale>
<asrwt>0</asrwt>
<pdfrwt beam="2">  1        2 0.13220458E-01 0.12532462E+03</pdfrwt>
<pdfrwt beam="1">  1       -2 0.15302379E-01 0.12532462E+03</pdfrwt>
<totfact> 0.13913224E+04</totfact>
</mgrwt>
</event>
<event>
 7    1  0.8712071E-006  0.1968347E+03  0.7546771E-02  0.1156821E+00
          1   -1    0    0  501    0  0.00000000000E+00  0.00000000000E+00  0.13462493311E+03  0.13462493311E+03  0.00000000000E+00 0. -1.
         -1   -1    0    0    0  501 -0.00000000000E+00 -0.00000000000E+00 -0.33938370675E+03  0.33938370675E+03  0.00000000000E+00 0.  1.
         23    2    1    2    0    0  0.13617549916E+03  0.67641802066E+02 -0.22070666878E+03  0.29572846004E+03  0.12499883390E+03 0.  0.
          5    1    3    3  502    0  0.13548136258E+03  0.76568929291E+01 -0.13963427286E+03  0.19476562267E+03  0.47000000000E+01 0. -1.
         -5    1    3    3    0  502  0.69413657433E+00  0.59984909137E+02 -0.81072395920E+02  0.10096283737E+03  0.47000000000E+01 0. -1.
        -11    1    1    2    0    0  0.32056227952E+01  0.11968793031E+02  0.12685026878E+02  0.17732397780E+02  0.00000000000E+00 0. -1.
         11    1    1    2    0    0 -0.13938112195E+03 -0.79610595097E+02  0.32628682578E+01  0.16054778204E+03  0.00000000000E+00 0.  1.
<mgrwt>
<rscale>  0 0.19182969E+03</rscale>
<asrwt>0</asrwt>
<pdfrwt beam="1">  1        1 0.20711528E-01 0.19683467E+03</pdfrwt>
<pdfrwt beam="2">  1       -1 0.52212877E-01 0.19683467E+03</pdfrwt>
<totfact> 0.92152343E+02</totfact>
</mgrwt>
</event>
<event>
 7    1  0.8712071E-006  0.1543592E+03  0.7546771E-02  0.1203690E+00
         -1   -1    0    0    0  501 -0.00000000000E+00  0.00000000000E+00  0.24387829909E+04  0.24387829909E+04  0.00000000000E+00 0.  1.
          1   -1    0    0  501    0  0.00000000000E+00 -0.00000000000E+00 -0.11799180531E+02  0.11799180531E+02  0.00000000000E+00 0. -1.
         23    2    1    2    0    0  0.70372648320E+02 -0.57015663895E+02  0.19660840920E+04  0.19721342314E+04  0.12499469705E+03 0.  0.
          5    1    3    3  502    0 -0.29355111496E+02 -0.42311851908E+02  0.53358265587E+03  0.53608260187E+03  0.47000000000E+01 0. -1.
         -5    1    3    3    0  502  0.99727759817E+02 -0.14703811987E+02  0.14325014362E+04  0.14360516296E+04  0.47000000000E+01 0. -1.
        -11    1    1    2    0    0 -0.31432475612E+02 -0.19657972939E+02  0.20929165111E+03  0.21254983333E+03  0.00000000000E+00 0.  1.
         11    1    1    2    0    0 -0.38940172708E+02  0.76673636834E+02  0.25160806719E+03  0.26589810664E+03  0.00000000000E+00 0. -1.
<mgrwt>
<rscale>  0 0.14741167E+03</rscale>
<asrwt>0</asrwt>
<pdfrwt beam="2">  1        1 0.18152605E-02 0.15435922E+03</pdfrwt>
<pdfrwt beam="1">  1       -1 0.37519698E+00 0.15435922E+03</pdfrwt>
<totfact> 0.90546671E+01</totfact>
</mgrwt>
</event>
<event>
 7    1  0.8712071E-006  0.1367514E+03  0.7546771E-02  0.1230309E+00
         -1   -1    0    0    0  501 -0.00000000000E+00  0.00000000000E+00  0.77998597389E+03  0.77998597389E+03  0.00000000000E+00 0.  1.
          1   -1    0    0  501    0  0.00000000000E+00 -0.00000000000E+00 -0.20517716841E+02  0.20517716841E+02  0.00000000000E+00 0. -1.
         23    2    1    2    0    0  0.59847616031E+01  0.55128109819E+02  0.54064202871E+03  0.55766902311E+03  0.12500404098E+03 0.  0.
          5    1    3    3  502    0 -0.28617641323E+02 -0.24446226202E+02  0.75645250822E+02  0.84621990891E+02  0.47000000000E+01 0. -1.
         -5    1    3    3    0  502  0.34602402926E+02  0.79574336021E+02  0.46499677789E+03  0.47304703222E+03  0.47000000000E+01 0. -1.
        -11    1    1    2    0    0 -0.14299035465E+01 -0.78133170817E+02  0.19146315996E+03  0.20679695023E+03  0.00000000000E+00 0.  1.
         11    1    1    2    0    0 -0.45548580565E+01  0.23005060998E+02  0.27363068384E+02  0.36037717392E+02  0.00000000000E+00 0. -1.
<mgrwt>
<rscale>  0 0.12809572E+03</rscale>
<asrwt>0</asrwt>
<pdfrwt beam="2">  1        1 0.31565724E-02 0.13675137E+03</pdfrwt>
<pdfrwt beam="1">  1       -1 0.11999782E+00 0.13675137E+03</pdfrwt>
<totfact> 0.20358091E+03</totfact>
</mgrwt>
</event>
<event>
 7    1  0.8712071E-006  0.1999641E+03  0.7546771E-02  0.1154076E+00
         -2   -1    0    0    0  501 -0.00000000000E+00  0.00000000000E+00  0.15644073363E+03  0.15644073363E+03  0.00000000000E+00 0.  1.
          2   -1    0    0  501    0  0.00000000000E+00 -0.00000000000E+00 -0.28463081660E+03  0.28463081660E+03  0.00000000000E+00 0. -1.
         23    2    1    2    0    0 -0.35135370382E+02  0.15207163004E+03  0.28457123908E+02  0.20197882088E+03  0.12500144505E+03 0.  0.
          5    1    3    3  502    0 -0.42896995413E+02  0.11806425873E+03 -0.34058546666E+02  0.13023592440E+03  0.47000000000E+01 0.  1.
         -5    1    3    3    0  502  0.77616250305E+01  0.34007371316E+02  0.62515670575E+02  0.71742896473E+02  0.47000000000E+01 0.  1.
        -11    1    1    2    0    0  0.56589330877E+02 -0.52183221286E+02 -0.52336821693E+02  0.93083746475E+02  0.00000000000E+00 0.  1.
         11    1    1    2    0    0 -0.21453960495E+02 -0.99888408757E+02 -0.10431038518E+03  0.14600898288E+03  0.00000000000E+00 0. -1.
<mgrwt>
<rscale>  0 0.19494456E+03</rscale>
<asrwt>0</asrwt>
<pdfrwt beam="2">  1        2 0.43789356E-01 0.19996409E+03</pdfrwt>
<pdfrwt beam="1">  1       -2 0.24067805E-01 0.19996409E+03</pdfrwt>
<totfact> 0.17443278E+03</totfact>
</mgrwt>
</event>
<event>
 7    1  0.8712071E-006  0.1283858E+03  0.7546771E-02  0.1244090E+00
         -2   -1    0    0    0  501 -0.00000000000E+00  0.00000000000E+00  0.41897533968E+02  0.41897533968E+02  0.00000000000E+00 0. -1.
          2   -1    0    0  501    0  0.00000000000E+00 -0.00000000000E+00 -0.39074780782E+03  0.39074780782E+03  0.00000000000E+00 0.  1.
         23    2    1    2    0    0  0.27434536116E+02 -0.10223189466E+02 -0.90656669841E+02  0.15716722811E+03  0.12500295368E+03 0.  0.
          5    1    3    3  502    0  0.61968074692E+02 -0.46185743634E+02 -0.45958459135E+02  0.90041296982E+02  0.47000000000E+01 0.  1.
         -5    1    3    3    0  502 -0.34533538576E+02  0.35962554168E+02 -0.44698210706E+02  0.67125931124E+02  0.47000000000E+01 0.  1.
        -11    1    1    2    0    0  0.30884128008E+02  0.11724860923E+00 -0.13910244184E+03  0.14248976256E+03  0.00000000000E+00 0.  1.
         11    1    1    2    0    0 -0.58318664124E+02  0.10105940857E+02 -0.11909116217E+03  0.13298835112E+03  0.00000000000E+00 0. -1.
<mgrwt>
<rscale>  0 0.11939993E+03</rscale>
<asrwt>0</asrwt>
<pdfrwt beam="2">  1        2 0.60115048E-01 0.12838577E+03</pdfrwt>
<pdfrwt beam="1">  1       -2 0.64457744E-02 0.12838577E+03</pdfrwt>
<totfact> 0.10250979E+04</totfact>
</mgrwt>
</event>
<event>
 7    1  0.8712071E-006  0.1565116E+03  0.7546771E-02  0.1199849E+00
         -2   -1    0    0    0  501 -0.00000000000E+00  0.00000000000E+00  0.22776410266E+02  0.22776410266E+02  0.00000000000E+00 0.  1.
          2   -1    0    0  501    0  0.00000000000E+00 -0.00000000000E+00 -0.92596212006E+03  0.92596212006E+03  0.00000000000E+00 0. -1.
         23    2    1    2    0    0  0.89162143869E+02  0.30322219139E+02 -0.49855114789E+03  0.52254102974E+03  0.12500622313E+03 0.  0.
          5    1    3    3  502    0  0.54506920700E+02  0.16350161908E+02 -0.47435162405E+03  0.47777597830E+03  0.47000000000E+01 0. -1.
         -5    1    3    3    0  502  0.34655223169E+02  0.13972057231E+02 -0.24199523838E+02  0.44765051437E+02  0.47000000000E+01 0. -1.
        -11    1    1    2    0    0 -0.95356987218E+02  0.32704691509E+01 -0.33945473661E+03  0.35260908835E+03  0.00000000000E+00 0. -1.
         11    1    1    2    0    0  0.61948433491E+01 -0.33592688290E+02 -0.65179825300E+02  0.73588412245E+02  0.00000000000E+00 0.  1.
<mgrwt>
<rscale>  0 0.15050903E+03</rscale>
<asrwt>0</asrwt>
<pdfrwt beam="2">  1        2 0.14245572E+00 0.15651160E+03</pdfrwt>
<pdfrwt beam="1">  1       -2 0.35040629E-02 0.15651160E+03</pdfrwt>
<totfact> 0.95259733E+03</totfact>
</mgrwt>
</event>
<event>
 7    1  0.8712071E-006  0.1348679E+03  0.7546771E-02  0.1233627E+00
          2   -1    0    0  501    0  0.00000000000E+00  0.00000000000E+00  0.23916400464E+03  0.23916400464E+03  0.00000000000E+00 0. -1.
         -2   -1    0    0    0  501 -0.00000000000E+00 -0.00000000000E+00 -0.68390480530E+02  0.68390480530E+02  0.00000000000E+00 0.  1.
         23    2    1    2    0    0 -0.45332019662E+02  0.19625615289E+02  0.38586597551E+02  0.14027928688E+03  0.12549580087E+03 0.  0.
          5    1    3    3  502    0 -0.19601471405E+02  0.16675769511E+02  0.83895321878E+02  0.87879542574E+02  0.47000000000E+01 0. -1.
         -5    1    3    3    0  502 -0.25730548257E+02  0.29498457785E+01 -0.45308724327E+02  0.52399744311E+02  0.47000000000E+01 0. -1.
        -11    1    1    2    0    0 -0.65128078536E+01  0.29997258423E+02  0.41889843433E+02  0.51932756155E+02  0.00000000000E+00 0. -1.
         11    1    1    2    0    0  0.51844827516E+02 -0.49622873712E+02  0.90297083129E+02  0.11534244213E+03  0.00000000000E+00 0.  1.
<mgrwt>
<rscale>  0 0.12592717E+03</rscale>
<asrwt>0</asrwt>
<pdfrwt beam="1">  1        2 0.36794462E-01 0.13486791E+03</pdfrwt>
<pdfrwt beam="2">  1       -2 0.10521613E-01 0.13486791E+03</pdfrwt>
<totfact> 0.81147012E+03</totfact>
</mgrwt>
</event>
<event>
 7    1  0.8712071E-006  0.1519708E+03  0.7546771E-02  0.1202490E+00
         -1   -1    0    0    0  501 -0.00000000000E+00  0.00000000000E+00  0.30857163720E+03  0.30857163720E+03  0.00000000000E+00 0.  1.
          1   -1    0    0  501    0  0.00000000000E+00 -0.00000000000E+00 -0.35585341444E+03  0.35585341444E+03  0.00000000000E+00 0. -1.
         23    2    1    2    0    0  0.62651853951E+02 -0.80607693531E+02  0.27478490718E+03  0.31400936613E+03  0.11257122966E+03 0.  0.
          5    1    3    3  502    0 -0.21724151116E+02 -0.54935827594E+02  0.14864880332E+03  0.16002637478E+03  0.47000000000E+01 0. -1.
         -5    1    3    3    0  502  0.84376005067E+02 -0.25671865936E+02  0.12613610385E+03  0.15398299136E+03  0.47000000000E+01 0.  1.
        -11    1    1    2    0    0 -0.22051501119E+02 -0.11767931272E+02 -0.20219061974E+02  0.32149080471E+02  0.00000000000E+00 0.  1.
         11    1    1    2    0    0 -0.40600352832E+02  0.92375624803E+02 -0.30184762245E+03  0.31826660504E+03  0.00000000000E+00 0. -1.
<mgrwt>
<rscale>  0 0.14837049E+03</rscale>
<asrwt>0</asrwt>
<pdfrwt beam="2">  1        1 0.54746679E-01 0.15197084E+03</pdfrwt>
<pdfrwt beam="1">  1       -1 0.47472560E-01 0.15197084E+03</pdfrwt>
<totfact> 0.32413831E+02</totfact>
</mgrwt>
</event>
<event>
 7    1  0.8712071E-006  0.1295502E+03  0.7546771E-02  0.1242500E+00
          3   -1    0    0  501    0  0.00000000000E+00  0.00000000000E+00  0.78877055666E+02  0.78877055666E+02  0.00000000000E+00 0. -1.
         -3   -1    0    0    0  501 -0.00000000000E+00 -0.00000000000E+00 -0.17053984623E+03  0.17053984623E+03  0.00000000000E+00 0.  1.
         23    2    1    2    0    0  0.18719436827E+02  0.28302057459E+02 -0.79817564620E+02  0.15216469911E+03  0.12502731007E+03 0.  0.
          5    1    3    3  502    0  0.28970787189E+02  0.58378949299E+02 -0.96054792586E+02  0.11617237800E+03  0.47000000000E+01 0. -1.
         -5    1    3    3    0  502 -0.10251350362E+02 -0.30076891840E+02  0.16237227966E+02  0.35992321112E+02  0.47000000000E+01 0. -1.
        -11    1    1    2    0    0  0.15128140869E+01 -0.13138024064E+02  0.38612225702E+02  0.40814216352E+02  0.00000000000E+00 0. -1.
         11    1    1    2    0    0 -0.20232250914E+02 -0.15164033395E+02 -0.50457451640E+02  0.56437986427E+02  0.00000000000E+00 0.  1.
<mgrwt>
<rscale>  0 0.12036273E+03</rscale>
<asrwt>0</asrwt>
<pdfrwt beam="1">  1        3 0.12134932E-01 0.12955019E+03</pdfrwt>
<pdfrwt beam="2">  1       -3 0.26236899E-01 0.12955019E+03</pdfrwt>
<totfact> 0.16702077E+03</totfact>
</mgrwt>
</event>
<event>
 7    1  0.8712071E-006  0.1309086E+03  0.7546771E-02  0.1239568E+00
         -1   -1    0    0    0  501 -0.00000000000E+00  0.00000000000E+00  0.64100876913E+02  0.64100876913E+02  0.00000000000E+00 0.  1.
          1   -1    0    0  501    0  0.00000000000E+00 -0.00000000000E+00 -0.20953747255E+03  0.20953747255E+03  0.00000000000E+00 0. -1.
         23    2    1    2    0    0  0.31664183485E+02 -0.22555302776E+02 -0.98446925442E+02  0.16379515550E+03  0.12500277451E+03 0.  0.
          5    1    3    3  502    0 -0.44422033191E+02 -0.12737728705E+01 -0.62588493012E+02  0.76904804711E+02  0.47000000000E+01 0.  1.
         -5    1    3    3    0  502  0.76086216676E+02 -0.21281529905E+02 -0.35858432430E+02  0.86890350785E+02  0.47000000000E+01 0.  1.
        -11    1    1    2    0    0  0.25162728967E+02 -0.15076167849E+02 -0.49075123587E+01  0.29741174214E+02  0.00000000000E+00 0.  1.
         11    1    1    2    0    0 -0.56826912452E+02  0.37631470625E+02 -0.42082157832E+02  0.80102019750E+02  0.00000000000E+00 0. -1.
<mgrwt>
<rscale>  0 0.12216503E+03</rscale>
<asrwt>0</asrwt>
<pdfrwt beam="2">  1        1 0.32236534E-01 0.13090858E+03</pdfrwt>
<pdfrwt beam="1">  1       -1 0.98616734E-02 0.13090858E+03</pdfrwt>
<totfact> 0.81302841E+03</totfact>
</mgrwt>
</event>
<event>
 7    1  0.8712071E-006  0.1320856E+03  0.7546771E-02  0.1237867E+00
          1   -1    0    0  501    0  0.00000000000E+00  0.00000000000E+00  0.26429325947E+03  0.26429325947E+03  0.00000000000E+00 0. -1.
         -1   -1    0    0    0  501 -0.00000000000E+00 -0.00000000000E+00 -0.54034718159E+02  0.54034718159E+02  0.00000000000E+00 0.  1.
         23    2    1    2    0    0 -0.31111490113E+02  0.29753279403E+02  0.81286175770E+02  0.15509364574E+03  0.12487359259E+03 0.  0.
          5    1    3    3  502    0 -0.10313892565E+02  0.37128188930E+02  0.11111067088E+03  0.11769685627E+03  0.47000000000E+01 0.  1.
         -5    1    3    3    0  502 -0.20797597548E+02 -0.73749095276E+01 -0.29824495107E+02  0.37396789471E+02  0.47000000000E+01 0.  1.
        -11    1    1    2    0    0  0.62029494230E+02 -0.30500482668E+02  0.88134780770E+02  0.11200748716E+03  0.00000000000E+00 0.  1.
         11    1    1    2    0    0 -0.30918004118E+02  0.74720326558E+00  0.40837584767E+02  0.51226844729E+02  0.00000000000E+00 0. -1.
<mgrwt>
<rscale>  0 0.12322656E+03</rscale>
<asrwt>0</asrwt>
<pdfrwt beam="1">  1        1 0.40660501E-01 0.13208557E+03</pdfrwt>
<pdfrwt beam="2">  1       -1 0.83130337E-02 0.13208557E+03</pdfrwt>
<totfact> 0.79112864E+03</totfact>
</mgrwt>
</event>
<event>
 7    1  0.8712071E-006  0.1141867E+03  0.7546771E-02  0.1262329E+00
         -1   -1    0    0    0  501 -0.00000000000E+00  0.00000000000E+00  0.46194212669E+03  0.46194212669E+03  0.00000000000E+00 0.  1.
          1   -1    0    0  501    0  0.00000000000E+00 -0.00000000000E+00 -0.31129706483E+02  0.31129706483E+02  0.00000000000E+00 0. -1.
         23    2    1    2    0    0  0.26227639157E+02  0.49542966684E+01  0.35062561747E+03  0.36875048942E+03  0.11102326653E+03 0.  0.
          5    1    3    3  502    0 -0.23955584978E+02  0.14330664363E+02  0.21217426411E+02  0.35376647329E+02  0.47000000000E+01 0. -1.
         -5    1    3    3    0  502  0.50183224135E+02 -0.93763676944E+01  0.32940819106E+03  0.33337384210E+03  0.47000000000E+01 0.  1.
        -11    1    1    2    0    0  0.16514475148E+01 -0.45645606799E+02  0.38026825026E+02  0.59433055790E+02  0.00000000000E+00 0.  1.
         11    1    1    2    0    0 -0.27879086672E+02  0.40691310131E+02  0.42159977709E+02  0.64888287958E+02  0.00000000000E+00 0. -1.
<mgrwt>
<rscale>  0 0.10905555E+03</rscale>
<asrwt>0</asrwt>
<pdfrwt beam="2">  1        1 0.47891859E-02 0.11418669E+03</pdfrwt>
<pdfrwt beam="1">  1       -1 0.71068015E-01 0.11418669E+03</pdfrwt>
<totfact> 0.34937226E+03</totfact>
</mgrwt>
</event>
<event>
 7    1  0.8712071E-006  0.1632995E+03  0.7546771E-02  0.1192410E+00
          1   -1    0    0  501    0  0.00000000000E+00  0.00000000000E+00  0.12677363012E+03  0.12677363012E+03  0.00000000000E+00 0. -1.
         -1   -1    0    0    0  501 -0.00000000000E+00 -0.00000000000E+00 -0.19017221693E+03  0.19017221693E+03  0.00000000000E+00 0.  1.
         23    2    1    2    0    0 -0.38567263694E+02  0.97821214843E+02 -0.71042287324E+02  0.17808353761E+03  0.12494124970E+03 0.  0.
          5    1    3    3  502    0  0.43342300966E+02  0.13478315925E+02 -0.19413898362E+02  0.49590417450E+02  0.47000000000E+01 0.  1.
         -5    1    3    3    0  502 -0.81909564661E+02  0.84342898918E+02 -0.51628388962E+02  0.12849312016E+03  0.47000000000E+01 0.  1.
        -11    1    1    2    0    0 -0.47751404290E+01 -0.49454265212E+02  0.42296970253E+02  0.65249980892E+02  0.00000000000E+00 0. -1.
         11    1    1    2    0    0  0.43342404123E+02 -0.48366949631E+02 -0.34653269739E+02  0.73612328556E+02  0.00000000000E+00 0.  1.
<mgrwt>
<rscale>  0 0.15675452E+03</rscale>
<asrwt>0</asrwt>
<pdfrwt beam="1">  1        1 0.19503636E-01 0.16329954E+03</pdfrwt>
<pdfrwt beam="2">  1       -1 0.29257264E-01 0.16329954E+03</pdfrwt>
<totfact> 0.27467560E+03</totfact>
</mgrwt>
</event>
<event>
 7    1  0.8712071E-006  0.1489129E+03  0.7546771E-02  0.1211258E+00
          2   -1    0    0  501    0  0.00000000000E+00  0.00000000000E+00  0.86509415965E+03  0.86509415965E+03  0.00000000000E+00 0. -1.
         -2   -1    0    0    0  501 -0.00000000000E+00 -0.00000000000E+00 -0.21143336557E+02  0.21143336557E+02  0.00000000000E+00 0.  1.
         23    2    1    2    0    0  0.71231494954E+01  0.80613255136E+02  0.46527739673E+03  0.48852647754E+03  0.12500330872E+03 0.  0.
          5    1    3    3  502    0 -0.26859736705E+02  0.97918273269E+02  0.25045295210E+03  0.27029281329E+03  0.47000000000E+01 0.  1.
         -5    1    3    3    0  502  0.33982886200E+02 -0.17305018133E+02  0.21482444462E+03  0.21823366426E+03  0.47000000000E+01 0.  1.
        -11    1    1    2    0    0 -0.29225427060E+02 -0.91536849653E+02  0.28103783900E+03  0.29701075298E+03  0.00000000000E+00 0.  1.
         11    1    1    2    0    0  0.22102277565E+02  0.10923594517E+02  0.97635587361E+02  0.10070026569E+03  0.00000000000E+00 0. -1.
<mgrwt>
<rscale>  0 0.14155018E+03</rscale>
<asrwt>0</asrwt>
<pdfrwt beam="1">  1        2 0.13309138E+00 0.14891294E+03</pdfrwt>
<pdfrwt beam="2">  1       -2 0.32528217E-02 0.14891294E+03</pdfrwt>
<totfact> 0.11593249E+04</totfact>
</mgrwt>
</event>
<event>
 7    1  0.8712071E-006  0.1999233E+03  0.7546771E-02  0.1154178E+00
         -2   -1    0    0    0  501 -0.00000000000E+00  0.00000000000E+00  0.30002764587E+02  0.30002764587E+02  0.00000000000E+00 0.  1.
          2   -1    0    0  501    0  0.00000000000E+00 -0.00000000000E+00 -0.13449751451E+04  0.13449751451E+04  0.00000000000E+00 0. -1.
         23    2    1    2    0    0 -0.20398743646E+02  0.15469909963E+03 -0.46609764860E+03  0.50716502277E+03  0.12498568770E+03 0.  0.
          5    1    3    3  502    0  0.12249625785E+02  0.13588399265E+02 -0.22554415941E+03  0.22633372654E+03  0.47000000000E+01 0.  1.
         -5    1    3    3    0  502 -0.32648369431E+02  0.14111070036E+03 -0.24055348919E+03  0.28083129624E+03  0.47000000000E+01 0.  1.
        -11    1    1    2    0    0 -0.25358592475E+02 -0.10192049765E+03 -0.60838026375E+03  0.61737945493E+03  0.00000000000E+00 0. -1.
         11    1    1    2    0    0  0.45757336121E+02 -0.52778601979E+02 -0.24049446819E+03  0.25043343201E+03  0.00000000000E+00 0.  1.
<mgrwt>
<rscale>  0 0.19482794E+03</rscale>
<asrwt>0</asrwt>
<pdfrwt beam="2">  1        2 0.20691926E+00 0.19992334E+03</pdfrwt>
<pdfrwt beam="1">  1       -2 0.46158097E-02 0.19992334E+03</pdfrwt>
<totfact> 0.36485317E+03</totfact>
</mgrwt>
</event>
<event>
 7    1  0.8712071E-006  0.1475572E+03  0.7546771E-02  0.1213499E+00
         -2   -1    0    0    0  501 -0.00000000000E+00  0.00000000000E+00  0.48957594919E+02  0.48957594919E+02  0.00000000000E+00 0.  1.
          2   -1    0    0  501    0  0.00000000000E+00 -0.00000000000E+00 -0.44065856836E+03  0.44065856836E+03  0.00000000000E+00 0. -1.
         23    2    1    2    0    0 -0.46954613986E+02 -0.62798191277E+02 -0.11090106409E+03  0.18458648975E+03  0.12499911032E+03 0.  0.
          5    1    3    3  502    0 -0.54674237713E+02 -0.78747105005E+02 -0.12768149709E+03  0.15973425905E+03  0.47000000000E+01 0.  1.
         -5    1    3    3    0  502  0.77196237263E+01  0.15948913728E+02  0.16780432992E+02  0.24852230704E+02  0.47000000000E+01 0.  1.
        -11    1    1    2    0    0  0.45800617555E+02  0.33370240096E+02 -0.26618867958E+03  0.27215378488E+03  0.00000000000E+00 0. -1.
         11    1    1    2    0    0  0.11539964314E+01  0.29427951180E+02 -0.14611229768E+02  0.32875888639E+02  0.00000000000E+00 0.  1.
<mgrwt>
<rscale>  0 0.13987347E+03</rscale>
<asrwt>0</asrwt>
<pdfrwt beam="2">  1        2 0.67793625E-01 0.14755720E+03</pdfrwt>
<pdfrwt beam="1">  1       -2 0.75319378E-02 0.14755720E+03</pdfrwt>
<totfact> 0.71657753E+03</totfact>
</mgrwt>
</event>
<event>
 7    1  0.8712071E-006  0.1225038E+03  0.7546771E-02  0.1251235E+00
         -1   -1    0    0    0  501 -0.00000000000E+00  0.00000000000E+00  0.80395841028E+03  0.80395841028E+03  0.00000000000E+00 0.  1.
          1   -1    0    0  501    0  0.00000000000E+00 -0.00000000000E+00 -0.15192427435E+02  0.15192427435E+02  0.00000000000E+00 0. -1.
         23    2    1    2    0    0 -0.39257240470E+01  0.28331250130E+02  0.50522223489E+03  0.51986218743E+03  0.11911807691E+03 0.  0.
          5    1    3    3  502    0  0.47023803562E+02 -0.15396589947E+00  0.10207624442E+03  0.11248516116E+03  0.47000000000E+01 0. -1.
         -5    1    3    3    0  502 -0.50949527609E+02  0.28485216030E+02  0.40314599047E+03  0.40737702627E+03  0.47000000000E+01 0.  1.
        -11    1    1    2    0    0 -0.35772302118E+02 -0.16784645045E+01  0.19867798600E+03  0.20187970914E+03  0.00000000000E+00 0.  1.
         11    1    1    2    0    0  0.39698026165E+02 -0.26652785626E+02  0.84865761952E+02  0.97408941143E+02  0.00000000000E+00 0. -1.
<mgrwt>
<rscale>  0 0.11519873E+03</rscale>
<asrwt>0</asrwt>
<pdfrwt beam="2">  1        1 0.23372971E-02 0.12250383E+03</pdfrwt>
<pdfrwt beam="1">  1       -1 0.12368588E+00 0.12250383E+03</pdfrwt>
<totfact> 0.28565429E+03</totfact>
</mgrwt>
</event>
<event>
 7    1  0.8712071E-006  0.1936261E+03  0.7546771E-02  0.1159739E+00
          2   -1    0    0  501    0  0.00000000000E+00  0.00000000000E+00  0.69926503465E+03  0.69926503465E+03  0.00000000000E+00 0. -1.
         -2   -1    0    0    0  501 -0.00000000000E+00 -0.00000000000E+00 -0.48635664110E+02  0.48635664110E+02  0.00000000000E+00 0.  1.
         23    2    1    2    0    0  0.19775224238E+02 -0.14654884388E+03  0.36915100628E+03  0.41684953502E+03  0.12499378491E+03 0.  0.
          5    1    3    3  502    0 -0.32696811117E+02 -0.13003506003E+03  0.21852765068E+03  0.25642664138E+03  0.47000000000E+01 0. -1.
         -5    1    3    3    0  502  0.52472035354E+02 -0.16513783850E+02  0.15062335560E+03  0.16042289364E+03  0.47000000000E+01 0. -1.
        -11    1    1    2    0    0  0.14485756915E+02  0.11566524468E+03  0.13963392918E+03  0.18189535497E+03  0.00000000000E+00 0.  1.
         11    1    1    2    0    0 -0.34260981153E+02  0.30883599199E+02  0.14184443508E+03  0.14915580878E+03  0.00000000000E+00 0. -1.
<mgrwt>
<rscale>  0 0.18859025E+03</rscale>
<asrwt>0</asrwt>
<pdfrwt beam="1">  1        2 0.10757923E+00 0.19362611E+03</pdfrwt>
<pdfrwt beam="2">  1       -2 0.74824104E-02 0.19362611E+03</pdfrwt>
<totfact> 0.43464620E+03</totfact>
</mgrwt>
</event>
<event>
 7    1  0.8712071E-006  0.1256414E+03  0.7546771E-02  0.1249142E+00
         -2   -1    0    0    0  501 -0.00000000000E+00  0.00000000000E+00  0.15976513205E+02  0.15976513205E+02  0.00000000000E+00 0. -1.
          2   -1    0    0  501    0  0.00000000000E+00 -0.00000000000E+00 -0.74537632856E+03  0.74537632856E+03  0.00000000000E+00 0.  1.
         23    2    1    2    0    0 -0.22735532684E+01  0.12450649595E+02 -0.41417322883E+03  0.43281085485E+03  0.12500233948E+03 0.  0.
          5    1    3    3  502    0  0.98707652088E+01 -0.50134209062E+02 -0.27380800994E+03  0.27857456314E+03  0.47000000000E+01 0. -1.
         -5    1    3    3    0  502 -0.12144318477E+02  0.62584858657E+02 -0.14036521889E+03  0.15423629170E+03  0.47000000000E+01 0. -1.
        -11    1    1    2    0    0  0.23571069785E+02 -0.39430547347E+02 -0.25578540540E+03  0.25987792713E+03  0.00000000000E+00 0.  1.
         11    1    1    2    0    0 -0.21297516517E+02  0.26979897753E+02 -0.59441181133E+02  0.68664059791E+02  0.00000000000E+00 0. -1.
<mgrwt>
<rscale>  0 0.11640863E+03</rscale>
<asrwt>0</asrwt>
<pdfrwt beam="2">  1        2 0.11467326E+00 0.12564144E+03</pdfrwt>
<pdfrwt beam="1">  1       -2 0.24579257E-02 0.12564144E+03</pdfrwt>
<totfact> 0.20802624E+04</totfact>
</mgrwt>
</event>
<event>
 7    1  0.8712071E-006  0.1438949E+03  0.7546771E-02  0.1218532E+00
         -4   -1    0    0    0  501 -0.00000000000E+00  0.00000000000E+00  0.93369095813E+02  0.93369095813E+02  0.00000000000E+00 0.  1.
          4   -1    0    0  501    0  0.00000000000E+00 -0.00000000000E+00 -0.18844310654E+03  0.18844310654E+03  0.00000000000E+00 0. -1.
         23    2    1    2    0    0  0.70782534709E+02  0.84971548356E+01 -0.23152693076E+02  0.14574564151E+03  0.12499350368E+03 0.  0.
          5    1    3    3  502    0  0.63884852170E+02  0.51515166990E+02  0.19619578210E+02  0.84510973346E+02  0.47000000000E+01 0. -1.
         -5    1    3    3    0  502  0.68976825382E+01 -0.43018012154E+02 -0.42772271286E+02  0.61234668163E+02  0.47000000000E+01 0. -1.
        -11    1    1    2    0    0 -0.51861205271E+02 -0.20121019016E+02 -0.91089065542E+02  0.10673170981E+03  0.00000000000E+00 0. -1.
         11    1    1    2    0    0 -0.18921329438E+02  0.11623864180E+02  0.19167747887E+02  0.29334851035E+02  0.00000000000E+00 0.  1.
<mgrwt>
<rscale>  0 0.13620228E+03</rscale>
<asrwt>0</asrwt>
<pdfrwt beam="2">  1        4 0.28991247E-01 0.14389491E+03</pdfrwt>
<pdfrwt beam="1">  1       -4 0.14364476E-01 0.14389491E+03</pdfrwt>
<totfact> 0.77209459E+02</totfact>
</mgrwt>
</event>
<event>
 7    1  0.8712071E-006  0.1397168E+03  0.7546771E-02  0.1223506E+00
          1   -1    0    0  501    0  0.00000000000E+00  0.00000000000E+00  0.54190310515E+02  0.54190310515E+02  0.00000000000E+00 0. -1.
         -1   -1    0    0    0  501 -0.00000000000E+00 -0.00000000000E+00 -0.30117468922E+03  0.30117468922E+03  0.00000000000E+00 0.  1.
         23    2    1    2    0    0  0.61733192199E+02 -0.92212398358E+01 -0.15858911366E+03  0.21135582620E+03  0.12499904004E+03 0.  0.
          5    1    3    3  502    0  0.82785301700E+02  0.22224339810E+02 -0.57525023271E+02  0.10333704931E+03  0.47000000000E+01 0. -1.
         -5    1    3    3    0  502 -0.21052109501E+02 -0.31445579646E+02 -0.10106409039E+03  0.10801877689E+03  0.47000000000E+01 0. -1.
        -11    1    1    2    0    0 -0.40836487171E+02  0.32906021781E+02 -0.97867764946E+02  0.11103388838E+03  0.00000000000E+00 0.  1.
         11    1    1    2    0    0 -0.20896705027E+02 -0.23684781945E+02  0.94724999027E+01  0.32975285157E+02  0.00000000000E+00 0. -1.
<mgrwt>
<rscale>  0 0.13269816E+03</rscale>
<asrwt>0</asrwt>
<pdfrwt beam="1">  1        1 0.83369707E-02 0.13971678E+03</pdfrwt>
<pdfrwt beam="2">  1       -1 0.46334569E-01 0.13971678E+03</pdfrwt>
<totfact> 0.37364705E+03</totfact>
</mgrwt>
</event>
<event>
 7    1  0.8712071E-006  0.1381175E+03  0.7546771E-02  0.1227644E+00
          2   -1    0    0  501    0  0.00000000000E+00  0.00000000000E+00  0.57318718063E+02  0.57318718063E+02  0.00000000000E+00 0. -1.
         -2   -1    0    0    0  501 -0.00000000000E+00 -0.00000000000E+00 -0.36692690394E+03  0.36692690394E+03  0.00000000000E+00 0.  1.
         23    2    1    2    0    0 -0.27594429867E+02  0.51934494665E+02 -0.28011041847E+03  0.31231120084E+03  0.12497117803E+03 0.  0.
          5    1    3    3  502    0 -0.72541027390E+02  0.51904115460E+02 -0.21721982951E+03  0.23486758438E+03  0.47000000000E+01 0. -1.
         -5    1    3    3    0  502  0.44946597523E+02  0.30379204974E-01 -0.62890588958E+02  0.77443616466E+02  0.47000000000E+01 0. -1.
        -11    1    1    2    0    0  0.29643719152E+02  0.20139166432E+02 -0.11183211670E+02  0.37541980941E+02  0.00000000000E+00 0.  1.
         11    1    1    2    0    0 -0.20492892852E+01 -0.72073661098E+02 -0.18314555740E+02  0.74392440225E+02  0.00000000000E+00 0. -1.
<mgrwt>
<rscale>  0 0.12987336E+03</rscale>
<asrwt>0</asrwt>
<pdfrwt beam="1">  1        2 0.88182644E-02 0.13811748E+03</pdfrwt>
<pdfrwt beam="2">  1       -2 0.56450293E-01 0.13811748E+03</pdfrwt>
<totfact> 0.21745314E+03</totfact>
</mgrwt>
</event>
<event>
 7    1  0.8712071E-006  0.1294074E+03  0.7546771E-02  0.1238923E+00
          1   -1    0    0  501    0  0.00000000000E+00  0.00000000000E+00  0.52439398794E+03  0.52439398794E+03  0.00000000000E+00 0. -1.
         -1   -1    0    0    0  501 -0.00000000000E+00 -0.00000000000E+00 -0.27039000749E+02  0.27039000749E+02  0.00000000000E+00 0.  1.
         23    2    1    2    0    0 -0.33608455911E+02 -0.18357481017E+01  0.22087962814E+03  0.25599625322E+03  0.12495348437E+03 0.  0.
          5    1    3    3  502    0 -0.37373873715E+02  0.21281498400E+01  0.28373967555E+01  0.37834855339E+02  0.47000000000E+01 0. -1.
         -5    1    3    3    0  502  0.37654178033E+01 -0.39638979417E+01  0.21804223139E+03  0.21816139788E+03  0.47000000000E+01 0. -1.
        -11    1    1    2    0    0 -0.32641368270E+02 -0.76358139565E+00  0.52231705001E+02  0.61597020921E+02  0.00000000000E+00 0.  1.
         11    1    1    2    0    0  0.66249824181E+02  0.25993294973E+01  0.22424365405E+03  0.23383971454E+03  0.00000000000E+00 0. -1.
<mgrwt>
<rscale>  0 0.12256577E+03</rscale>
<asrwt>0</asrwt>
<pdfrwt beam="1">  1        1 0.80675991E-01 0.12940739E+03</pdfrwt>
<pdfrwt beam="2">  1       -1 0.41598467E-02 0.12940739E+03</pdfrwt>
<totfact> 0.93406509E+03</totfact>
</mgrwt>
</event>
<event>
 7    1  0.8712071E-006  0.1370258E+03  0.7546771E-02  0.1229178E+00
          3   -1    0    0  501    0  0.00000000000E+00  0.00000000000E+00  0.88303884250E+02  0.88303884250E+02  0.00000000000E+00 0. -1.
         -3   -1    0    0    0  501 -0.00000000000E+00 -0.00000000000E+00 -0.21504719636E+03  0.21504719636E+03  0.00000000000E+00 0.  1.
         23    2    1    2    0    0 -0.55633401072E+02  0.74334149665E+01 -0.13941781189E+03  0.19548243559E+03  0.12500290148E+03 0.  0.
          5    1    3    3  502    0  0.39685702679E+02  0.70512360813E+01 -0.31154733286E+02  0.51160359005E+02  0.47000000000E+01 0. -1.
         -5    1    3    3    0  502 -0.95319103752E+02  0.38217888520E+00 -0.10826307860E+03  0.14432207658E+03  0.47000000000E+01 0. -1.
        -11    1    1    2    0    0 -0.23111891188E+02  0.11060863289E+02 -0.18420104950E+01  0.25688425675E+02  0.00000000000E+00 0.  1.
         11    1    1    2    0    0  0.78745292261E+02 -0.18494278255E+02  0.14516510273E+02  0.82180219347E+02  0.00000000000E+00 0. -1.
<mgrwt>
<rscale>  0 0.12884594E+03</rscale>
<asrwt>0</asrwt>
<pdfrwt beam="1">  1        3 0.13585213E-01 0.13702575E+03</pdfrwt>
<pdfrwt beam="2">  1       -3 0.33084183E-01 0.13702575E+03</pdfrwt>
<totfact> 0.90855929E+02</totfact>
</mgrwt>
</event>
<event>
 7    1  0.8712071E-006  0.1618623E+03  0.7546771E-02  0.1194689E+00
          1   -1    0    0  501    0  0.00000000000E+00  0.00000000000E+00  0.11619950343E+04  0.11619950343E+04  0.00000000000E+00 0. -1.
         -1   -1    0    0    0  501 -0.00000000000E+00 -0.00000000000E+00 -0.19156964547E+02  0.19156964547E+02  0.00000000000E+00 0.  1.
         23    2    1    2    0    0 -0.47181235902E+02  0.91383873050E+02  0.67247055007E+03  0.69167625400E+03  0.12498927296E+03 0.  0.
          5    1    3    3  502    0  0.42562468009E+00  0.43439348158E+02  0.53796268123E+02  0.69305747155E+02  0.47000000000E+01 0.  1.
         -5    1    3    3    0  502 -0.47606860582E+02  0.47944524892E+02  0.61867428195E+03  0.62237050684E+03  0.47000000000E+01 0.  1.
        -11    1    1    2    0    0  0.47468367231E+02 -0.24670120986E+02  0.10263208499E+03  0.11573765864E+03  0.00000000000E+00 0.  1.
         11    1    1    2    0    0 -0.28713132938E+00 -0.66713752063E+02  0.36773543468E+03  0.37373808621E+03  0.00000000000E+00 0. -1.
<mgrwt>
<rscale>  0 0.15480566E+03</rscale>
<asrwt>0</asrwt>
<pdfrwt beam="1">  1        1 0.17876841E+00 0.16186229E+03</pdfrwt>
<pdfrwt beam="2">  1       -1 0.29472262E-02 0.16186229E+03</pdfrwt>
<totfact> 0.46500664E+03</totfact>
</mgrwt>
</event>
<event>
 7    1  0.8712071E-006  0.1625729E+03  0.7546771E-02  0.1193513E+00
          2   -1    0    0  501    0  0.00000000000E+00  0.00000000000E+00  0.14117318397E+02  0.14117318397E+02  0.00000000000E+00 0. -1.
         -2   -1    0    0    0  501 -0.00000000000E+00 -0.00000000000E+00 -0.16604039462E+04  0.16604039462E+04  0.00000000000E+00 0.  1.
         23    2    1    2    0    0  0.98947245466E+02  0.31862352111E+02 -0.10607595956E+04  0.10731453115E+04  0.12499669197E+03 0.  0.
          5    1    3    3  502    0 -0.11378897819E+02  0.37578177651E+02 -0.13112722851E+03  0.13695998980E+03  0.47000000000E+01 0.  1.
         -5    1    3    3    0  502  0.11032614329E+03 -0.57158255400E+01 -0.92963236709E+03  0.93618532166E+03  0.47000000000E+01 0.  1.
        -11    1    1    2    0    0 -0.10702834349E+03 -0.31862677617E+01 -0.47338972940E+03  0.48534838468E+03  0.00000000000E+00 0.  1.
         11    1    1    2    0    0  0.80810980278E+01 -0.28676084349E+02 -0.11213730277E+03  0.11602756842E+03  0.00000000000E+00 0. -1.
<mgrwt>
<rscale>  0 0.15580735E+03</rscale>
<asrwt>0</asrwt>
<pdfrwt beam="1">  1        2 0.21718950E-02 0.16257288E+03</pdfrwt>
<pdfrwt beam="2">  1       -2 0.25544677E+00 0.16257288E+03</pdfrwt>
<totfact> 0.32299142E+02</totfact>
</mgrwt>
</event>
<event>
 7    1  0.8712071E-006  0.3354984E+03  0.7546771E-02  0.1070011E+00
         -1   -1    0    0    0  501 -0.00000000000E+00  0.00000000000E+00  0.48263466914E+03  0.48263466914E+03  0.00000000000E+00 0.  1.
          1   -1    0    0  501    0  0.00000000000E+00 -0.00000000000E+00 -0.25346063558E+03  0.25346063558E+03  0.00000000000E+00 0. -1.
         23    2    1    2    0    0  0.13177647673E+03 -0.28208147946E+03  0.23922638008E+03  0.41205388669E+03  0.12499657491E+03 0.  0.
          5    1    3    3  502    0  0.10815274887E+03 -0.10021836292E+03  0.73447496163E+02  0.16479490905E+03  0.47000000000E+01 0. -1.
         -5    1    3    3    0  502  0.23623727865E+02 -0.18186311654E+03  0.16577888392E+03  0.24725897765E+03  0.47000000000E+01 0. -1.
        -11    1    1    2    0    0 -0.10453310585E+03  0.21207481859E+03  0.30956749907E+02  0.23845590633E+03  0.00000000000E+00 0.  1.
         11    1    1    2    0    0 -0.27243370880E+02  0.70006660868E+02 -0.41009096419E+02  0.85585511694E+02  0.00000000000E+00 0. -1.
<mgrwt>
<rscale>  0 0.33255667E+03</rscale>
<asrwt>0</asrwt>
<pdfrwt beam="2">  1        1 0.38993944E-01 0.33549835E+03</pdfrwt>
<pdfrwt beam="1">  1       -1 0.74251487E-01 0.33549835E+03</pdfrwt>
<totfact> 0.20683318E+02</totfact>
</mgrwt>
</event>
<event>
 7    1  0.8712071E-006  0.1312602E+03  0.7546771E-02  0.1238540E+00
          2   -1    0    0  501    0  0.00000000000E+00  0.00000000000E+00  0.36044333571E+03  0.36044333571E+03  0.00000000000E+00 0. -1.
         -2   -1    0    0    0  501 -0.00000000000E+00 -0.00000000000E+00 -0.40002534951E+02  0.40002534951E+02  0.00000000000E+00 0.  1.
         23    2    1    2    0    0  0.38489930017E+02  0.11021942144E+02  0.12815279987E+03  0.18344583945E+03  0.12500511180E+03 0.  0.
          5    1    3    3  502    0  0.44694919591E+02  0.53639255863E+02  0.29961428023E+02  0.76122156932E+02  0.47000000000E+01 0. -1.
         -5    1    3    3    0  502 -0.62049895742E+01 -0.42617313719E+02  0.98191371850E+02  0.10732368252E+03  0.47000000000E+01 0. -1.
        -11    1    1    2    0    0  0.27444891370E+02 -0.16718584013E+02  0.85818391722E+02  0.91638035070E+02  0.00000000000E+00 0.  1.
         11    1    1    2    0    0 -0.65934821387E+02  0.56966418690E+01  0.10646960917E+03  0.12536199614E+03  0.00000000000E+00 0. -1.
<mgrwt>
<rscale>  0 0.12280525E+03</rscale>
<asrwt>0</asrwt>
<pdfrwt beam="1">  1        2 0.55452819E-01 0.13126018E+03</pdfrwt>
<pdfrwt beam="2">  1       -2 0.61542364E-02 0.13126018E+03</pdfrwt>
<totfact> 0.12003848E+04</totfact>
</mgrwt>
</event>
<event>
 6    1  0.8712071E-006  0.2677073E+03  0.7546771E-02  0.1130107E+00
          1   -1    0    0  501    0  0.00000000000E+00  0.00000000000E+00  0.80580679908E+03  0.80580679908E+03  0.00000000000E+00 0. -1.
         -1   -1    0    0    0  501 -0.00000000000E+00 -0.00000000000E+00 -0.53371493123E+02  0.53371493123E+02  0.00000000000E+00 0.  1.
          5    1    1    2  502    0  0.12985315347E+03 -0.11112918393E+03  0.28989307338E+03  0.33655849563E+03  0.47000000000E+01 0. -1.
         -5    1    1    2    0  502 -0.24047447305E+02  0.89772298926E+02  0.10230706006E+03  0.13829739663E+03  0.47000000000E+01 0.  1.
        -11    1    1    2    0    0 -0.54156520618E+02  0.32070415810E+02  0.95444724990E+02  0.11432906815E+03  0.00000000000E+00 0.  1.
         11    1    1    2    0    0 -0.51649185551E+02 -0.10713530805E+02  0.26479044752E+03  0.26999333179E+03  0.00000000000E+00 0. -1.
<mgrwt>
<rscale>  0 0.22514160E+03</rscale>
<asrwt>0</asrwt>
<pdfrwt beam="1">  1        1 0.12397027E+00 0.26770725E+03</pdfrwt>
<pdfrwt beam="2">  1       -1 0.82109996E-02 0.26770725E+03</pdfrwt>
<totfact> 0.18830611E+03</totfact>
</mgrwt>
</event>
<event>
 7    1  0.8712071E-006  0.1629520E+03  0.7546771E-02  0.1192252E+00
         -3   -1    0    0    0  501 -0.00000000000E+00  0.00000000000E+00  0.11183169781E+03  0.11183169781E+03  0.00000000000E+00 0.  1.
          3   -1    0    0  501    0  0.00000000000E+00 -0.00000000000E+00 -0.23237944290E+03  0.23237944290E+03  0.00000000000E+00 0. -1.
         23    2    1    2    0    0 -0.21009864578E+02 -0.10240207532E+03 -0.56045190322E+01  0.16304839498E+03  0.12500307609E+03 0.  0.
          5    1    3    3  502    0 -0.51413250897E+02 -0.11442945181E+03 -0.19811873006E+02  0.12709060595E+03  0.47000000000E+01 0.  1.
         -5    1    3    3    0  502  0.30403386319E+02  0.12027376485E+02  0.14207353974E+02  0.35957789027E+02  0.47000000000E+01 0.  1.
        -11    1    1    2    0    0 -0.16743819671E+02  0.99401795510E+02 -0.94274361168E+02  0.13801712800E+03  0.00000000000E+00 0. -1.
         11    1    1    2    0    0  0.37753684250E+02  0.30002798104E+01 -0.20668864897E+02  0.43145617732E+02  0.00000000000E+00 0.  1.
<mgrwt>
<rscale>  0 0.15689135E+03</rscale>
<asrwt>0</asrwt>
<pdfrwt beam="2">  1        3 0.35750684E-01 0.16295204E+03</pdfrwt>
<pdfrwt beam="1">  1       -3 0.17204877E-01 0.16295204E+03</pdfrwt>
<totfact> 0.53656125E+02</totfact>
</mgrwt>
</event>
<event>
 7    1  0.8712071E-006  0.1967457E+03  0.7546771E-02  0.1156850E+00
         -2   -1    0    0    0  501 -0.00000000000E+00  0.00000000000E+00  0.26856714842E+03  0.26856714842E+03  0.00000000000E+00 0.  1.
          2   -1    0    0  501    0  0.00000000000E+00 -0.00000000000E+00 -0.15903267025E+03  0.15903267025E+03  0.00000000000E+00 0. -1.
         23    2    1    2    0    0 -0.27859805393E+02  0.14935934561E+03  0.14750617116E+03  0.24590025496E+03  0.12499792791E+03 0.  0.
          5    1    3    3  502    0  0.99048323066E+01  0.15444121006E+03  0.97950879063E+02  0.18321205685E+03  0.47000000000E+01 0. -1.
         -5    1    3    3    0  502 -0.37764637699E+02 -0.50818644473E+01  0.49555292099E+02  0.62688198106E+02  0.47000000000E+01 0. -1.
        -11    1    1    2    0    0 -0.48829812885E+01 -0.71875273802E+02  0.25393781112E+02  0.76385486904E+02  0.00000000000E+00 0.  1.
         11    1    1    2    0    0  0.32742786681E+02 -0.77484071810E+02 -0.63365474111E+02  0.10531407680E+03  0.00000000000E+00 0. -1.
<mgrwt>
<rscale>  0 0.19179761E+03</rscale>
<asrwt>0</asrwt>
<pdfrwt beam="2">  1        2 0.24466565E-01 0.19674569E+03</pdfrwt>
<pdfrwt beam="1">  1       -2 0.41318023E-01 0.19674569E+03</pdfrwt>
<totfact> 0.12236953E+03</totfact>
</mgrwt>
</event>
<event>
 7    1  0.8712071E-006  0.2131655E+03  0.7546771E-02  0.1142832E+00
          1   -1    0    0  501    0  0.00000000000E+00  0.00000000000E+00  0.16570125700E+03  0.16570125700E+03  0.00000000000E+00 0. -1.
         -1   -1    0    0    0  501 -0.00000000000E+00 -0.00000000000E+00 -0.25208753391E+03  0.25208753391E+03  0.00000000000E+00 0.  1.
         23    2    1    2    0    0  0.13899150031E+03 -0.10243480685E+03 -0.58402774860E+02  0.22102125638E+03  0.12501193882E+03 0.  0.
          5    1    3    3  502    0  0.15213320496E+03 -0.63743007452E+02 -0.68500938440E+02  0.17866771285E+03  0.47000000000E+01 0. -1.
         -5    1    3    3    0  502 -0.13141704644E+02 -0.38691799400E+02  0.10098163580E+02  0.42353543529E+02  0.47000000000E+01 0. -1.
        -11    1    1    2    0    0 -0.52012581157E+02  0.37777738684E+02 -0.55525440028E+02  0.84944338416E+02  0.00000000000E+00 0.  1.
         11    1    1    2    0    0 -0.86978919153E+02  0.64657068168E+02  0.27541937976E+02  0.11182319611E+03  0.00000000000E+00 0. -1.
<mgrwt>
<rscale>  0 0.20840914E+03</rscale>
<asrwt>0</asrwt>
<pdfrwt beam="1">  1        1 0.25492501E-01 0.21316546E+03</pdfrwt>
<pdfrwt beam="2">  1       -1 0.38782697E-01 0.21316546E+03</pdfrwt>
<totfact> 0.12120150E+03</totfact>
</mgrwt>
</event>
<event>
 7    1  0.8712071E-006  0.2121987E+03  0.7546771E-02  0.1140277E+00
          2   -1    0    0  501    0  0.00000000000E+00  0.00000000000E+00  0.15458131681E+04  0.15458131681E+04  0.00000000000E+00 0. -1.
         -2   -1    0    0    0  501 -0.00000000000E+00 -0.00000000000E+00 -0.29361279447E+02  0.29361279447E+02  0.00000000000E+00 0.  1.
         23    2    1    2    0    0 -0.16995912193E+03 -0.62161869319E+02  0.65544167600E+03  0.68893546134E+03  0.11080648957E+03 0.  0.
          5    1    3    3  502    0 -0.80949966026E+02  0.18076998202E+02  0.17450545057E+03  0.19327161494E+03  0.47000000000E+01 0. -1.
         -5    1    3    3    0  502 -0.89009155900E+02 -0.80238867521E+02  0.48093622543E+03  0.49566384640E+03  0.47000000000E+01 0.  1.
        -11    1    1    2    0    0  0.16501209737E+03  0.19923272727E+02  0.72113869677E+03  0.74004523446E+03  0.00000000000E+00 0. -1.
         11    1    1    2    0    0  0.49470245596E+01  0.42238596592E+02  0.13987151593E+03  0.14619375179E+03  0.00000000000E+00 0.  1.
<mgrwt>
<rscale>  0 0.21163543E+03</rscale>
<asrwt>0</asrwt>
<pdfrwt beam="1">  1        2 0.23781735E+00 0.21219868E+03</pdfrwt>
<pdfrwt beam="2">  1       -2 0.45171211E-02 0.21219868E+03</pdfrwt>
<totfact> 0.29452494E+03</totfact>
</mgrwt>
</event>
<event>
 7    1  0.8712071E-006  0.1320564E+03  0.7546771E-02  0.1238242E+00
         -1   -1    0    0    0  501 -0.00000000000E+00  0.00000000000E+00  0.71426502659E+02  0.71426502659E+02  0.00000000000E+00 0.  1.
          1   -1    0    0  501    0  0.00000000000E+00 -0.00000000000E+00 -0.24102298977E+03  0.24102298977E+03  0.00000000000E+00 0. -1.
         23    2    1    2    0    0 -0.30956828054E+02 -0.29240313569E+02 -0.21033273770E+02  0.13372099027E+03  0.12500233394E+03 0.  0.
          5    1    3    3  502    0 -0.51518955202E+02 -0.48943998478E+02  0.28243728793E+02  0.76612766222E+02  0.47000000000E+01 0.  1.
         -5    1    3    3    0  502  0.20562127149E+02  0.19703684909E+02 -0.49277002563E+02  0.57108224044E+02  0.47000000000E+01 0.  1.
        -11    1    1    2    0    0  0.49103441271E+02  0.43930879908E+02 -0.67319452626E+02  0.94196490678E+02  0.00000000000E+00 0.  1.
         11    1    1    2    0    0 -0.18146613218E+02 -0.14690566339E+02 -0.81243760712E+02  0.84532011482E+02  0.00000000000E+00 0. -1.
<mgrwt>
<rscale>  0 0.12299148E+03</rscale>
<asrwt>0</asrwt>
<pdfrwt beam="2">  1        1 0.37080459E-01 0.13205644E+03</pdfrwt>
<pdfrwt beam="1">  1       -1 0.10988693E-01 0.13205644E+03</pdfrwt>
<totfact> 0.57983165E+03</totfact>
</mgrwt>
</event>
<event>
 6    1  0.8712071E-006  0.2672415E+03  0.7546771E-02  0.1106483E+00
         -2   -1    0    0    0  501 -0.00000000000E+00  0.00000000000E+00  0.10304957407E+03  0.10304957407E+03  0.00000000000E+00 0.  1.
          2   -1    0    0  501    0  0.00000000000E+00 -0.00000000000E+00 -0.95995556005E+03  0.95995556005E+03  0.00000000000E+00 0. -1.
          5    1    1    2  502    0 -0.20950353728E+02 -0.33248546340E+02 -0.59111366623E+02  0.71138082762E+02  0.47000000000E+01 0. -1.
         -5    1    1    2    0  502  0.15645764037E+03 -0.14716181215E+03 -0.72439493617E+02  0.22672706592E+03  0.47000000000E+01 0.  1.
        -11    1    1    2    0    0 -0.11341102308E+03  0.82884343655E+02 -0.36271816873E+03  0.38896830785E+03  0.00000000000E+00 0. -1.
         11    1    1    2    0    0 -0.22096263565E+02  0.97526014836E+02 -0.36263695701E+03  0.37617167759E+03  0.00000000000E+00 0.  1.
<mgrwt>
<rscale>  0 0.26110126E+03</rscale>
<asrwt>0</asrwt>
<pdfrwt beam="2">  1        2 0.14768548E+00 0.26724150E+03</pdfrwt>
<pdfrwt beam="1">  1       -2 0.15853780E-01 0.26724150E+03</pdfrwt>
<totfact> 0.87013542E+02</totfact>
</mgrwt>
</event>
<event>
 7    1  0.8712071E-006  0.1306758E+03  0.7546771E-02  0.1239761E+00
         -1   -1    0    0    0  501 -0.00000000000E+00  0.00000000000E+00  0.16683677620E+03  0.16683677620E+03  0.00000000000E+00 0. -1.
          1   -1    0    0  501    0  0.00000000000E+00 -0.00000000000E+00 -0.15111493377E+03  0.15111493377E+03  0.00000000000E+00 0.  1.
         23    2    1    2    0    0  0.34585935552E+02 -0.16037012652E+02  0.11745332221E+03  0.17570273266E+03  0.12499117830E+03 0.  0.
          5    1    3    3  502    0 -0.31326078270E+02  0.29479836915E+02  0.15506067510E+02  0.45966423550E+02  0.47000000000E+01 0. -1.
         -5    1    3    3    0  502  0.65912013822E+02 -0.45516849568E+02  0.10194725470E+03  0.12973630911E+03  0.47000000000E+01 0. -1.
        -11    1    1    2    0    0 -0.50948037623E+02  0.38684970731E+02 -0.42623216383E+02  0.76869812494E+02  0.00000000000E+00 0. -1.
         11    1    1    2    0    0  0.16362102071E+02 -0.22647958078E+02 -0.59108263406E+02  0.65379164817E+02  0.00000000000E+00 0.  1.
<mgrwt>
<rscale>  0 0.12204531E+03</rscale>
<asrwt>0</asrwt>
<pdfrwt beam="2">  1        1 0.23248451E-01 0.13067581E+03</pdfrwt>
<pdfrwt beam="1">  1       -1 0.25667196E-01 0.13067581E+03</pdfrwt>
<totfact> 0.27054857E+03</totfact>
</mgrwt>
</event>
<event>
 7    1  0.8712071E-006  0.1643433E+03  0.7546771E-02  0.1190620E+00
          2   -1    0    0  501    0  0.00000000000E+00  0.00000000000E+00  0.10895932420E+03  0.10895932420E+03  0.00000000000E+00 0.  1.
         -2   -1    0    0    0  501 -0.00000000000E+00 -0.00000000000E+00 -0.23709107408E+03  0.23709107408E+03  0.00000000000E+00 0. -1.
         23    2    1    2    0    0 -0.40373071520E+01  0.10662235713E+03 -0.12152775575E+03  0.20439599215E+03  0.12499639715E+03 0.  0.
          5    1    3    3  502    0  0.54867339104E+02  0.21708009276E+02 -0.30453294424E+02  0.66566926536E+02  0.47000000000E+01 0. -1.
         -5    1    3    3    0  502 -0.58904646256E+02  0.84914347855E+02 -0.91074461326E+02  0.13782906561E+03  0.47000000000E+01 0. -1.
        -11    1    1    2    0    0 -0.22845374370E+02 -0.11100210656E+03  0.11521004339E+01  0.11333448780E+03  0.00000000000E+00 0.  1.
         11    1    1    2    0    0  0.26882681522E+02  0.43797494268E+01 -0.77560945695E+01  0.28319918323E+02  0.00000000000E+00 0. -1.
<mgrwt>
<rscale>  0 0.15830821E+03</rscale>
<asrwt>0</asrwt>
<pdfrwt beam="1">  1        2 0.16762973E-01 0.16434332E+03</pdfrwt>
<pdfrwt beam="2">  1       -2 0.36475550E-01 0.16434332E+03</pdfrwt>
<totfact> 0.23675988E+03</totfact>
</mgrwt>
</event>
<event>
 7    1  0.8712071E-006  0.1956815E+03  0.7546771E-02  0.1158553E+00
         -2   -1    0    0    0  501 -0.00000000000E+00  0.00000000000E+00  0.19397383866E+03  0.19397383866E+03  0.00000000000E+00 0.  1.
          2   -1    0    0  501    0  0.00000000000E+00 -0.00000000000E+00 -0.17616245896E+03  0.17616245896E+03  0.00000000000E+00 0. -1.
         23    2    1    2    0    0 -0.12889420588E+03  0.77801904684E+02  0.12243005925E+00  0.19568155915E+03  0.12499761965E+03 0.  0.
          5    1    3    3  502    0 -0.50527474035E+01 -0.26178965153E+01 -0.41533725217E+02  0.42184404333E+02  0.47000000000E+01 0. -1.
         -5    1    3    3    0  502 -0.12384145848E+03  0.80419801199E+02  0.41656155277E+02  0.15349715481E+03  0.47000000000E+01 0. -1.
        -11    1    1    2    0    0  0.27887106932E+02 -0.34133355462E+01  0.38123569163E+02  0.47357661664E+02  0.00000000000E+00 0.  1.
         11    1    1    2    0    0  0.10100709895E+03 -0.74388569138E+02 -0.20434619524E+02  0.12709707680E+03  0.00000000000E+00 0. -1.
<mgrwt>
<rscale>  0 0.18989872E+03</rscale>
<asrwt>0</asrwt>
<pdfrwt beam="2">  1        2 0.27101917E-01 0.19568152E+03</pdfrwt>
<pdfrwt beam="1">  1       -2 0.29842129E-01 0.19568152E+03</pdfrwt>
<totfact> 0.20015211E+03</totfact>
</mgrwt>
</event>
<event>
 7    1  0.8712071E-006  0.1388464E+03  0.7546771E-02  0.1224855E+00
          1   -1    0    0  501    0  0.00000000000E+00  0.00000000000E+00  0.26668765441E+02  0.26668765441E+02  0.00000000000E+00 0. -1.
         -1   -1    0    0    0  501 -0.00000000000E+00 -0.00000000000E+00 -0.59304735243E+03  0.59304735243E+03  0.00000000000E+00 0.  1.
         23    2    1    2    0    0  0.46594603125E+02 -0.38491473785E+02 -0.30658509868E+03  0.33656017765E+03  0.12500271938E+03 0.  0.
          5    1    3    3  502    0 -0.30675198982E+02 -0.50000424290E+02 -0.15838312810E+03  0.16896246781E+03  0.47000000000E+01 0. -1.
         -5    1    3    3    0  502  0.77269802107E+02  0.11508950505E+02 -0.14820197058E+03  0.16759770984E+03  0.47000000000E+01 0. -1.
        -11    1    1    2    0    0 -0.21608670181E+02  0.56253949305E+02 -0.23808213104E+03  0.24559019231E+03  0.00000000000E+00 0.  1.
         11    1    1    2    0    0 -0.24985932943E+02 -0.17762475519E+02 -0.21711357271E+02  0.37565747911E+02  0.00000000000E+00 0. -1.
<mgrwt>
<rscale>  0 0.13176824E+03</rscale>
<asrwt>0</asrwt>
<pdfrwt beam="1">  1        1 0.41028869E-02 0.13884643E+03</pdfrwt>
<pdfrwt beam="2">  1       -1 0.91238056E-01 0.13884643E+03</pdfrwt>
<totfact> 0.26182630E+03</totfact>
</mgrwt>
</event>
<event>
 7    1  0.8712071E-006  0.1182416E+03  0.7546771E-02  0.1257267E+00
          2   -1    0    0  501    0  0.00000000000E+00  0.00000000000E+00  0.28508682582E+03  0.28508682582E+03  0.00000000000E+00 0. -1.
         -2   -1    0    0    0  501 -0.00000000000E+00 -0.00000000000E+00 -0.57411056145E+02  0.57411056145E+02  0.00000000000E+00 0.  1.
         23    2    1    2    0    0 -0.14123304990E+02  0.14117232539E+02  0.27894905168E+02  0.12148746776E+03  0.11654318980E+03 0.  0.
          5    1    3    3  502    0 -0.70008529884E+01 -0.50869061641E+02  0.39795278728E+01  0.51716535237E+02  0.47000000000E+01 0. -1.
         -5    1    3    3    0  502 -0.71224520012E+01  0.64986294180E+02  0.23915377295E+02  0.69770932522E+02  0.47000000000E+01 0.  1.
        -11    1    1    2    0    0 -0.18071641839E+02 -0.24612322923E+02  0.16657477402E+02  0.34782498930E+02  0.00000000000E+00 0.  1.
         11    1    1    2    0    0  0.32194946829E+02  0.10495090383E+02  0.18312338711E+03  0.18622791528E+03  0.00000000000E+00 0. -1.
<mgrwt>
<rscale>  0 0.11180306E+03</rscale>
<asrwt>0</asrwt>
<pdfrwt beam="1">  1        2 0.43859511E-01 0.11824161E+03</pdfrwt>
<pdfrwt beam="2">  1       -2 0.88324703E-02 0.11824161E+03</pdfrwt>
<totfact> 0.87700210E+03</totfact>
</mgrwt>
</event>
<event>
 7    1  0.8712071E-006  0.1899371E+03  0.7546771E-02  0.1163110E+00
          2   -1    0    0  501    0  0.00000000000E+00  0.00000000000E+00  0.68889003044E+03  0.68889003044E+03  0.00000000000E+00 0. -1.
         -2   -1    0    0    0  501 -0.00000000000E+00 -0.00000000000E+00 -0.51832997708E+02  0.51832997708E+02  0.00000000000E+00 0.  1.
         23    2    1    2    0    0 -0.21982396011E+02 -0.14131486527E+03  0.22341600668E+03  0.29324190125E+03  0.12499193465E+03 0.  0.
          5    1    3    3  502    0  0.23782783895E+02  0.13970192443E+02  0.33125356461E+02  0.43360884763E+02  0.47000000000E+01 0. -1.
         -5    1    3    3    0  502 -0.45765179906E+02 -0.15528505771E+03  0.19029065022E+03  0.24988101649E+03  0.47000000000E+01 0. -1.
        -11    1    1    2    0    0  0.40456750586E+02  0.10397244523E+03  0.37281333689E+03  0.38914881754E+03  0.00000000000E+00 0. -1.
         11    1    1    2    0    0 -0.18474354575E+02  0.37342420044E+02  0.40827689162E+02  0.58332309349E+02  0.00000000000E+00 0.  1.
<mgrwt>
<rscale>  0 0.18493512E+03</rscale>
<asrwt>0</asrwt>
<pdfrwt beam="1">  1        2 0.10598308E+00 0.18993710E+03</pdfrwt>
<pdfrwt beam="2">  1       -2 0.79743078E-02 0.18993710E+03</pdfrwt>
<totfact> 0.40057135E+03</totfact>
</mgrwt>
</event>
<event>
 7    1  0.8712071E-006  0.1333841E+03  0.7546771E-02  0.1229283E+00
         -2   -1    0    0    0  501 -0.00000000000E+00  0.00000000000E+00  0.90804449301E+02  0.90804449301E+02  0.00000000000E+00 0.  1.
          2   -1    0    0  501    0  0.00000000000E+00 -0.00000000000E+00 -0.18067668434E+03  0.18067668434E+03  0.00000000000E+00 0. -1.
         23    2    1    2    0    0  0.29350037857E+02  0.65807025758E+02 -0.16694719773E+02  0.13442482301E+03  0.11224673720E+03 0.  0.
          5    1    3    3  502    0  0.43890426813E+02  0.92499723490E+02 -0.10287627979E+02  0.10300725072E+03  0.47000000000E+01 0. -1.
         -5    1    3    3    0  502 -0.14540388956E+02 -0.26692697732E+02 -0.64070917942E+01  0.31417572288E+02  0.47000000000E+01 0.  1.
        -11    1    1    2    0    0 -0.58929116537E+02 -0.24516972903E+02 -0.50705669345E+02  0.81515566856E+02  0.00000000000E+00 0. -1.
         11    1    1    2    0    0  0.29579078680E+02 -0.41290052854E+02 -0.22471845923E+02  0.55540743778E+02  0.00000000000E+00 0.  1.
<mgrwt>
<rscale>  0 0.12877616E+03</rscale>
<asrwt>0</asrwt>
<pdfrwt beam="2">  1        2 0.27796413E-01 0.13338410E+03</pdfrwt>
<pdfrwt beam="1">  1       -2 0.13969915E-01 0.13338410E+03</pdfrwt>
<totfact> 0.69732403E+03</totfact>
</mgrwt>
</event>
<event>
 7    1  0.8712071E-006  0.1351138E+03  0.7546771E-02  0.1233014E+00
          2   -1    0    0  501    0  0.00000000000E+00  0.00000000000E+00  0.83087460829E+02  0.83087460829E+02  0.00000000000E+00 0. -1.
         -2   -1    0    0    0  501 -0.00000000000E+00 -0.00000000000E+00 -0.19803482460E+03  0.19803482460E+03  0.00000000000E+00 0.  1.
         23    2    1    2    0    0  0.20245144187E+02 -0.47118305167E+02 -0.11569344456E+03  0.17787832945E+03  0.12500290569E+03 0.  0.
          5    1    3    3  502    0 -0.35180858361E+01 -0.50571750656E+02  0.82212761487E+01  0.51570905304E+02  0.47000000000E+01 0.  1.
         -5    1    3    3    0  502  0.23763230023E+02  0.34534454894E+01 -0.12391472071E+03  0.12630742415E+03  0.47000000000E+01 0.  1.
        -11    1    1    2    0    0  0.30108220016E+02 -0.44749188035E+01 -0.53058522909E+01  0.30897926781E+02  0.00000000000E+00 0.  1.
         11    1    1    2    0    0 -0.50353364202E+02  0.51593223970E+02  0.60519330812E+01  0.72346029194E+02  0.00000000000E+00 0. -1.
<mgrwt>
<rscale>  0 0.12632462E+03</rscale>
<asrwt>0</asrwt>
<pdfrwt beam="1">  1        2 0.12782686E-01 0.13511376E+03</pdfrwt>
<pdfrwt beam="2">  1       -2 0.30466896E-01 0.13511376E+03</pdfrwt>
<totfact> 0.44832070E+03</totfact>
</mgrwt>
</event>
<event>
 7    1  0.8712071E-006  0.1487462E+03  0.7546771E-02  0.1211773E+00
         -2   -1    0    0    0  501 -0.00000000000E+00  0.00000000000E+00  0.67744948206E+02  0.67744948206E+02  0.00000000000E+00 0.  1.
          2   -1    0    0  501    0  0.00000000000E+00 -0.00000000000E+00 -0.31547420068E+03  0.31547420068E+03  0.00000000000E+00 0. -1.
         23    2    1    2    0    0  0.33656550070E+02 -0.73285191193E+02 -0.60711549123E+02  0.16065903518E+03  0.12498780251E+03 0.  0.
          5    1    3    3  502    0 -0.17353193736E+02 -0.48420924207E+02  0.25294390039E+02  0.57511871830E+02  0.47000000000E+01 0. -1.
         -5    1    3    3    0  502  0.51009743806E+02 -0.24864266986E+02 -0.86005939161E+02  0.10314716335E+03  0.47000000000E+01 0. -1.
        -11    1    1    2    0    0 -0.49795481940E+02  0.76030272991E+02 -0.10476249750E+03  0.13869164832E+03  0.00000000000E+00 0. -1.
         11    1    1    2    0    0  0.16138931870E+02 -0.27450817977E+01 -0.82255205852E+02  0.83868465384E+02  0.00000000000E+00 0.  1.
<mgrwt>
<rscale>  0 0.14116266E+03</rscale>
<asrwt>0</asrwt>
<pdfrwt beam="2">  1        2 0.48534493E-01 0.14874620E+03</pdfrwt>
<pdfrwt beam="1">  1       -2 0.10422300E-01 0.14874620E+03</pdfrwt>
<totfact> 0.61754984E+03</totfact>
</mgrwt>
</event>
<event>
 7    1  0.8712071E-006  0.1461614E+03  0.7546771E-02  0.1215410E+00
          1   -1    0    0  501    0  0.00000000000E+00  0.00000000000E+00  0.79773818204E+03  0.79773818204E+03  0.00000000000E+00 0. -1.
         -1   -1    0    0    0  501 -0.00000000000E+00 -0.00000000000E+00 -0.21908823936E+02  0.21908823936E+02  0.00000000000E+00 0.  1.
         23    2    1    2    0    0  0.11165579877E+02  0.75043259962E+02  0.40398726424E+03  0.42961477306E+03  0.12492790933E+03 0.  0.
          5    1    3    3  502    0 -0.53217010652E+02  0.21913186307E+02  0.22122716159E+03  0.22863898395E+03  0.47000000000E+01 0. -1.
         -5    1    3    3    0  502  0.64382590529E+02  0.53130073656E+02  0.18276010265E+03  0.20097578911E+03  0.47000000000E+01 0. -1.
        -11    1    1    2    0    0 -0.48007393021E+02 -0.59065427663E+02  0.21294730965E+03  0.22614152917E+03  0.00000000000E+00 0.  1.
         11    1    1    2    0    0  0.36841813143E+02 -0.15977832299E+02  0.15889478422E+03  0.16389070374E+03  0.00000000000E+00 0. -1.
<mgrwt>
<rscale>  0 0.13846479E+03</rscale>
<asrwt>0</asrwt>
<pdfrwt beam="1">  1        1 0.12272893E+00 0.14616136E+03</pdfrwt>
<pdfrwt beam="2">  1       -1 0.33705889E-02 0.14616136E+03</pdfrwt>
<totfact> 0.71223277E+03</totfact>
</mgrwt>
</event>
<event>
 7    1  0.8712071E-006  0.1596994E+03  0.7546771E-02  0.1196912E+00
          2   -1    0    0  501    0  0.00000000000E+00  0.00000000000E+00  0.17186875658E+03  0.17186875658E+03  0.00000000000E+00 0. -1.
         -2   -1    0    0    0  501 -0.00000000000E+00 -0.00000000000E+00 -0.12647844189E+03  0.12647844189E+03  0.00000000000E+00 0.  1.
         23    2    1    2    0    0  0.12472533312E+02 -0.98606182586E+02  0.36001617070E+02  0.16370707433E+03  0.12500058570E+03 0.  0.
          5    1    3    3  502    0 -0.46127930383E+02 -0.53467935355E+02  0.52074104718E+02  0.87865854886E+02  0.47000000000E+01 0. -1.
         -5    1    3    3    0  502  0.58600463695E+02 -0.45138247231E+02 -0.16072487648E+02  0.75841219449E+02  0.47000000000E+01 0. -1.
        -11    1    1    2    0    0 -0.92557521933E+01  0.36113542543E+02 -0.40179500683E+02  0.54811031543E+02  0.00000000000E+00 0.  1.
         11    1    1    2    0    0 -0.32167811184E+01  0.62492640043E+02  0.49568198302E+02  0.79829092587E+02  0.00000000000E+00 0. -1.
<mgrwt>
<rscale>  0 0.15293484E+03</rscale>
<asrwt>0</asrwt>
<pdfrwt beam="1">  1        2 0.26441347E-01 0.15969937E+03</pdfrwt>
<pdfrwt beam="2">  1       -2 0.19458222E-01 0.15969937E+03</pdfrwt>
<totfact> 0.43048114E+03</totfact>
</mgrwt>
</event>
<event>
 6    1  0.8712071E-006  0.2925937E+03  0.7546771E-02  0.1113026E+00
          1   -1    0    0  501    0  0.00000000000E+00  0.00000000000E+00  0.15338065709E+03  0.15338065709E+03  0.00000000000E+00 0. -1.
         -1   -1    0    0    0  501 -0.00000000000E+00 -0.00000000000E+00 -0.82031775135E+03  0.82031775135E+03  0.00000000000E+00 0.  1.
          5    1    1    2  502    0  0.52171013459E+02  0.18580603697E+03 -0.36981112590E+03  0.41716670152E+03  0.47000000000E+01 0. -1.
         -5    1    1    2    0  502 -0.88156979937E+01 -0.77814441686E+02 -0.37367588936E+03  0.38182268680E+03  0.47000000000E+01 0.  1.
        -11    1    1    2    0    0 -0.46216145842E+02 -0.16741520130E+02  0.66740662981E+02  0.82888640524E+02  0.00000000000E+00 0.  1.
         11    1    1    2    0    0  0.28608303764E+01 -0.91250075149E+02  0.98092580261E+01  0.91820379591E+02  0.00000000000E+00 0. -1.
<mgrwt>
<rscale>  0 0.25044092E+03</rscale>
<asrwt>0</asrwt>
<pdfrwt beam="1">  1        1 0.23597025E-01 0.29259375E+03</pdfrwt>
<pdfrwt beam="2">  1       -1 0.12620273E+00 0.29259375E+03</pdfrwt>
<totfact> 0.12108132E+02</totfact>
</mgrwt>
</event>
<event>
 7    1  0.8712071E-006  0.1773276E+03  0.7546771E-02  0.1175773E+00
          1   -1    0    0  501    0  0.00000000000E+00  0.00000000000E+00  0.10756673197E+04  0.10756673197E+04  0.00000000000E+00 0.  1.
         -1   -1    0    0    0  501 -0.00000000000E+00 -0.00000000000E+00 -0.30409147723E+02  0.30409147723E+02  0.00000000000E+00 0. -1.
         23    2    1    2    0    0 -0.10355673132E+03 -0.71385623652E+02  0.76067343959E+03  0.78106924307E+03  0.12500070766E+03 0.  0.
          5    1    3    3  502    0 -0.80970066109E+02  0.34719764861E+01  0.55641390815E+03  0.56230484029E+03  0.47000000000E+01 0.  1.
         -5    1    3    3    0  502 -0.22586665209E+02 -0.74857600138E+02  0.20425953143E+03  0.21876440278E+03  0.47000000000E+01 0.  1.
        -11    1    1    2    0    0  0.13055428265E+02  0.63834706882E+02  0.10108372190E+03  0.12026318158E+03  0.00000000000E+00 0.  1.
         11    1    1    2    0    0  0.90501303053E+02  0.75509167700E+01  0.18350101045E+03  0.20474404273E+03  0.00000000000E+00 0. -1.
<mgrwt>
<rscale>  0 0.17200460E+03</rscale>
<asrwt>0</asrwt>
<pdfrwt beam="1">  1        1 0.16548725E+00 0.17732761E+03</pdfrwt>
<pdfrwt beam="2">  1       -1 0.46783312E-02 0.17732761E+03</pdfrwt>
<totfact> 0.27146429E+03</totfact>
</mgrwt>
</event>
<event>
 7    1  0.8712071E-006  0.1297426E+03  0.7546771E-02  0.1239118E+00
         -1   -1    0    0    0  501 -0.00000000000E+00  0.00000000000E+00  0.40232017448E+02  0.40232017448E+02  0.00000000000E+00 0.  1.
          1   -1    0    0  501    0  0.00000000000E+00 -0.00000000000E+00 -0.37164738565E+03  0.37164738565E+03  0.00000000000E+00 0. -1.
         23    2    1    2    0    0 -0.34609083067E+02  0.24495433638E+01 -0.11994054789E+03  0.17668863619E+03  0.12501739974E+03 0.  0.
          5    1    3    3  502    0 -0.14914400894E+01  0.61114139568E+02 -0.67486587042E+02  0.91179448777E+02  0.47000000000E+01 0.  1.
         -5    1    3    3    0  502 -0.33117642977E+02 -0.58664596204E+02 -0.52453960848E+02  0.85509187418E+02  0.47000000000E+01 0.  1.
        -11    1    1    2    0    0  0.40961425754E+02  0.20108348179E+02 -0.20617438391E+03  0.21116358741E+03  0.00000000000E+00 0. -1.
         11    1    1    2    0    0 -0.63523426873E+01 -0.22557891543E+02 -0.53004364013E+01  0.24027179496E+02  0.00000000000E+00 0.  1.
<mgrwt>
<rscale>  0 0.12244464E+03</rscale>
<asrwt>0</asrwt>
<pdfrwt beam="2">  1        1 0.57176519E-01 0.12974259E+03</pdfrwt>
<pdfrwt beam="1">  1       -1 0.61895413E-02 0.12974259E+03</pdfrwt>
<totfact> 0.80585400E+03</totfact>
</mgrwt>
</event>
<event>
 6    1  0.8712071E-006  0.5140807E+03  0.7546771E-02  0.1060839E+00
         -1   -1    0    0    0  501 -0.00000000000E+00  0.00000000000E+00  0.10698023905E+04  0.10698023905E+04  0.00000000000E+00 0.  1.
          1   -1    0    0  501    0  0.00000000000E+00 -0.00000000000E+00 -0.97794530616E+02  0.97794530616E+02  0.00000000000E+00 0. -1.
          5    1    1    2  502    0  0.13692154555E+03 -0.26163389860E+01  0.86388378489E+01  0.13729921480E+03  0.47000000000E+01 0. -1.
         -5    1    1    2    0  502 -0.11419613403E+03  0.70995947836E+02  0.87271598120E+03  0.88302687133E+03  0.47000000000E+01 0.  1.
        -11    1    1    2    0    0  0.23545340362E+02 -0.60355314185E+02  0.32369092820E+02  0.72421717551E+02  0.00000000000E+00 0.  1.
         11    1    1    2    0    0 -0.46270751879E+02 -0.80242946650E+01  0.58283947986E+02  0.74849117411E+02  0.00000000000E+00 0. -1.
<mgrwt>
<rscale>  0 0.35436218E+03</rscale>
<asrwt>0</asrwt>
<pdfrwt beam="2">  1        1 0.15045313E-01 0.51408074E+03</pdfrwt>
<pdfrwt beam="1">  1       -1 0.16458497E+00 0.51408074E+03</pdfrwt>
<totfact> 0.10712522E+02</totfact>
</mgrwt>
</event>
<event>
 7    1  0.8712071E-006  0.1343174E+03  0.7546771E-02  0.1233345E+00
          1   -1    0    0  501    0  0.00000000000E+00  0.00000000000E+00  0.56454528987E+02  0.56454528987E+02  0.00000000000E+00 0. -1.
         -1   -1    0    0    0  501 -0.00000000000E+00 -0.00000000000E+00 -0.27829539344E+03  0.27829539344E+03  0.00000000000E+00 0.  1.
         23    2    1    2    0    0 -0.44565863816E+02 -0.20726293059E+02 -0.17432287160E+03  0.22006732814E+03  0.12500187963E+03 0.  0.
          5    1    3    3  502    0 -0.20707397483E+02 -0.15648580143E+02  0.14171415354E+02  0.29943169241E+02  0.47000000000E+01 0.  1.
         -5    1    3    3    0  502 -0.23858466332E+02 -0.50777129160E+01 -0.18849428695E+03  0.19012415890E+03  0.47000000000E+01 0.  1.
        -11    1    1    2    0    0  0.36628462425E+02 -0.33110715032E+02 -0.28648313747E+02  0.57084933127E+02  0.00000000000E+00 0. -1.
         11    1    1    2    0    0  0.79374013910E+01  0.53837008091E+02 -0.18869679106E+02  0.57597661155E+02  0.00000000000E+00 0.  1.
<mgrwt>
<rscale>  0 0.12610965E+03</rscale>
<asrwt>0</asrwt>
<pdfrwt beam="1">  1        1 0.86853122E-02 0.13431741E+03</pdfrwt>
<pdfrwt beam="2">  1       -1 0.42814676E-01 0.13431741E+03</pdfrwt>
<totfact> 0.40642419E+03</totfact>
</mgrwt>
</event>
<event>
 7    1  0.8712071E-006  0.1727452E+03  0.7546771E-02  0.1181169E+00
          3   -1    0    0  501    0  0.00000000000E+00  0.00000000000E+00  0.58844640211E+03  0.58844640211E+03  0.00000000000E+00 0. -1.
         -3   -1    0    0    0  501 -0.00000000000E+00 -0.00000000000E+00 -0.50970461079E+02  0.50970461079E+02  0.00000000000E+00 0.  1.
         23    2    1    2    0    0 -0.11856385212E+03 -0.12587110724E+02  0.16997778035E+03  0.24234966113E+03  0.12500036020E+03 0.  0.
          5    1    3    3  502    0 -0.92111284565E+02 -0.65648911493E+02  0.10838186823E+03  0.15672583605E+03  0.47000000000E+01 0.  1.
         -5    1    3    3    0  502 -0.26452567557E+02  0.53061800769E+02  0.61595912119E+02  0.85623825079E+02  0.47000000000E+01 0.  1.
        -11    1    1    2    0    0  0.18805044520E+02 -0.24518542254E+02  0.29552584231E+02  0.42756798856E+02  0.00000000000E+00 0.  1.
         11    1    1    2    0    0  0.99758807602E+02  0.37105652977E+02  0.33794557645E+03  0.35431040321E+03  0.00000000000E+00 0. -1.
<mgrwt>
<rscale>  0 0.16685377E+03</rscale>
<asrwt>0</asrwt>
<pdfrwt beam="1">  1        3 0.90530211E-01 0.17274522E+03</pdfrwt>
<pdfrwt beam="2">  1       -3 0.78416098E-02 0.17274522E+03</pdfrwt>
<totfact> 0.30061424E+02</totfact>
</mgrwt>
</event>
<event>
 7    1  0.8712071E-006  0.1487644E+03  0.7546771E-02  0.1211103E+00
         -3   -1    0    0    0  501 -0.00000000000E+00  0.00000000000E+00  0.75659454248E+02  0.75659454248E+02  0.00000000000E+00 0.  1.
          3   -1    0    0  501    0  0.00000000000E+00 -0.00000000000E+00 -0.37015180256E+03  0.37015180256E+03  0.00000000000E+00 0. -1.
         23    2    1    2    0    0 -0.54996294702E+02  0.59029538706E+02 -0.26354530889E+02  0.15108084397E+03  0.12498712432E+03 0.  0.
          5    1    3    3  502    0 -0.41129996434E+02  0.68315369070E+02 -0.68677747037E+02  0.10534414647E+03  0.47000000000E+01 0. -1.
         -5    1    3    3    0  502 -0.13866298268E+02 -0.92858303637E+01  0.42323216149E+02  0.45736697502E+02  0.47000000000E+01 0. -1.
        -11    1    1    2    0    0 -0.16989330593E+02 -0.45305701418E+02 -0.91794554837E+02  0.10376648897E+03  0.00000000000E+00 0.  1.
         11    1    1    2    0    0  0.71985625295E+02 -0.13723837289E+02 -0.17634326258E+03  0.19096392387E+03  0.00000000000E+00 0. -1.
<mgrwt>
<rscale>  0 0.14166752E+03</rscale>
<asrwt>0</asrwt>
<pdfrwt beam="2">  1        3 0.56946432E-01 0.14876445E+03</pdfrwt>
<pdfrwt beam="1">  1       -3 0.11639916E-01 0.14876445E+03</pdfrwt>
<totfact> 0.41285999E+02</totfact>
</mgrwt>
</event>
<event>
 7    1  0.8712071E-006  0.1812752E+03  0.7546771E-02  0.1172133E+00
         -1   -1    0    0    0  501 -0.00000000000E+00  0.00000000000E+00  0.20920818035E+03  0.20920818035E+03  0.00000000000E+00 0.  1.
          1   -1    0    0  501    0  0.00000000000E+00 -0.00000000000E+00 -0.13997808515E+03  0.13997808515E+03  0.00000000000E+00 0. -1.
         23    2    1    2    0    0 -0.55090571767E+02  0.11916986548E+03  0.52379363833E+02  0.18869097187E+03  0.12499702867E+03 0.  0.
          5    1    3    3  502    0 -0.41705132182E+02  0.69736512069E+02 -0.33962372951E+02  0.88193151335E+02  0.47000000000E+01 0.  1.
         -5    1    3    3    0  502 -0.13385439585E+02  0.49433353410E+02  0.86341736784E+02  0.10049782054E+03  0.47000000000E+01 0.  1.
        -11    1    1    2    0    0  0.39353236755E+02 -0.52658157010E+01  0.22004323513E+02  0.45393791551E+02  0.00000000000E+00 0.  1.
         11    1    1    2    0    0  0.15737335012E+02 -0.11390404978E+03 -0.51535921440E+01  0.11510150208E+03  0.00000000000E+00 0. -1.
<mgrwt>
<rscale>  0 0.17559719E+03</rscale>
<asrwt>0</asrwt>
<pdfrwt beam="2">  1        1 0.21535090E-01 0.18127516E+03</pdfrwt>
<pdfrwt beam="1">  1       -1 0.32185874E-01 0.18127516E+03</pdfrwt>
<totfact> 0.20671022E+03</totfact>
</mgrwt>
</event>
<event>
 7    1  0.8712071E-006  0.3155152E+03  0.7546771E-02  0.1079156E+00
         -1   -1    0    0    0  501 -0.00000000000E+00  0.00000000000E+00  0.82267935787E+03  0.82267935787E+03  0.00000000000E+00 0.  1.
          1   -1    0    0  501    0  0.00000000000E+00 -0.00000000000E+00 -0.13928202148E+03  0.13928202148E+03  0.00000000000E+00 0. -1.
         23    2    1    2    0    0 -0.25360367208E+03  0.14004376205E+03  0.54176174728E+03  0.62694148264E+03  0.12499101589E+03 0.  0.
          5    1    3    3  502    0 -0.59299887671E+02  0.77118456616E+02  0.26948031399E+03  0.28654050789E+03  0.47000000000E+01 0. -1.
         -5    1    3    3    0  502 -0.19430378441E+03  0.62925305435E+02  0.27228143328E+03  0.34040097475E+03  0.47000000000E+01 0. -1.
        -11    1    1    2    0    0  0.23691606893E+03 -0.11767081717E+03  0.95774656721E+02  0.28133330731E+03  0.00000000000E+00 0.  1.
         11    1    1    2    0    0  0.16687603153E+02 -0.22372944881E+02  0.45860932393E+02  0.53686589401E+02  0.00000000000E+00 0. -1.
<mgrwt>
<rscale>  0 0.31249525E+03</rscale>
<asrwt>0</asrwt>
<pdfrwt beam="2">  1        1 0.21428004E-01 0.31551518E+03</pdfrwt>
<pdfrwt beam="1">  1       -1 0.12656605E+00 0.31551518E+03</pdfrwt>
<totfact> 0.13581216E+02</totfact>
</mgrwt>
</event>
<event>
 7    1  0.8712071E-006  0.1391319E+03  0.7546771E-02  0.1225357E+00
          2   -1    0    0  501    0  0.00000000000E+00  0.00000000000E+00  0.35195742311E+03  0.35195742311E+03  0.00000000000E+00 0. -1.
         -2   -1    0    0    0  501 -0.00000000000E+00 -0.00000000000E+00 -0.47336015131E+02  0.47336015131E+02  0.00000000000E+00 0.  1.
         23    2    1    2    0    0  0.46988522851E+01  0.60903144355E+02  0.11875705677E+03  0.18292325911E+03  0.12500563181E+03 0.  0.
          5    1    3    3  502    0  0.55746447589E+02  0.46816204056E+02  0.10527011731E+03  0.12807541130E+03  0.47000000000E+01 0.  1.
         -5    1    3    3    0  502 -0.51047595304E+02  0.14086940299E+02  0.13486939458E+02  0.54847847808E+02  0.47000000000E+01 0.  1.
        -11    1    1    2    0    0  0.12026904940E+02  0.19487730829E+02  0.16740196689E+02  0.28366393505E+02  0.00000000000E+00 0.  1.
         11    1    1    2    0    0 -0.16725757225E+02 -0.80390875185E+02  0.16912415452E+03  0.18800378563E+03  0.00000000000E+00 0. -1.
<mgrwt>
<rscale>  0 0.13142493E+03</rscale>
<asrwt>0</asrwt>
<pdfrwt beam="1">  1        2 0.54147294E-01 0.13913188E+03</pdfrwt>
<pdfrwt beam="2">  1       -2 0.72824641E-02 0.13913188E+03</pdfrwt>
<totfact> 0.95635535E+03</totfact>
</mgrwt>
</event>
<event>
 7    1  0.8712071E-006  0.2272694E+03  0.7546771E-02  0.1131956E+00
         -2   -1    0    0    0  501 -0.00000000000E+00  0.00000000000E+00  0.60456630394E+02  0.60456630394E+02  0.00000000000E+00 0.  1.
          2   -1    0    0  501    0  0.00000000000E+00 -0.00000000000E+00 -0.84261852722E+03  0.84261852722E+03  0.00000000000E+00 0. -1.
         23    2    1    2    0    0 -0.18672890862E+03 -0.34027732932E+02 -0.29104427817E+03  0.36926707369E+03  0.12500331171E+03 0.  0.
          5    1    3    3  502    0 -0.18941686924E+02 -0.37221213194E+02 -0.12161736566E+02  0.43751617701E+02  0.47000000000E+01 0.  1.
         -5    1    3    3    0  502 -0.16778722170E+03  0.31934802613E+01 -0.27888254160E+03  0.32551545599E+03  0.47000000000E+01 0.  1.
        -11    1    1    2    0    0  0.76431609443E+02 -0.13248862995E+01 -0.99819489751E+02  0.12572778842E+03  0.00000000000E+00 0.  1.
         11    1    1    2    0    0  0.11029729918E+03  0.35352619232E+02 -0.39129812891E+03  0.40808029551E+03  0.00000000000E+00 0. -1.
<mgrwt>
<rscale>  0 0.22260437E+03</rscale>
<asrwt>0</asrwt>
<pdfrwt beam="2">  1        2 0.12963362E+00 0.22726944E+03</pdfrwt>
<pdfrwt beam="1">  1       -2 0.93010199E-02 0.22726944E+03</pdfrwt>
<totfact> 0.24601157E+03</totfact>
</mgrwt>
</event>
<event>
 7    1  0.8712071E-006  0.1251737E+03  0.7546771E-02  0.1250619E+00
         -1   -1    0    0    0  501 -0.00000000000E+00  0.00000000000E+00  0.88312152267E+02  0.88312152267E+02  0.00000000000E+00 0.  1.
          1   -1    0    0  501    0  0.00000000000E+00 -0.00000000000E+00 -0.16080746914E+03  0.16080746914E+03  0.00000000000E+00 0. -1.
         23    2    1    2    0    0  0.66458738001E+01  0.60352071828E-01  0.11043288137E+02  0.12565988601E+03  0.12499712580E+03 0.  0.
          5    1    3    3  502    0 -0.56351977175E+02  0.97802803727E+01  0.20724143593E+02  0.61014583039E+02  0.47000000000E+01 0.  1.
         -5    1    3    3    0  502  0.62997850975E+02 -0.97199283008E+01 -0.96808554560E+01  0.64645302970E+02  0.47000000000E+01 0.  1.
        -11    1    1    2    0    0  0.59770516393E+01 -0.20796929913E+02 -0.94411596653E+02  0.96859625348E+02  0.00000000000E+00 0. -1.
         11    1    1    2    0    0 -0.12622925439E+02  0.20736577842E+02  0.10872991646E+02  0.26600110048E+02  0.00000000000E+00 0.  1.
<mgrwt>
<rscale>  0 0.11555294E+03</rscale>
<asrwt>0</asrwt>
<pdfrwt beam="2">  1        1 0.24739610E-01 0.12517369E+03</pdfrwt>
<pdfrwt beam="1">  1       -1 0.13586485E-01 0.12517369E+03</pdfrwt>
<totfact> 0.68847173E+03</totfact>
</mgrwt>
</event>
<event>
 7    1  0.8712071E-006  0.1320821E+03  0.7546771E-02  0.1232776E+00
          2   -1    0    0  501    0  0.00000000000E+00  0.00000000000E+00  0.45284398903E+03  0.45284398903E+03  0.00000000000E+00 0. -1.
         -2   -1    0    0    0  501 -0.00000000000E+00 -0.00000000000E+00 -0.70490437436E+02  0.70490437436E+02  0.00000000000E+00 0.  1.
         23    2    1    2    0    0  0.35677332923E+02 -0.49745619545E+02  0.74098878393E+01  0.13228975924E+03  0.11703920375E+03 0.  0.
          5    1    3    3  502    0  0.72528663466E+01  0.27816461726E+02  0.34570453294E+02  0.45205816596E+02  0.47000000000E+01 0. -1.
         -5    1    3    3    0  502  0.28424466576E+02 -0.77562081271E+02 -0.27160565455E+02  0.87083942648E+02  0.47000000000E+01 0.  1.
        -11    1    1    2    0    0 -0.39652449299E+02  0.74390430264E+02  0.31559712155E+03  0.32666159245E+03  0.00000000000E+00 0. -1.
         11    1    1    2    0    0  0.39751163762E+01 -0.24644810719E+02  0.59346542211E+02  0.64383074779E+02  0.00000000000E+00 0.  1.
<mgrwt>
<rscale>  0 0.12647867E+03</rscale>
<asrwt>0</asrwt>
<pdfrwt beam="1">  1        2 0.69668304E-01 0.13208207E+03</pdfrwt>
<pdfrwt beam="2">  1       -2 0.10844683E-01 0.13208207E+03</pdfrwt>
<totfact> 0.39166803E+03</totfact>
</mgrwt>
</event>
<event>
 7    1  0.8712071E-006  0.1636534E+03  0.7546771E-02  0.1191699E+00
          3   -1    0    0  501    0  0.00000000000E+00  0.00000000000E+00  0.13207246648E+03  0.13207246648E+03  0.00000000000E+00 0. -1.
         -3   -1    0    0    0  501 -0.00000000000E+00 -0.00000000000E+00 -0.19707534585E+03  0.19707534585E+03  0.00000000000E+00 0.  1.
         23    2    1    2    0    0 -0.53952526202E+02  0.90815798571E+02 -0.90358254045E+02  0.18694129788E+03  0.12499620165E+03 0.  0.
          5    1    3    3  502    0 -0.89310285465E+02  0.81941413017E+02 -0.88477820238E+02  0.15013706048E+03  0.47000000000E+01 0. -1.
         -5    1    3    3    0  502  0.35357759262E+02  0.88743855539E+01 -0.18804338072E+01  0.36804237396E+02  0.47000000000E+01 0. -1.
        -11    1    1    2    0    0  0.42414225537E+02 -0.87135021456E+01  0.38889052963E+02  0.58200086666E+02  0.00000000000E+00 0. -1.
         11    1    1    2    0    0  0.11538300666E+02 -0.82102296425E+02 -0.13533678295E+02  0.84006427782E+02  0.00000000000E+00 0.  1.
<mgrwt>
<rscale>  0 0.15736922E+03</rscale>
<asrwt>0</asrwt>
<pdfrwt beam="1">  1        3 0.20318841E-01 0.16365340E+03</pdfrwt>
<pdfrwt beam="2">  1       -3 0.30319284E-01 0.16365340E+03</pdfrwt>
<totfact> 0.54642886E+02</totfact>
</mgrwt>
</event>
<event>
 7    1  0.8712071E-006  0.2269918E+03  0.7546771E-02  0.1131454E+00
         -2   -1    0    0    0  501 -0.00000000000E+00  0.00000000000E+00  0.24375973495E+03  0.24375973495E+03  0.00000000000E+00 0.  1.
          2   -1    0    0  501    0  0.00000000000E+00 -0.00000000000E+00 -0.20216919368E+03  0.20216919368E+03  0.00000000000E+00 0. -1.
         23    2    1    2    0    0 -0.16345093033E+03  0.95742957599E+02  0.52942507041E+02  0.23308403778E+03  0.12506933702E+03 0.  0.
          5    1    3    3  502    0 -0.41634034665E+02  0.95737391795E+02  0.32748360157E+02  0.10951523238E+03  0.47000000000E+01 0. -1.
         -5    1    3    3    0  502 -0.12181689566E+03  0.55658040880E-02  0.20194146885E+02  0.12356880540E+03  0.47000000000E+01 0. -1.
        -11    1    1    2    0    0  0.89253053525E+02 -0.10006976405E+03 -0.27272069008E+02  0.13683505029E+03  0.00000000000E+00 0. -1.
         11    1    1    2    0    0  0.74197876803E+02  0.43268064469E+01  0.15920103236E+02  0.76009840568E+02  0.00000000000E+00 0.  1.
<mgrwt>
<rscale>  0 0.22328972E+03</rscale>
<asrwt>0</asrwt>
<pdfrwt beam="2">  1        2 0.31102953E-01 0.22699176E+03</pdfrwt>
<pdfrwt beam="1">  1       -2 0.37501498E-01 0.22699176E+03</pdfrwt>
<totfact> 0.11321655E+03</totfact>
</mgrwt>
</event>
<event>
 7    1  0.8712071E-006  0.1453342E+03  0.7546771E-02  0.1215782E+00
         -1   -1    0    0    0  501 -0.00000000000E+00  0.00000000000E+00  0.11195035831E+03  0.11195035831E+03  0.00000000000E+00 0.  1.
          1   -1    0    0  501    0  0.00000000000E+00 -0.00000000000E+00 -0.16269922354E+03  0.16269922354E+03  0.00000000000E+00 0. -1.
         23    2    1    2    0    0  0.42039575406E+02  0.61070334617E+02 -0.55946919175E+02  0.15573084228E+03  0.12500050321E+03 0.  0.
          5    1    3    3  502    0  0.13056353136E+02 -0.20754407498E+02  0.26153746622E+02  0.36156911513E+02  0.47000000000E+01 0.  1.
         -5    1    3    3    0  502  0.28983222270E+02  0.81824742115E+02 -0.82100665797E+02  0.11957393077E+03  0.47000000000E+01 0.  1.
        -11    1    1    2    0    0  0.78052655006E+01 -0.73529717850E+01 -0.34113711392E+02  0.35759385740E+02  0.00000000000E+00 0. -1.
         11    1    1    2    0    0 -0.49844840906E+02 -0.53717362832E+02  0.39311765341E+02  0.83159353827E+02  0.00000000000E+00 0.  1.
<mgrwt>
<rscale>  0 0.13819257E+03</rscale>
<asrwt>0</asrwt>
<pdfrwt beam="2">  1        1 0.25030650E-01 0.14533423E+03</pdfrwt>
<pdfrwt beam="1">  1       -1 0.17223132E-01 0.14533423E+03</pdfrwt>
<totfact> 0.47214271E+03</totfact>
</mgrwt>
</event>
<event>
 7    1  0.8712071E-006  0.1488311E+03  0.7546771E-02  0.1212271E+00
         -1   -1    0    0    0  501 -0.00000000000E+00  0.00000000000E+00  0.12667841265E+04  0.12667841265E+04  0.00000000000E+00 0.  1.
          1   -1    0    0  501    0  0.00000000000E+00 -0.00000000000E+00 -0.17821684484E+02  0.17821684484E+02  0.00000000000E+00 0. -1.
         23    2    1    2    0    0 -0.53481078355E+02 -0.60543761631E+02  0.96854296885E+03  0.97991131164E+03  0.12499969348E+03 0.  0.
          5    1    3    3  502    0 -0.57038176221E+02 -0.31770789728E+02  0.19273435639E+03  0.20354694485E+03  0.47000000000E+01 0.  1.
         -5    1    3    3    0  502  0.35570978660E+01 -0.28772971904E+02  0.77580861246E+03  0.77636436679E+03  0.47000000000E+01 0.  1.
        -11    1    1    2    0    0  0.31145602819E+02 -0.17461882216E+01  0.22606854352E+02  0.38524896002E+02  0.00000000000E+00 0. -1.
         11    1    1    2    0    0  0.22335475536E+02  0.62289949853E+02  0.25781261884E+03  0.26616960336E+03  0.00000000000E+00 0.  1.
<mgrwt>
<rscale>  0 0.14078951E+03</rscale>
<asrwt>0</asrwt>
<pdfrwt beam="2">  1        1 0.27417986E-02 0.14883110E+03</pdfrwt>
<pdfrwt beam="1">  1       -1 0.19488979E+00 0.14883110E+03</pdfrwt>
<totfact> 0.69217442E+02</totfact>
</mgrwt>
</event>
<event>
 7    1  0.8712071E-006  0.1708736E+03  0.7546771E-02  0.1183342E+00
          3   -1    0    0  501    0  0.00000000000E+00  0.00000000000E+00  0.18026252214E+03  0.18026252214E+03  0.00000000000E+00 0. -1.
         -3   -1    0    0    0  501 -0.00000000000E+00 -0.00000000000E+00 -0.14134679437E+03  0.14134679437E+03  0.00000000000E+00 0.  1.
         23    2    1    2    0    0  0.62177915488E+02 -0.98521529327E+02  0.12843139471E+02  0.17135552882E+03  0.12500074444E+03 0.  0.
          5    1    3    3  502    0  0.44862569975E+02 -0.78797070116E+02  0.65755248775E+02  0.11210473311E+03  0.47000000000E+01 0. -1.
         -5    1    3    3    0  502  0.17315345513E+02 -0.19724459211E+02 -0.52912109303E+02  0.59250795710E+02  0.47000000000E+01 0. -1.
        -11    1    1    2    0    0 -0.74497125167E+02  0.73995092086E+02  0.47683443461E+02  0.11532044958E+03  0.00000000000E+00 0. -1.
         11    1    1    2    0    0  0.12319209679E+02  0.24526437242E+02 -0.21610855163E+02  0.34933338114E+02  0.00000000000E+00 0.  1.
<mgrwt>
<rscale>  0 0.16483627E+03</rscale>
<asrwt>0</asrwt>
<pdfrwt beam="1">  1        3 0.27732696E-01 0.17087355E+03</pdfrwt>
<pdfrwt beam="2">  1       -3 0.21745661E-01 0.17087355E+03</pdfrwt>
<totfact> 0.57442007E+02</totfact>
</mgrwt>
</event>
<event>
 7    1  0.8712071E-006  0.1426264E+03  0.7546771E-02  0.1220888E+00
          3   -1    0    0  501    0  0.00000000000E+00  0.00000000000E+00  0.35823332665E+02  0.35823332665E+02  0.00000000000E+00 0. -1.
         -3   -1    0    0    0  501 -0.00000000000E+00 -0.00000000000E+00 -0.47232750677E+03  0.47232750677E+03  0.00000000000E+00 0.  1.
         23    2    1    2    0    0 -0.67341701263E+02  0.13817465712E+02 -0.29022973520E+03  0.32338148312E+03  0.12496582471E+03 0.  0.
          5    1    3    3  502    0 -0.69414983750E+02 -0.25523343441E+02 -0.78453524863E+02  0.10792092750E+03  0.47000000000E+01 0. -1.
         -5    1    3    3    0  502  0.20732824867E+01  0.39340809153E+02 -0.21177621033E+03  0.21546055562E+03  0.47000000000E+01 0. -1.
        -11    1    1    2    0    0  0.40624254447E+02 -0.45994132313E+02 -0.12160838979E+03  0.13621450262E+03  0.00000000000E+00 0.  1.
         11    1    1    2    0    0  0.26717446816E+02  0.32176666601E+02 -0.24666049116E+02  0.48554853691E+02  0.00000000000E+00 0. -1.
<mgrwt>
<rscale>  0 0.13452748E+03</rscale>
<asrwt>0</asrwt>
<pdfrwt beam="1">  1        3 0.55112821E-02 0.14262638E+03</pdfrwt>
<pdfrwt beam="2">  1       -3 0.72665769E-01 0.14262638E+03</pdfrwt>
<totfact> 0.83423280E+02</totfact>
</mgrwt>
</event>
<event>
 7    1  0.8712071E-006  0.1281342E+03  0.7546771E-02  0.1269759E+00
         -2   -1    0    0    0  501 -0.00000000000E+00  0.00000000000E+00  0.14761902767E+02  0.14761902767E+02  0.00000000000E+00 0.  1.
          2   -1    0    0  501    0  0.00000000000E+00 -0.00000000000E+00 -0.58896821554E+03  0.58896821554E+03  0.00000000000E+00 0. -1.
         23    2    1    2    0    0  0.15597759615E+02 -0.23464987951E+02 -0.40664033726E+03  0.42635047658E+03  0.12499787691E+03 0.  0.
          5    1    3    3  502    0 -0.50831179723E+02 -0.30546978648E+02 -0.15731727881E+03  0.16818960417E+03  0.47000000000E+01 0.  1.
         -5    1    3    3    0  502  0.66428939338E+02  0.70819906975E+01 -0.24932305844E+03  0.25816087241E+03  0.47000000000E+01 0.  1.
        -11    1    1    2    0    0 -0.94932548432E+00  0.37457077580E+02 -0.97788131778E+02  0.10472083172E+03  0.00000000000E+00 0.  1.
         11    1    1    2    0    0 -0.14648434131E+02 -0.13992089629E+02 -0.69777843739E+02  0.72658810006E+02  0.00000000000E+00 0. -1.
<mgrwt>
<rscale>  0 0.10518322E+03</rscale>
<asrwt>0</asrwt>
<pdfrwt beam="2">  1        2 0.90610513E-01 0.12813417E+03</pdfrwt>
<pdfrwt beam="1">  1       -2 0.22710615E-02 0.12813417E+03</pdfrwt>
<totfact> 0.30772688E+04</totfact>
</mgrwt>
</event>
<event>
 7    1  0.8712071E-006  0.1634377E+03  0.7546771E-02  0.1194041E+00
         -4   -1    0    0    0  501 -0.00000000000E+00  0.00000000000E+00  0.42105179931E+02  0.42105179931E+02  0.00000000000E+00 0.  1.
          4   -1    0    0  501    0  0.00000000000E+00 -0.00000000000E+00 -0.54542188948E+03  0.54542188948E+03  0.00000000000E+00 0. -1.
         23    2    1    2    0    0  0.12871690724E+02  0.10450447843E+03 -0.21717356309E+03  0.27180185918E+03  0.12500011086E+03 0.  0.
          5    1    3    3  502    0  0.66822205057E+02  0.36516633511E+02 -0.10863059895E+03  0.13274550328E+03  0.47000000000E+01 0.  1.
         -5    1    3    3    0  502 -0.53950514333E+02  0.67987844921E+02 -0.10854296414E+03  0.13905635590E+03  0.47000000000E+01 0.  1.
        -11    1    1    2    0    0  0.16770834802E+02 -0.70086133873E+02 -0.94896293625E+02  0.11915801947E+03  0.00000000000E+00 0.  1.
         11    1    1    2    0    0 -0.29642525526E+02 -0.34418344559E+02 -0.19124685283E+03  0.19656719075E+03  0.00000000000E+00 0. -1.
<mgrwt>
<rscale>  0 0.15535688E+03</rscale>
<asrwt>0</asrwt>
<pdfrwt beam="2">  1        4 0.83911057E-01 0.16343774E+03</pdfrwt>
<pdfrwt beam="1">  1       -4 0.64777202E-02 0.16343774E+03</pdfrwt>
<totfact> 0.34437689E+02</totfact>
</mgrwt>
</event>
<event>
 7    1  0.8712071E-006  0.1367979E+03  0.7546771E-02  0.1229415E+00
          1   -1    0    0  501    0  0.00000000000E+00  0.00000000000E+00  0.46078508083E+03  0.46078508083E+03  0.00000000000E+00 0. -1.
         -1   -1    0    0    0  501 -0.00000000000E+00 -0.00000000000E+00 -0.41646451613E+02  0.41646451613E+02  0.00000000000E+00 0.  1.
         23    2    1    2    0    0  0.30441809480E+02  0.46504242056E+02  0.11089297211E+03  0.17609913018E+03  0.12499721634E+03 0.  0.
          5    1    3    3  502    0 -0.34815897113E+02  0.60362550428E+02  0.59614294151E+02  0.91824497020E+02  0.47000000000E+01 0. -1.
         -5    1    3    3    0  502  0.65257706593E+02 -0.13858308372E+02  0.51278677959E+02  0.84274633158E+02  0.47000000000E+01 0. -1.
        -11    1    1    2    0    0  0.15746377517E+02 -0.56895302097E+02  0.19006003876E+03  0.19901719056E+03  0.00000000000E+00 0.  1.
         11    1    1    2    0    0 -0.46188186997E+02  0.10391060041E+02  0.11818561835E+03  0.12731521171E+03  0.00000000000E+00 0. -1.
<mgrwt>
<rscale>  0 0.12868862E+03</rscale>
<asrwt>0</asrwt>
<pdfrwt beam="1">  1        1 0.70890009E-01 0.13679785E+03</pdfrwt>
<pdfrwt beam="2">  1       -1 0.64071467E-02 0.13679785E+03</pdfrwt>
<totfact> 0.58496387E+03</totfact>
</mgrwt>
</event>
<event>
 7    1  0.8712071E-006  0.1403508E+03  0.7546771E-02  0.1223584E+00
          1   -1    0    0  501    0  0.00000000000E+00  0.00000000000E+00  0.32680304723E+03  0.32680304723E+03  0.00000000000E+00 0. -1.
         -1   -1    0    0    0  501 -0.00000000000E+00 -0.00000000000E+00 -0.50536238310E+02  0.50536238310E+02  0.00000000000E+00 0.  1.
         23    2    1    2    0    0  0.45236137108E+02  0.45392006738E+02  0.18880955957E+03  0.23526029632E+03  0.12486638805E+03 0.  0.
          5    1    3    3  502    0  0.21139648305E+02 -0.41681161218E+02  0.88416339761E+02  0.10011864496E+03  0.47000000000E+01 0.  1.
         -5    1    3    3    0  502  0.24096488803E+02  0.87073167955E+02  0.10039321981E+03  0.13514165136E+03  0.47000000000E+01 0.  1.
        -11    1    1    2    0    0 -0.22707331583E+02 -0.39916532752E+02 -0.55207264384E+01  0.46253982693E+02  0.00000000000E+00 0.  1.
         11    1    1    2    0    0 -0.22528805525E+02 -0.54754739858E+01  0.92977975789E+02  0.95825006525E+02  0.00000000000E+00 0. -1.
<mgrwt>
<rscale>  0 0.13264423E+03</rscale>
<asrwt>0</asrwt>
<pdfrwt beam="1">  1        1 0.50277391E-01 0.14035084E+03</pdfrwt>
<pdfrwt beam="2">  1       -1 0.77748061E-02 0.14035084E+03</pdfrwt>
<totfact> 0.67567481E+03</totfact>
</mgrwt>
</event>
<event>
 7    1  0.8712071E-006  0.1496843E+03  0.7546771E-02  0.1210457E+00
         -2   -1    0    0    0  501 -0.00000000000E+00  0.00000000000E+00  0.32076632320E+02  0.32076632320E+02  0.00000000000E+00 0. -1.
          2   -1    0    0  501    0  0.00000000000E+00 -0.00000000000E+00 -0.67589573614E+03  0.67589573614E+03  0.00000000000E+00 0.  1.
         23    2    1    2    0    0  0.79136949370E+02  0.22717340936E+02 -0.21341519375E+03  0.26067497136E+03  0.12500664556E+03 0.  0.
          5    1    3    3  502    0 -0.32690792089E+02  0.18015373619E+02 -0.51123203262E+02  0.63473722798E+02  0.47000000000E+01 0.  1.
         -5    1    3    3    0  502  0.11182774146E+03  0.47019673173E+01 -0.16229199049E+03  0.19720124856E+03  0.47000000000E+01 0.  1.
        -11    1    1    2    0    0  0.31157337980E+00 -0.39926990400E+02 -0.12248413953E+03  0.12882789324E+03  0.00000000000E+00 0.  1.
         11    1    1    2    0    0 -0.79448522749E+02  0.17209649463E+02 -0.30791977053E+03  0.31846950386E+03  0.00000000000E+00 0. -1.
<mgrwt>
<rscale>  0 0.14215610E+03</rscale>
<asrwt>0</asrwt>
<pdfrwt beam="2">  1        2 0.10398395E+00 0.14968432E+03</pdfrwt>
<pdfrwt beam="1">  1       -2 0.49348671E-02 0.14968432E+03</pdfrwt>
<totfact> 0.84419007E+03</totfact>
</mgrwt>
</event>
<event>
 7    1  0.8712071E-006  0.2010658E+03  0.7546771E-02  0.1153210E+00
          2   -1    0    0  501    0  0.00000000000E+00  0.00000000000E+00  0.12126213025E+04  0.12126213025E+04  0.00000000000E+00 0. -1.
         -2   -1    0    0    0  501 -0.00000000000E+00 -0.00000000000E+00 -0.33196522527E+02  0.33196522527E+02  0.00000000000E+00 0.  1.
         23    2    1    2    0    0  0.14340714578E+03  0.65057000909E+02  0.42880179387E+03  0.47360155606E+03  0.12501772934E+03 0.  0.
          5    1    3    3  502    0  0.14882868492E+03  0.20034542834E+02  0.36891199808E+03  0.39833341900E+03  0.47000000000E+01 0.  1.
         -5    1    3    3    0  502 -0.54215391320E+01  0.45022458076E+02  0.59889795787E+02  0.75268137064E+02  0.47000000000E+01 0.  1.
        -11    1    1    2    0    0 -0.30028095287E+02 -0.59864186983E+02  0.24305393444E+03  0.25211232107E+03  0.00000000000E+00 0. -1.
         11    1    1    2    0    0 -0.11337905050E+03 -0.51928139262E+01  0.50756905168E+03  0.52010394791E+03  0.00000000000E+00 0.  1.
<mgrwt>
<rscale>  0 0.19594097E+03</rscale>
<asrwt>0</asrwt>
<pdfrwt beam="1">  1        2 0.18655709E+00 0.20106580E+03</pdfrwt>
<pdfrwt beam="2">  1       -2 0.51071582E-02 0.20106580E+03</pdfrwt>
<totfact> 0.37038141E+03</totfact>
</mgrwt>
</event>
<event>
 7    1  0.8712071E-006  0.1781509E+03  0.7546771E-02  0.1183893E+00
          2   -1    0    0  501    0  0.00000000000E+00  0.00000000000E+00  0.56377495272E+03  0.56377495272E+03  0.00000000000E+00 0. -1.
         -2   -1    0    0    0  501 -0.00000000000E+00 -0.00000000000E+00 -0.91933184824E+02  0.91933184824E+02  0.00000000000E+00 0.  1.
         23    2    1    2    0    0  0.35458377694E+02  0.11950093142E+03  0.12484160835E+02  0.17858783602E+03  0.12727918818E+03 0.  0.
          5    1    3    3  502    0 -0.32888077084E+02 -0.71735674474E+01 -0.49138581100E+00  0.33991427511E+02  0.47000000000E+01 0. -1.
         -5    1    3    3    0  502  0.68346454778E+02  0.12667449887E+03  0.12975546646E+02  0.14459640851E+03  0.47000000000E+01 0.  1.
        -11    1    1    2    0    0 -0.87541545208E+01 -0.64959485149E+02  0.18955979089E+03  0.20057239156E+03  0.00000000000E+00 0.  1.
         11    1    1    2    0    0 -0.26704223173E+02 -0.54541446269E+02  0.26979781617E+03  0.27654790997E+03  0.00000000000E+00 0. -1.
<mgrwt>
<rscale>  0 0.16433002E+03</rscale>
<asrwt>0</asrwt>
<pdfrwt beam="1">  1        2 0.86734606E-01 0.17815095E+03</pdfrwt>
<pdfrwt beam="2">  1       -2 0.14143567E-01 0.17815095E+03</pdfrwt>
<totfact> 0.20273020E+03</totfact>
</mgrwt>
</event>
<event>
 7    1  0.8712071E-006  0.1401212E+03  0.7546771E-02  0.1224893E+00
         -1   -1    0    0    0  501 -0.00000000000E+00  0.00000000000E+00  0.89580704857E+02  0.89580704857E+02  0.00000000000E+00 0.  1.
          1   -1    0    0  501    0  0.00000000000E+00 -0.00000000000E+00 -0.18205358847E+03  0.18205358847E+03  0.00000000000E+00 0. -1.
         23    2    1    2    0    0 -0.24906310985E+02  0.58211731137E+02 -0.23100089637E+02  0.14201250820E+03  0.12500003350E+03 0.  0.
          5    1    3    3  502    0  0.18611669961E+02  0.61142396444E+02  0.31960493395E+02  0.71612499187E+02  0.47000000000E+01 0.  1.
         -5    1    3    3    0  502 -0.43517980946E+02 -0.29306653078E+01 -0.55060583033E+02  0.70400009010E+02  0.47000000000E+01 0.  1.
        -11    1    1    2    0    0  0.28111352729E+02 -0.24794061973E+02  0.13789396745E+02  0.39939217869E+02  0.00000000000E+00 0.  1.
         11    1    1    2    0    0 -0.32050417444E+01 -0.33417669164E+02 -0.83162190719E+02  0.89682567259E+02  0.00000000000E+00 0. -1.
<mgrwt>
<rscale>  0 0.13174273E+03</rscale>
<asrwt>0</asrwt>
<pdfrwt beam="2">  1        1 0.28008244E-01 0.14012116E+03</pdfrwt>
<pdfrwt beam="1">  1       -1 0.13781647E-01 0.14012116E+03</pdfrwt>
<totfact> 0.58098347E+03</totfact>
</mgrwt>
</event>
<event>
 7    1  0.8712071E-006  0.1319482E+03  0.7546771E-02  0.1238113E+00
          1   -1    0    0  501    0  0.00000000000E+00  0.00000000000E+00  0.78487723547E+02  0.78487723547E+02  0.00000000000E+00 0. -1.
         -1   -1    0    0    0  501 -0.00000000000E+00 -0.00000000000E+00 -0.17677850640E+03  0.17677850640E+03  0.00000000000E+00 0.  1.
         23    2    1    2    0    0 -0.12017846339E+02 -0.40567950228E+02 -0.78248685303E+02  0.15340528773E+03  0.12498055183E+03 0.  0.
          5    1    3    3  502    0  0.90813823722E+01 -0.29727997530E+02  0.29418808948E+02  0.43055564830E+02  0.47000000000E+01 0. -1.
         -5    1    3    3    0  502 -0.21099228711E+02 -0.10839952698E+02 -0.10766749425E+03  0.11034972290E+03  0.47000000000E+01 0. -1.
        -11    1    1    2    0    0 -0.85045601547E+01  0.81381613314E+01  0.33771619709E+02  0.35764221102E+02  0.00000000000E+00 0. -1.
         11    1    1    2    0    0  0.20522406494E+02  0.32429788897E+02 -0.53813717256E+02  0.66096721107E+02  0.00000000000E+00 0.  1.
<mgrwt>
<rscale>  0 0.12307251E+03</rscale>
<asrwt>0</asrwt>
<pdfrwt beam="1">  1        1 0.12075035E-01 0.13194819E+03</pdfrwt>
<pdfrwt beam="2">  1       -1 0.27196693E-01 0.13194819E+03</pdfrwt>
<totfact> 0.57062014E+03</totfact>
</mgrwt>
</event>
<event>
 6    1  0.8712071E-006  0.1349084E+03  0.7546771E-02  0.1233335E+00
         -1   -1    0    0    0  501 -0.00000000000E+00  0.00000000000E+00  0.86977758629E+03  0.86977758629E+03  0.00000000000E+00 0.  1.
          1   -1    0    0  501    0  0.00000000000E+00 -0.00000000000E+00 -0.15290026783E+03  0.15290026783E+03  0.00000000000E+00 0. -1.
          5    1    1    2  502    0  0.33926493054E+02  0.49615079721E+02  0.22407034317E+03  0.23203937545E+03  0.47000000000E+01 0. -1.
         -5    1    1    2    0  502 -0.53846156557E+02 -0.21558074451E+02  0.62238011124E+03  0.62509459446E+03  0.47000000000E+01 0.  1.
        -11    1    1    2    0    0  0.31460862989E+01  0.36152877374E+02 -0.52718195111E+02  0.64001066376E+02  0.00000000000E+00 0. -1.
         11    1    1    2    0    0  0.16773577204E+02 -0.64209882645E+02 -0.76854940846E+02  0.10154281784E+03  0.00000000000E+00 0.  1.
<mgrwt>
<rscale>  0 0.12611657E+03</rscale>
<asrwt>0</asrwt>
<pdfrwt beam="2">  1        1 0.23523119E-01 0.13490838E+03</pdfrwt>
<pdfrwt beam="1">  1       -1 0.13381193E+00 0.13490838E+03</pdfrwt>
<totfact> 0.10818684E+02</totfact>
</mgrwt>
</event>
<event>
 7    1  0.8712071E-006  0.2257894E+03  0.7546771E-02  0.1132768E+00
         -2   -1    0    0    0  501 -0.00000000000E+00  0.00000000000E+00  0.10821073708E+03  0.10821073708E+03  0.00000000000E+00 0.  1.
          2   -1    0    0  501    0  0.00000000000E+00 -0.00000000000E+00 -0.48867931345E+03  0.48867931345E+03  0.00000000000E+00 0. -1.
         23    2    1    2    0    0  0.86549443601E+02  0.16693320262E+03 -0.99757099170E+02  0.24684474844E+03  0.12499340251E+03 0.  0.
          5    1    3    3  502    0  0.10910268346E+03  0.16573432048E+03 -0.10289443960E+03  0.22356345011E+03  0.47000000000E+01 0. -1.
         -5    1    3    3    0  502 -0.22553239862E+02  0.11988821363E+01  0.31373404348E+01  0.23281298324E+02  0.47000000000E+01 0. -1.
        -11    1    1    2    0    0 -0.38639482871E+02 -0.36999620078E+02 -0.24582810441E+02  0.58875258739E+02  0.00000000000E+00 0.  1.
         11    1    1    2    0    0 -0.47909960730E+02 -0.12993358254E+03 -0.25612866676E+03  0.29117004335E+03  0.00000000000E+00 0. -1.
<mgrwt>
<rscale>  0 0.22150245E+03</rscale>
<asrwt>0</asrwt>
<pdfrwt beam="2">  1        2 0.75181433E-01 0.22578940E+03</pdfrwt>
<pdfrwt beam="1">  1       -2 0.16647806E-01 0.22578940E+03</pdfrwt>
<totfact> 0.18275624E+03</totfact>
</mgrwt>
</event>
<event>
 6    1  0.8712071E-006  0.2309920E+03  0.7546771E-02  0.1137907E+00
         -1   -1    0    0    0  501 -0.00000000000E+00  0.00000000000E+00  0.19827947596E+03  0.19827947596E+03  0.00000000000E+00 0.  1.
          1   -1    0    0  501    0  0.00000000000E+00 -0.00000000000E+00 -0.34331926657E+03  0.34331926657E+03  0.00000000000E+00 0. -1.
          5    1    1    2  502    0 -0.87596415528E+02 -0.54101160583E+02  0.16029131623E+02  0.10430287940E+03  0.47000000000E+01 0. -1.
         -5    1    1    2    0  502  0.12238377013E+03  0.81275251218E+01  0.75868694757E+02  0.14429827684E+03  0.47000000000E+01 0.  1.
        -11    1    1    2    0    0  0.46939971077E+02 -0.34041932548E+02 -0.79781300340E+02  0.98626922999E+02  0.00000000000E+00 0.  1.
         11    1    1    2    0    0 -0.81727325681E+02  0.80015568009E+02 -0.15715631665E+03  0.19437066329E+03  0.00000000000E+00 0. -1.
<mgrwt>
<rscale>  0 0.21468773E+03</rscale>
<asrwt>0</asrwt>
<pdfrwt beam="2">  1        1 0.52818348E-01 0.23099204E+03</pdfrwt>
<pdfrwt beam="1">  1       -1 0.30504535E-01 0.23099204E+03</pdfrwt>
<totfact> 0.73473436E+02</totfact>
</mgrwt>
</event>
<event>
 7    1  0.8712071E-006  0.1684737E+03  0.7546771E-02  0.1185443E+00
         -2   -1    0    0    0  501 -0.00000000000E+00  0.00000000000E+00  0.29718266056E+02  0.29718266056E+02  0.00000000000E+00 0.  1.
          2   -1    0    0  501    0  0.00000000000E+00 -0.00000000000E+00 -0.97027803152E+03  0.97027803152E+03  0.00000000000E+00 0. -1.
         23    2    1    2    0    0  0.99929231971E+02  0.52640621510E+02 -0.31390967294E+03  0.35626207041E+03  0.12500597430E+03 0.  0.
          5    1    3    3  502    0  0.95995310038E+02  0.75847699311E+02 -0.30814441236E+03  0.33157660036E+03  0.47000000000E+01 0. -1.
         -5    1    3    3    0  502  0.39339219332E+01 -0.23207077801E+02 -0.57652605850E+01  0.24685470047E+02  0.47000000000E+01 0. -1.
        -11    1    1    2    0    0 -0.29593437341E+02 -0.61663100857E+02 -0.20358239440E+03  0.21476475701E+03  0.00000000000E+00 0.  1.
         11    1    1    2    0    0 -0.70335794630E+02  0.90224793475E+01 -0.42306769812E+03  0.42896947016E+03  0.00000000000E+00 0. -1.
<mgrwt>
<rscale>  0 0.16291649E+03</rscale>
<asrwt>0</asrwt>
<pdfrwt beam="2">  1        2 0.14927352E+00 0.16847368E+03</pdfrwt>
<pdfrwt beam="1">  1       -2 0.45720417E-02 0.16847368E+03</pdfrwt>
<totfact> 0.60322313E+03</totfact>
</mgrwt>
</event>
<event>
 7    1  0.8712071E-006  0.1148078E+03  0.7546771E-02  0.1262416E+00
          1   -1    0    0  501    0  0.00000000000E+00  0.00000000000E+00  0.14020997562E+03  0.14020997562E+03  0.00000000000E+00 0. -1.
         -1   -1    0    0    0  501 -0.00000000000E+00 -0.00000000000E+00 -0.16736184224E+03  0.16736184224E+03  0.00000000000E+00 0.  1.
         23    2    1    2    0    0 -0.13599285164E+02  0.29740321759E+01 -0.12680119477E+03  0.17105374071E+03  0.11396075548E+03 0.  0.
          5    1    3    3  502    0 -0.20512778604E+02 -0.52114949356E+02 -0.44609485276E+02  0.71755405434E+02  0.47000000000E+01 0. -1.
         -5    1    3    3    0  502  0.69134934394E+01  0.55088981532E+02 -0.82191709496E+02  0.99298335271E+02  0.47000000000E+01 0.  1.
        -11    1    1    2    0    0 -0.31759908125E+02 -0.26904425846E+02  0.50998330825E+02  0.65828334638E+02  0.00000000000E+00 0.  1.
         11    1    1    2    0    0  0.45359193290E+02  0.23930393670E+02  0.48650997324E+02  0.70689742521E+02  0.00000000000E+00 0. -1.
<mgrwt>
<rscale>  0 0.10900927E+03</rscale>
<asrwt>0</asrwt>
<pdfrwt beam="1">  1        1 0.21570766E-01 0.11480784E+03</pdfrwt>
<pdfrwt beam="2">  1       -1 0.25747976E-01 0.11480784E+03</pdfrwt>
<totfact> 0.29386398E+03</totfact>
</mgrwt>
</event>
<event>
 7    1  0.8712071E-006  0.1408880E+03  0.7546771E-02  0.1222025E+00
         -2   -1    0    0    0  501 -0.00000000000E+00  0.00000000000E+00  0.27233111801E+03  0.27233111801E+03  0.00000000000E+00 0.  1.
          2   -1    0    0  501    0  0.00000000000E+00 -0.00000000000E+00 -0.61418963543E+02  0.61418963543E+02  0.00000000000E+00 0. -1.
         23    2    1    2    0    0 -0.15965165976E+02 -0.63006002571E+02  0.14299014889E+03  0.20073765736E+03  0.12499912608E+03 0.  0.
          5    1    3    3  502    0  0.31471637742E+02  0.23786725127E+02  0.26062802148E+02  0.47514544408E+02  0.47000000000E+01 0.  1.
         -5    1    3    3    0  502 -0.47436803719E+02 -0.86792727698E+02  0.11692734674E+03  0.15322311296E+03  0.47000000000E+01 0.  1.
        -11    1    1    2    0    0 -0.87553225953E+01  0.51849506480E+02 -0.72653110056E+01  0.53083064531E+02  0.00000000000E+00 0. -1.
         11    1    1    2    0    0  0.24720488572E+02  0.11156496090E+02  0.75187316579E+02  0.79929359653E+02  0.00000000000E+00 0.  1.
<mgrwt>
<rscale>  0 0.13372940E+03</rscale>
<asrwt>0</asrwt>
<pdfrwt beam="2">  1        2 0.94490714E-02 0.14088799E+03</pdfrwt>
<pdfrwt beam="1">  1       -2 0.41897095E-01 0.14088799E+03</pdfrwt>
<totfact> 0.35935157E+03</totfact>
</mgrwt>
</event>
<event>
 7    1  0.8712071E-006  0.1200531E+03  0.7546771E-02  0.1252594E+00
         -2   -1    0    0    0  501 -0.00000000000E+00  0.00000000000E+00  0.10718585745E+02  0.10718585745E+02  0.00000000000E+00 0.  1.
          2   -1    0    0  501    0  0.00000000000E+00 -0.00000000000E+00 -0.11353420504E+04  0.11353420504E+04  0.00000000000E+00 0. -1.
         23    2    1    2    0    0  0.25499198846E+02  0.18451945648E+02 -0.54878096319E+03  0.56175911182E+03  0.11585366076E+03 0.  0.
          5    1    3    3  502    0  0.43250512744E+02  0.17515273854E+02 -0.53880131361E+03  0.54083855005E+03  0.47000000000E+01 0. -1.
         -5    1    3    3    0  502 -0.17751313898E+02  0.93667179447E+00 -0.99796495859E+01  0.20920561776E+02  0.47000000000E+01 0.  1.
        -11    1    1    2    0    0  0.16830683480E+02 -0.45713778645E+02 -0.28165482223E+03  0.28583642236E+03  0.00000000000E+00 0.  1.
         11    1    1    2    0    0 -0.42329882326E+02  0.27261832997E+02 -0.29418767926E+03  0.29846510198E+03  0.00000000000E+00 0. -1.
<mgrwt>
<rscale>  0 0.11442189E+03</rscale>
<asrwt>0</asrwt>
<pdfrwt beam="2">  1        2 0.17466787E+00 0.12005313E+03</pdfrwt>
<pdfrwt beam="1">  1       -2 0.16490145E-02 0.12005313E+03</pdfrwt>
<totfact> 0.21184987E+04</totfact>
</mgrwt>
</event>
<event>
 7    1  0.8712071E-006  0.1345858E+03  0.7546771E-02  0.1234337E+00
         -2   -1    0    0    0  501 -0.00000000000E+00  0.00000000000E+00  0.10727566613E+03  0.10727566613E+03  0.00000000000E+00 0.  1.
          2   -1    0    0  501    0  0.00000000000E+00 -0.00000000000E+00 -0.15077847309E+03  0.15077847309E+03  0.00000000000E+00 0. -1.
         23    2    1    2    0    0 -0.18925071727E+02 -0.46156908898E+02  0.23048567340E+02  0.13654510711E+03  0.12499884495E+03 0.  0.
          5    1    3    3  502    0  0.19826139676E+02 -0.28108059005E+02  0.66745975993E+02  0.75234660275E+02  0.47000000000E+01 0. -1.
         -5    1    3    3    0  502 -0.38751211403E+02 -0.18048849893E+02 -0.43697408653E+02  0.61310446831E+02  0.47000000000E+01 0. -1.
        -11    1    1    2    0    0 -0.65079372609E+01 -0.19898028471E+02  0.42854723408E+01  0.21369371952E+02  0.00000000000E+00 0.  1.
         11    1    1    2    0    0  0.25433008988E+02  0.66054937369E+02 -0.70836846640E+02  0.10013966017E+03  0.00000000000E+00 0. -1.
<mgrwt>
<rscale>  0 0.12547005E+03</rscale>
<asrwt>0</asrwt>
<pdfrwt beam="2">  1        2 0.23196688E-01 0.13458577E+03</pdfrwt>
<pdfrwt beam="1">  1       -2 0.16503949E-01 0.13458577E+03</pdfrwt>
<totfact> 0.64829778E+03</totfact>
</mgrwt>
</event>
<event>
 7    1  0.8712071E-006  0.1356957E+03  0.7546771E-02  0.1231401E+00
         -1   -1    0    0    0  501 -0.00000000000E+00  0.00000000000E+00  0.21565875527E+03  0.21565875527E+03  0.00000000000E+00 0.  1.
          1   -1    0    0  501    0  0.00000000000E+00 -0.00000000000E+00 -0.69023921172E+02  0.69023921172E+02  0.00000000000E+00 0. -1.
         23    2    1    2    0    0 -0.26071611382E+02  0.45947839625E+02  0.10425564772E+03  0.17112149725E+03  0.12498957498E+03 0.  0.
          5    1    3    3  502    0 -0.68722810029E+02  0.38199189929E+02  0.28595484935E+02  0.83796148409E+02  0.47000000000E+01 0.  1.
         -5    1    3    3    0  502  0.42651198647E+02  0.77486496957E+01  0.75660162786E+02  0.87325348845E+02  0.47000000000E+01 0.  1.
        -11    1    1    2    0    0  0.22754228468E+02 -0.58934234216E+02  0.62836863552E+02  0.89103705293E+02  0.00000000000E+00 0.  1.
         11    1    1    2    0    0  0.33173829136E+01  0.12986394591E+02 -0.20457677175E+02  0.24457473894E+02  0.00000000000E+00 0. -1.
<mgrwt>
<rscale>  0 0.12737690E+03</rscale>
<asrwt>0</asrwt>
<pdfrwt beam="2">  1        1 0.10619065E-01 0.13569571E+03</pdfrwt>
<pdfrwt beam="1">  1       -1 0.33178270E-01 0.13569571E+03</pdfrwt>
<totfact> 0.48478784E+03</totfact>
</mgrwt>
</event>
<event>
 7    1  0.8712071E-006  0.2807959E+03  0.7546771E-02  0.1097165E+00
          2   -1    0    0  501    0  0.00000000000E+00  0.00000000000E+00  0.12560085591E+03  0.12560085591E+03  0.00000000000E+00 0. -1.
         -2   -1    0    0    0  501 -0.00000000000E+00 -0.00000000000E+00 -0.59760333892E+03  0.59760333892E+03  0.00000000000E+00 0.  1.
         23    2    1    2    0    0 -0.24527762358E+03  0.55293221042E+02 -0.24459817997E+03  0.37239040424E+03  0.12501156188E+03 0.  0.
          5    1    3    3  502    0 -0.14480379055E+03  0.49589282547E+02 -0.22108350916E+03  0.26893724681E+03  0.47000000000E+01 0.  1.
         -5    1    3    3    0  502 -0.10047383303E+03  0.57039384949E+01 -0.23514670810E+02  0.10345315743E+03  0.47000000000E+01 0.  1.
        -11    1    1    2    0    0  0.13672149448E+03 -0.72518992051E+02 -0.10924892772E+03  0.18943890696E+03  0.00000000000E+00 0. -1.
         11    1    1    2    0    0  0.10855612910E+03  0.17225771010E+02 -0.11815537532E+03  0.16137488364E+03  0.00000000000E+00 0.  1.
<mgrwt>
<rscale>  0 0.27731484E+03</rscale>
<asrwt>0</asrwt>
<pdfrwt beam="1">  1        2 0.19323209E-01 0.28079591E+03</pdfrwt>
<pdfrwt beam="2">  1       -2 0.91938974E-01 0.28079591E+03</pdfrwt>
<totfact> 0.30190470E+02</totfact>
</mgrwt>
</event>
<event>
 7    1  0.8712071E-006  0.1781536E+03  0.7546771E-02  0.1176006E+00
         -2   -1    0    0    0  501 -0.00000000000E+00  0.00000000000E+00  0.20431687454E+03  0.20431687454E+03  0.00000000000E+00 0.  1.
          2   -1    0    0  501    0  0.00000000000E+00 -0.00000000000E+00 -0.13614514160E+03  0.13614514160E+03  0.00000000000E+00 0. -1.
         23    2    1    2    0    0 -0.12693142923E+03  0.13420059763E+01  0.20870240620E+02  0.17937188622E+03  0.12500127165E+03 0.  0.
          5    1    3    3  502    0 -0.77503757753E+02 -0.40863436031E+02 -0.34082380357E+02  0.94129440245E+02  0.47000000000E+01 0. -1.
         -5    1    3    3    0  502 -0.49427671481E+02  0.42205442007E+02  0.54952620978E+02  0.85242445972E+02  0.47000000000E+01 0. -1.
        -11    1    1    2    0    0  0.47985071050E+02  0.33337442212E+02  0.46799939334E+02  0.74861114195E+02  0.00000000000E+00 0. -1.
         11    1    1    2    0    0  0.78946358184E+02 -0.34679448188E+02  0.50155298420E+00  0.86229015723E+02  0.00000000000E+00 0.  1.
<mgrwt>
<rscale>  0 0.17177832E+03</rscale>
<asrwt>0</asrwt>
<pdfrwt beam="2">  1        2 0.20945406E-01 0.17815360E+03</pdfrwt>
<pdfrwt beam="1">  1       -2 0.31433365E-01 0.17815360E+03</pdfrwt>
<totfact> 0.24212082E+03</totfact>
</mgrwt>
</event>
<event>
 7    1  0.8712071E-006  0.1433699E+03  0.7546771E-02  0.1214668E+00
          2   -1    0    0  501    0  0.00000000000E+00  0.00000000000E+00  0.97155757673E+03  0.97155757673E+03  0.00000000000E+00 0. -1.
         -2   -1    0    0    0  501 -0.00000000000E+00 -0.00000000000E+00 -0.18786494497E+02  0.18786494497E+02  0.00000000000E+00 0.  1.
         23    2    1    2    0    0 -0.71920772494E+02  0.50257719736E+02  0.49083932722E+03  0.51134937574E+03  0.11338652041E+03 0.  0.
          5    1    3    3  502    0  0.42672864981E+01  0.65071126897E+02  0.20975407805E+03  0.21970736116E+03  0.47000000000E+01 0. -1.
         -5    1    3    3    0  502 -0.76188058993E+02 -0.14813407160E+02  0.28108524918E+03  0.29164201458E+03  0.47000000000E+01 0.  1.
        -11    1    1    2    0    0  0.70893815457E+02 -0.69640815025E+02  0.43227258774E+03  0.44354860647E+03  0.00000000000E+00 0.  1.
         11    1    1    2    0    0  0.10269570378E+01  0.19383095288E+02  0.29659167272E+02  0.35446089022E+02  0.00000000000E+00 0. -1.
<mgrwt>
<rscale>  0 0.13900959E+03</rscale>
<asrwt>0</asrwt>
<pdfrwt beam="1">  1        2 0.14947036E+00 0.14336994E+03</pdfrwt>
<pdfrwt beam="2">  1       -2 0.28902307E-02 0.14336994E+03</pdfrwt>
<totfact> 0.11808570E+04</totfact>
</mgrwt>
</event>
<event>
 7    1  0.8712071E-006  0.1523000E+03  0.7546771E-02  0.1205723E+00
         -1   -1    0    0    0  501 -0.00000000000E+00  0.00000000000E+00  0.42227573585E+02  0.42227573585E+02  0.00000000000E+00 0.  1.
          1   -1    0    0  501    0  0.00000000000E+00 -0.00000000000E+00 -0.52025412358E+03  0.52025412358E+03  0.00000000000E+00 0. -1.
         23    2    1    2    0    0  0.38834091275E+02  0.77711204879E+02 -0.16619347238E+03  0.22542306325E+03  0.12509264236E+03 0.  0.
          5    1    3    3  502    0  0.50558327357E+02  0.65145641338E+02 -0.29703618614E+02  0.87775247133E+02  0.47000000000E+01 0. -1.
         -5    1    3    3    0  502 -0.11724236081E+02  0.12565563540E+02 -0.13648985377E+03  0.13764781611E+03  0.47000000000E+01 0. -1.
        -11    1    1    2    0    0 -0.59748877969E+01 -0.81999967154E+02 -0.14253275522E+03  0.16454567818E+03  0.00000000000E+00 0.  1.
         11    1    1    2    0    0 -0.32859203479E+02  0.42887622749E+01 -0.16930032239E+03  0.17251295573E+03  0.00000000000E+00 0. -1.
<mgrwt>
<rscale>  0 0.14580638E+03</rscale>
<asrwt>0</asrwt>
<pdfrwt beam="2">  1        1 0.80039097E-01 0.15229999E+03</pdfrwt>
<pdfrwt beam="1">  1       -1 0.64965497E-02 0.15229999E+03</pdfrwt>
<totfact> 0.49196721E+03</totfact>
</mgrwt>
</event>
<event>
 7    1  0.8712071E-006  0.2369591E+03  0.7546771E-02  0.1124386E+00
         -1   -1    0    0    0  501 -0.00000000000E+00  0.00000000000E+00  0.31433974495E+03  0.31433974495E+03  0.00000000000E+00 0.  1.
          1   -1    0    0  501    0  0.00000000000E+00 -0.00000000000E+00 -0.31007152668E+03  0.31007152668E+03  0.00000000000E+00 0. -1.
         23    2    1    2    0    0  0.12543541899E+03 -0.15745521507E+03  0.21358105011E+03  0.31900856257E+03  0.12499363559E+03 0.  0.
          5    1    3    3  502    0  0.14736375344E+03 -0.13088110179E+03  0.15458936676E+03  0.25053123747E+03  0.47000000000E+01 0. -1.
         -5    1    3    3    0  502 -0.21928334447E+02 -0.26574113275E+02  0.58991683351E+02  0.68477325097E+02  0.47000000000E+01 0. -1.
        -11    1    1    2    0    0 -0.15947710377E+02  0.23753029552E+02  0.60854660276E+01  0.29250107281E+02  0.00000000000E+00 0.  1.
         11    1    1    2    0    0 -0.10948770862E+03  0.13370218551E+03 -0.21539829786E+03  0.27615260178E+03  0.00000000000E+00 0. -1.
<mgrwt>
<rscale>  0 0.23323064E+03</rscale>
<asrwt>0</asrwt>
<pdfrwt beam="2">  1        1 0.47703312E-01 0.23695906E+03</pdfrwt>
<pdfrwt beam="1">  1       -1 0.48359961E-01 0.23695906E+03</pdfrwt>
<totfact> 0.37019513E+02</totfact>
</mgrwt>
</event>
<event>
 7    1  0.8712071E-006  0.1379462E+03  0.7546771E-02  0.1227438E+00
          1   -1    0    0  501    0  0.00000000000E+00  0.00000000000E+00  0.34237935708E+03  0.34237935708E+03  0.00000000000E+00 0. -1.
         -1   -1    0    0    0  501 -0.00000000000E+00 -0.00000000000E+00 -0.76926079140E+02  0.76926079140E+02  0.00000000000E+00 0.  1.
         23    2    1    2    0    0  0.36156804382E+02 -0.45791973398E+02  0.61484517248E+01  0.13808312236E+03  0.12499970357E+03 0.  0.
          5    1    3    3  502    0  0.76168248989E+02 -0.57059704795E+02 -0.27011415727E+01  0.95324698957E+02  0.47000000000E+01 0. -1.
         -5    1    3    3    0  502 -0.40011444608E+02  0.11267731397E+02  0.88495932976E+01  0.42758423404E+02  0.47000000000E+01 0. -1.
        -11    1    1    2    0    0  0.14969052753E+02  0.32888349111E+02  0.33268790632E+02  0.49117496655E+02  0.00000000000E+00 0.  1.
         11    1    1    2    0    0 -0.51125857135E+02  0.12903624287E+02  0.22603603558E+03  0.23210481720E+03  0.00000000000E+00 0. -1.
<mgrwt>
<rscale>  0 0.13001195E+03</rscale>
<asrwt>0</asrwt>
<pdfrwt beam="1">  1        1 0.52673746E-01 0.13794617E+03</pdfrwt>
<pdfrwt beam="2">  1       -1 0.11834782E-01 0.13794617E+03</pdfrwt>
<totfact> 0.33578627E+03</totfact>
</mgrwt>
</event>
<event>
 6    1  0.8712071E-006  0.2955829E+03  0.7546771E-02  0.1120548E+00
          2   -1    0    0  501    0  0.00000000000E+00  0.00000000000E+00  0.20950965041E+03  0.20950965041E+03  0.00000000000E+00 0. -1.
         -2   -1    0    0    0  501 -0.00000000000E+00 -0.00000000000E+00 -0.25701190398E+03  0.25701190398E+03  0.00000000000E+00 0.  1.
          5    1    1    2  502    0  0.10417445092E+03 -0.61758911868E+02  0.43941251163E+02  0.12891626342E+03  0.47000000000E+01 0. -1.
         -5    1    1    2    0  502 -0.92128836113E+02 -0.17700939716E+02 -0.16629405849E+03  0.19098913477E+03  0.47000000000E+01 0.  1.
        -11    1    1    2    0    0  0.40388681509E+02  0.46588831260E+02  0.51960021465E+02  0.80632553121E+02  0.00000000000E+00 0. -1.
         11    1    1    2    0    0 -0.52434296315E+02  0.32871020324E+02  0.22890532287E+02  0.65983603081E+02  0.00000000000E+00 0.  1.
<mgrwt>
<rscale>  0 0.23887054E+03</rscale>
<asrwt>0</asrwt>
<pdfrwt beam="1">  1        2 0.32232254E-01 0.29558291E+03</pdfrwt>
<pdfrwt beam="2">  1       -2 0.39540293E-01 0.29558291E+03</pdfrwt>
<totfact> 0.98872471E+02</totfact>
</mgrwt>
</event>
<event>
 7    1  0.8712071E-006  0.1814726E+03  0.7546771E-02  0.1171552E+00
          2   -1    0    0  501    0  0.00000000000E+00  0.00000000000E+00  0.45172763466E+02  0.45172763466E+02  0.00000000000E+00 0.  1.
         -2   -1    0    0    0  501 -0.00000000000E+00 -0.00000000000E+00 -0.69715781177E+03  0.69715781177E+03  0.00000000000E+00 0. -1.
         23    2    1    2    0    0 -0.12700059732E+03  0.34298934227E+02 -0.44043604546E+03  0.47635724049E+03  0.12500696709E+03 0.  0.
          5    1    3    3  502    0 -0.43789765637E+01 -0.17104002927E+02 -0.20593799397E+03  0.20674687352E+03  0.47000000000E+01 0. -1.
         -5    1    3    3    0  502 -0.12262162075E+03  0.51402937155E+02 -0.23449805149E+03  0.26961036697E+03  0.47000000000E+01 0. -1.
        -11    1    1    2    0    0  0.70560383695E+02  0.28959307646E+02 -0.94251393934E+02  0.12124658554E+03  0.00000000000E+00 0.  1.
         11    1    1    2    0    0  0.56440213624E+02 -0.63258241874E+02 -0.11729760891E+03  0.14472674920E+03  0.00000000000E+00 0. -1.
<mgrwt>
<rscale>  0 0.17618003E+03</rscale>
<asrwt>0</asrwt>
<pdfrwt beam="1">  1        2 0.69496570E-02 0.18147262E+03</pdfrwt>
<pdfrwt beam="2">  1       -2 0.10725503E+00 0.18147262E+03</pdfrwt>
<totfact> 0.73217449E+02</totfact>
</mgrwt>
</event>
<event>
 7    1  0.8712071E-006  0.1381458E+03  0.7546771E-02  0.1228277E+00
         -1   -1    0    0    0  501 -0.00000000000E+00  0.00000000000E+00  0.17322280128E+03  0.17322280128E+03  0.00000000000E+00 0.  1.
          1   -1    0    0  501    0  0.00000000000E+00 -0.00000000000E+00 -0.10055766223E+03  0.10055766223E+03  0.00000000000E+00 0. -1.
         23    2    1    2    0    0 -0.29336641029E+02  0.50958463061E+02  0.91394125776E+02  0.16564165456E+03  0.12500747191E+03 0.  0.
          5    1    3    3  502    0 -0.32339260187E+02  0.85438269524E+00 -0.23442236349E+02  0.40226684729E+02  0.47000000000E+01 0.  1.
         -5    1    3    3    0  502  0.30026191585E+01  0.50104080366E+02  0.11483636212E+03  0.12541496983E+03  0.47000000000E+01 0.  1.
        -11    1    1    2    0    0  0.47239748317E+02 -0.24299888698E+02 -0.42625889297E+02  0.68110534061E+02  0.00000000000E+00 0. -1.
         11    1    1    2    0    0 -0.17903107288E+02 -0.26658574363E+02  0.23896902575E+02  0.40028274886E+02  0.00000000000E+00 0.  1.
<mgrwt>
<rscale>  0 0.12944802E+03</rscale>
<asrwt>0</asrwt>
<pdfrwt beam="2">  1        1 0.15470410E-01 0.13814583E+03</pdfrwt>
<pdfrwt beam="1">  1       -1 0.26649662E-01 0.13814583E+03</pdfrwt>
<totfact> 0.42870012E+03</totfact>
</mgrwt>
</event>
<event>
 7    1  0.8712071E-006  0.3691331E+03  0.7546771E-02  0.1055988E+00
          2   -1    0    0  501    0  0.00000000000E+00  0.00000000000E+00  0.10186158646E+04  0.10186158646E+04  0.00000000000E+00 0. -1.
         -2   -1    0    0    0  501 -0.00000000000E+00 -0.00000000000E+00 -0.37092182077E+03  0.37092182077E+03  0.00000000000E+00 0.  1.
         23    2    1    2    0    0 -0.27551175695E+03  0.21149518468E+03 -0.23428584052E+03  0.43720600554E+03  0.12498917894E+03 0.  0.
          5    1    3    3  502    0 -0.22104302689E+03  0.13340512498E+03 -0.11025751593E+03  0.28077705912E+03  0.47000000000E+01 0. -1.
         -5    1    3    3    0  502 -0.54468730055E+02  0.78090059694E+02 -0.12402832459E+03  0.15642894642E+03  0.47000000000E+01 0. -1.
        -11    1    1    2    0    0  0.12893095229E+03 -0.12148686642E+03  0.33517656413E+03  0.37911156447E+03  0.00000000000E+00 0.  1.
         11    1    1    2    0    0  0.14658080466E+03 -0.90008318252E+02  0.54680332027E+03  0.57322011541E+03  0.00000000000E+00 0. -1.
<mgrwt>
<rscale>  0 0.36663234E+03</rscale>
<asrwt>0</asrwt>
<pdfrwt beam="1">  1        2 0.15671013E+00 0.36913309E+03</pdfrwt>
<pdfrwt beam="2">  1       -2 0.57064896E-01 0.36913309E+03</pdfrwt>
<totfact> 0.74706116E+01</totfact>
</mgrwt>
</event>
<event>
 7    1  0.8712071E-006  0.1268178E+03  0.7546771E-02  0.1247501E+00
          2   -1    0    0  501    0  0.00000000000E+00  0.00000000000E+00  0.83157493527E+03  0.83157493527E+03  0.00000000000E+00 0. -1.
         -2   -1    0    0    0  501 -0.00000000000E+00 -0.00000000000E+00 -0.15131775684E+02  0.15131775684E+02  0.00000000000E+00 0.  1.
         23    2    1    2    0    0 -0.90169370885E+01 -0.19398161966E+02  0.38513283203E+03  0.40547510905E+03  0.12500068763E+03 0.  0.
          5    1    3    3  502    0  0.16718053737E+01 -0.70950822392E+02  0.26185675167E+03  0.27134454579E+03  0.47000000000E+01 0.  1.
         -5    1    3    3    0  502 -0.10688742462E+02  0.51552660426E+02  0.12327608036E+03  0.13413056326E+03  0.47000000000E+01 0.  1.
        -11    1    1    2    0    0 -0.40719763454E+02  0.47417196337E+01  0.17635239063E+03  0.18105454626E+03  0.00000000000E+00 0.  1.
         11    1    1    2    0    0  0.49736700542E+02  0.14656442333E+02  0.25495793693E+03  0.26017705564E+03  0.00000000000E+00 0. -1.
<mgrwt>
<rscale>  0 0.11736930E+03</rscale>
<asrwt>0</asrwt>
<pdfrwt beam="1">  1        2 0.12793457E+00 0.12681784E+03</pdfrwt>
<pdfrwt beam="2">  1       -2 0.23279661E-02 0.12681784E+03</pdfrwt>
<totfact> 0.19688947E+04</totfact>
</mgrwt>
</event>
<event>
 6    1  0.8712071E-006  0.2767030E+03  0.7546771E-02  0.1140245E+00
         -1   -1    0    0    0  501 -0.00000000000E+00  0.00000000000E+00  0.90816865739E+02  0.90816865739E+02  0.00000000000E+00 0.  1.
          1   -1    0    0  501    0  0.00000000000E+00 -0.00000000000E+00 -0.54375321142E+03  0.54375321142E+03  0.00000000000E+00 0. -1.
          5    1    1    2  502    0  0.10049151950E+03 -0.22614049627E+02  0.14190343973E+02  0.10408360386E+03  0.47000000000E+01 0. -1.
         -5    1    1    2    0  502 -0.13128707481E+03  0.28108151203E+02 -0.15921362983E+03  0.20832050811E+03  0.47000000000E+01 0.  1.
        -11    1    1    2    0    0 -0.24223994322E+02 -0.92975045974E+01 -0.34074432359E+02  0.42828873826E+02  0.00000000000E+00 0.  1.
         11    1    1    2    0    0  0.55019549633E+02  0.38034030207E+01 -0.27383862746E+03  0.27933709135E+03  0.00000000000E+00 0. -1.
<mgrwt>
<rscale>  0 0.21167655E+03</rscale>
<asrwt>0</asrwt>
<pdfrwt beam="2">  1        1 0.83654340E-01 0.27670305E+03</pdfrwt>
<pdfrwt beam="1">  1       -1 0.13971825E-01 0.27670305E+03</pdfrwt>
<totfact> 0.14510505E+03</totfact>
</mgrwt>
</event>
<event>
 7    1  0.8712071E-006  0.1553680E+03  0.7546771E-02  0.1201976E+00
         -1   -1    0    0    0  501 -0.00000000000E+00  0.00000000000E+00  0.53012136823E+02  0.53012136823E+02  0.00000000000E+00 0.  1.
          1   -1    0    0  501    0  0.00000000000E+00 -0.00000000000E+00 -0.50808078779E+03  0.50808078779E+03  0.00000000000E+00 0. -1.
         23    2    1    2    0    0  0.46973344729E+02  0.79429839498E+02 -0.10522561520E+03  0.18764764683E+03  0.12499445887E+03 0.  0.
          5    1    3    3  502    0  0.43273516643E+02  0.14681682577E+02  0.17178580562E+02  0.49044293002E+02  0.47000000000E+01 0. -1.
         -5    1    3    3    0  502  0.36998280858E+01  0.64748156920E+02 -0.12240419576E+03  0.13860335383E+03  0.47000000000E+01 0. -1.
        -11    1    1    2    0    0 -0.20719184730E+02 -0.88110299057E+02 -0.32088002903E+03  0.33340171332E+03  0.00000000000E+00 0. -1.
         11    1    1    2    0    0 -0.26254159999E+02  0.86804595592E+01 -0.28963006742E+02  0.40043564464E+02  0.00000000000E+00 0.  1.
<mgrwt>
<rscale>  0 0.14878331E+03</rscale>
<asrwt>0</asrwt>
<pdfrwt beam="2">  1        1 0.78166277E-01 0.15536798E+03</pdfrwt>
<pdfrwt beam="1">  1       -1 0.81557131E-02 0.15536798E+03</pdfrwt>
<totfact> 0.36060557E+03</totfact>
</mgrwt>
</event>
<event>
 7    1  0.8712071E-006  0.1456286E+03  0.7546771E-02  0.1216456E+00
          2   -1    0    0  501    0  0.00000000000E+00  0.00000000000E+00  0.25900099632E+02  0.25900099632E+02  0.00000000000E+00 0. -1.
         -2   -1    0    0    0  501 -0.00000000000E+00 -0.00000000000E+00 -0.79798547155E+03  0.79798547155E+03  0.00000000000E+00 0.  1.
         23    2    1    2    0    0  0.63519752776E+02  0.39327346467E+02 -0.59045395414E+03  0.60814764380E+03  0.12500514202E+03 0.  0.
          5    1    3    3  502    0  0.78970340070E+02  0.23418440726E+02 -0.19107868585E+03  0.20812950815E+03  0.47000000000E+01 0. -1.
         -5    1    3    3    0  502 -0.15450587294E+02  0.15908905741E+02 -0.39937526829E+03  0.40001813565E+03  0.47000000000E+01 0. -1.
        -11    1    1    2    0    0 -0.52203915305E+02  0.17511544098E+02 -0.11449605699E+03  0.12704821926E+03  0.00000000000E+00 0.  1.
         11    1    1    2    0    0 -0.11315837471E+02 -0.56838890565E+02 -0.67135360786E+02  0.88689708119E+02  0.00000000000E+00 0. -1.
<mgrwt>
<rscale>  0 0.13770158E+03</rscale>
<asrwt>0</asrwt>
<pdfrwt beam="1">  1        2 0.39846310E-02 0.14562858E+03</pdfrwt>
<pdfrwt beam="2">  1       -2 0.12276699E+00 0.14562858E+03</pdfrwt>
<totfact> 0.10873079E+03</totfact>
</mgrwt>
</event>
<event>
 7    1  0.8712071E-006  0.1320655E+03  0.7546771E-02  0.1237080E+00
          2   -1    0    0  501    0  0.00000000000E+00  0.00000000000E+00  0.32586332905E+03  0.32586332905E+03  0.00000000000E+00 0. -1.
         -2   -1    0    0    0  501 -0.00000000000E+00 -0.00000000000E+00 -0.61485721420E+02  0.61485721420E+02  0.00000000000E+00 0.  1.
         23    2    1    2    0    0 -0.40452696796E+02  0.13343023807E+02  0.35299942645E+02  0.13670179323E+03  0.12500734922E+03 0.  0.
          5    1    3    3  502    0  0.13525966756E+02 -0.10827387725E+02 -0.38221515451E+02  0.42227459609E+02  0.47000000000E+01 0. -1.
         -5    1    3    3    0  502 -0.53978663551E+02  0.24170411533E+02  0.73521458096E+02  0.94474333620E+02  0.47000000000E+01 0. -1.
        -11    1    1    2    0    0  0.48120048040E+02  0.26546420577E+02  0.87233357729E+02  0.10310145571E+03  0.00000000000E+00 0.  1.
         11    1    1    2    0    0 -0.76673512443E+01 -0.39889444385E+02  0.14184430725E+03  0.14754580153E+03  0.00000000000E+00 0. -1.
<mgrwt>
<rscale>  0 0.12372182E+03</rscale>
<asrwt>0</asrwt>
<pdfrwt beam="1">  1        2 0.50132819E-01 0.13206549E+03</pdfrwt>
<pdfrwt beam="2">  1       -2 0.94593419E-02 0.13206549E+03</pdfrwt>
<totfact> 0.68977321E+03</totfact>
</mgrwt>
</event>
<event>
 7    1  0.8712071E-006  0.1620734E+03  0.7546771E-02  0.1193708E+00
         -1   -1    0    0    0  501 -0.00000000000E+00  0.00000000000E+00  0.29535461692E+03  0.29535461692E+03  0.00000000000E+00 0.  1.
          1   -1    0    0  501    0  0.00000000000E+00 -0.00000000000E+00 -0.80805261868E+02  0.80805261868E+02  0.00000000000E+00 0. -1.
         23    2    1    2    0    0  0.91731711410E+02 -0.47178591207E+02  0.16052602350E+03  0.22811484100E+03  0.12500900015E+03 0.  0.
          5    1    3    3  502    0  0.11849554852E+03 -0.57197300819E+02  0.11889085429E+03  0.17739743931E+03  0.47000000000E+01 0.  1.
         -5    1    3    3    0  502 -0.26763837110E+02  0.10018709612E+02  0.41635169209E+02  0.50717401690E+02  0.47000000000E+01 0.  1.
        -11    1    1    2    0    0 -0.94164103487E+02  0.44104073355E+01  0.44103118015E+02  0.10407408466E+03  0.00000000000E+00 0.  1.
         11    1    1    2    0    0  0.24323920774E+01  0.42768183872E+02  0.99202135414E+01  0.43970953135E+02  0.00000000000E+00 0. -1.
<mgrwt>
<rscale>  0 0.15564119E+03</rscale>
<asrwt>0</asrwt>
<pdfrwt beam="2">  1        1 0.12431579E-01 0.16207337E+03</pdfrwt>
<pdfrwt beam="1">  1       -1 0.45439171E-01 0.16207337E+03</pdfrwt>
<totfact> 0.22934582E+03</totfact>
</mgrwt>
</event>
<event>
 7    1  0.8712071E-006  0.1514650E+03  0.7546771E-02  0.1207902E+00
         -4   -1    0    0    0  501 -0.00000000000E+00  0.00000000000E+00  0.96955259437E+02  0.96955259437E+02  0.00000000000E+00 0.  1.
          4   -1    0    0  501    0  0.00000000000E+00 -0.00000000000E+00 -0.19800460435E+03  0.19800460435E+03  0.00000000000E+00 0. -1.
         23    2    1    2    0    0 -0.76221956464E+02  0.38825030861E+02 -0.40121716703E+02  0.15668890655E+03  0.12499796645E+03 0.  0.
          5    1    3    3  502    0 -0.99345655939E+02  0.60471551297E+02 -0.43993630054E+02  0.12443430940E+03  0.47000000000E+01 0.  1.
         -5    1    3    3    0  502  0.23123699475E+02 -0.21646520436E+02  0.38719133510E+01  0.32254597151E+02  0.47000000000E+01 0.  1.
        -11    1    1    2    0    0  0.49308034806E+02 -0.43829346201E+01  0.14071678518E+02  0.51463623548E+02  0.00000000000E+00 0.  1.
         11    1    1    2    0    0  0.26913921658E+02 -0.34442096241E+02 -0.74999306730E+02  0.86807333691E+02  0.00000000000E+00 0. -1.
<mgrwt>
<rscale>  0 0.14411128E+03</rscale>
<asrwt>0</asrwt>
<pdfrwt beam="2">  1        4 0.30462247E-01 0.15146505E+03</pdfrwt>
<pdfrwt beam="1">  1       -4 0.14916194E-01 0.15146505E+03</pdfrwt>
<totfact> 0.66502156E+02</totfact>
</mgrwt>
</event>
<event>
 7    1  0.8712071E-006  0.1882069E+03  0.7546771E-02  0.1165642E+00
         -2   -1    0    0    0  501 -0.00000000000E+00  0.00000000000E+00  0.60113027543E+03  0.60113027543E+03  0.00000000000E+00 0.  1.
          2   -1    0    0  501    0  0.00000000000E+00 -0.00000000000E+00 -0.56622516617E+02  0.56622516617E+02  0.00000000000E+00 0. -1.
         23    2    1    2    0    0  0.45973659989E+02  0.13300969226E+03  0.38182592814E+03  0.42569104202E+03  0.12496666840E+03 0.  0.
          5    1    3    3  502    0  0.63619534663E+01  0.42826915961E+02  0.15345719877E+02  0.46175754473E+02  0.47000000000E+01 0.  1.
         -5    1    3    3    0  502  0.39611706522E+02  0.90182776295E+02  0.36648020826E+03  0.37951528754E+03  0.47000000000E+01 0.  1.
        -11    1    1    2    0    0 -0.34357415149E+02 -0.10202736820E+03  0.16699949444E+03  0.19869284582E+03  0.00000000000E+00 0.  1.
         11    1    1    2    0    0 -0.11616244840E+02 -0.30982324056E+02 -0.43176637567E+01  0.33368904213E+02  0.00000000000E+00 0. -1.
<mgrwt>
<rscale>  0 0.18225112E+03</rscale>
<asrwt>0</asrwt>
<pdfrwt beam="2">  1        2 0.87111568E-02 0.18820686E+03</pdfrwt>
<pdfrwt beam="1">  1       -2 0.92481576E-01 0.18820686E+03</pdfrwt>
<totfact> 0.77536136E+02</totfact>
</mgrwt>
</event>
<event>
 7    1  0.8712071E-006  0.1560761E+03  0.7546771E-02  0.1200885E+00
          2   -1    0    0  501    0  0.00000000000E+00  0.00000000000E+00  0.88783719236E+03  0.88783719236E+03  0.00000000000E+00 0.  1.
         -2   -1    0    0    0  501 -0.00000000000E+00 -0.00000000000E+00 -0.26747302249E+02  0.26747302249E+02  0.00000000000E+00 0. -1.
         23    2    1    2    0    0 -0.79093648563E+01 -0.93127425761E+02  0.29985464806E+03  0.33804224160E+03  0.12499788663E+03 0.  0.
          5    1    3    3  502    0  0.13148276299E+02 -0.11499281776E+02 -0.72913009671E+01  0.19502915699E+02  0.47000000000E+01 0.  1.
         -5    1    3    3    0  502 -0.21057641155E+02 -0.81628143985E+02  0.30714594903E+03  0.31853932590E+03  0.47000000000E+01 0.  1.
        -11    1    1    2    0    0  0.48619953087E+02  0.37437927339E+02  0.21962163936E+03  0.22803324915E+03  0.00000000000E+00 0. -1.
         11    1    1    2    0    0 -0.40710588231E+02  0.55689498422E+02  0.34161360269E+03  0.34850900386E+03  0.00000000000E+00 0.  1.
<mgrwt>
<rscale>  0 0.14966517E+03</rscale>
<asrwt>0</asrwt>
<pdfrwt beam="1">  1        2 0.13659031E+00 0.15607609E+03</pdfrwt>
<pdfrwt beam="2">  1       -2 0.41149703E-02 0.15607609E+03</pdfrwt>
<totfact> 0.79264028E+03</totfact>
</mgrwt>
</event>
<event>
 7    1  0.8712071E-006  0.1309679E+03  0.7546771E-02  0.1239781E+00
         -2   -1    0    0    0  501 -0.00000000000E+00  0.00000000000E+00  0.22072624771E+02  0.22072624771E+02  0.00000000000E+00 0.  1.
          2   -1    0    0  501    0  0.00000000000E+00 -0.00000000000E+00 -0.60502172506E+03  0.60502172506E+03  0.00000000000E+00 0. -1.
         23    2    1    2    0    0  0.22610227999E+02  0.31876961153E+02 -0.29735080839E+03  0.32491550356E+03  0.12500087256E+03 0.  0.
          5    1    3    3  502    0  0.57779696472E+02 -0.90587531342E+01 -0.23548009435E+03  0.24267986972E+03  0.47000000000E+01 0.  1.
         -5    1    3    3    0  502 -0.35169468473E+02  0.40935714288E+02 -0.61870714042E+02  0.82235633840E+02  0.47000000000E+01 0.  1.
        -11    1    1    2    0    0 -0.76753485353E+00 -0.59647706918E+02 -0.13674554362E+03  0.14919042111E+03  0.00000000000E+00 0.  1.
         11    1    1    2    0    0 -0.21842693146E+02  0.27770745765E+02 -0.14885274827E+03  0.15298842516E+03  0.00000000000E+00 0. -1.
<mgrwt>
<rscale>  0 0.12203236E+03</rscale>
<asrwt>0</asrwt>
<pdfrwt beam="2">  1        2 0.93080267E-01 0.13096786E+03</pdfrwt>
<pdfrwt beam="1">  1       -2 0.33957884E-02 0.13096786E+03</pdfrwt>
<totfact> 0.16593002E+04</totfact>
</mgrwt>
</event>
<event>
 7    1  0.8712071E-006  0.1365320E+03  0.7546771E-02  0.1229584E+00
          1   -1    0    0  501    0  0.00000000000E+00  0.00000000000E+00  0.12476625322E+03  0.12476625322E+03  0.00000000000E+00 0. -1.
         -1   -1    0    0    0  501 -0.00000000000E+00 -0.00000000000E+00 -0.11986481799E+03  0.11986481799E+03  0.00000000000E+00 0.  1.
         23    2    1    2    0    0 -0.16595313147E+02  0.52361028105E+02 -0.62185938873E+01  0.13667357872E+03  0.12499565804E+03 0.  0.
          5    1    3    3  502    0  0.72274916652E+01  0.82267923768E+02 -0.33734312976E+02  0.89332758766E+02  0.47000000000E+01 0. -1.
         -5    1    3    3    0  502 -0.23822804813E+02 -0.29906895663E+02  0.27515719089E+02  0.47340819958E+02  0.47000000000E+01 0. -1.
        -11    1    1    2    0    0  0.27024706292E+02 -0.30638119759E+02 -0.36374083773E+02  0.54700119770E+02  0.00000000000E+00 0.  1.
         11    1    1    2    0    0 -0.10429393145E+02 -0.21722908346E+02  0.47494112891E+02  0.53257372707E+02  0.00000000000E+00 0. -1.
<mgrwt>
<rscale>  0 0.12857605E+03</rscale>
<asrwt>0</asrwt>
<pdfrwt beam="1">  1        1 0.19194808E-01 0.13653203E+03</pdfrwt>
<pdfrwt beam="2">  1       -1 0.18440741E-01 0.13653203E+03</pdfrwt>
<totfact> 0.59038814E+03</totfact>
</mgrwt>
</event>
<event>
 7    1  0.8712071E-006  0.1269910E+03  0.7546771E-02  0.1247241E+00
          2   -1    0    0  501    0  0.00000000000E+00  0.00000000000E+00  0.37330403649E+03  0.37330403649E+03  0.00000000000E+00 0.  1.
         -2   -1    0    0    0  501 -0.00000000000E+00 -0.00000000000E+00 -0.32454085962E+02  0.32454085962E+02  0.00000000000E+00 0. -1.
         23    2    1    2    0    0 -0.75297411012E+01  0.20690871268E+02  0.19698186138E+03  0.23436841802E+03  0.12506755173E+03 0.  0.
          5    1    3    3  502    0  0.55931946537E+02  0.35317884588E+01  0.59319542171E+02  0.81741998119E+02  0.47000000000E+01 0. -1.
         -5    1    3    3    0  502 -0.63461687638E+02  0.17159082809E+02  0.13766231921E+03  0.15262641990E+03  0.47000000000E+01 0. -1.
        -11    1    1    2    0    0 -0.12742214130E+02  0.28206195306E+02  0.20442467071E+02  0.37092424220E+02  0.00000000000E+00 0. -1.
         11    1    1    2    0    0  0.20271955232E+02 -0.48897066573E+02  0.12342562207E+03  0.13429728021E+03  0.00000000000E+00 0.  1.
<mgrwt>
<rscale>  0 0.11752278E+03</rscale>
<asrwt>0</asrwt>
<pdfrwt beam="1">  1        2 0.57431387E-01 0.12699095E+03</pdfrwt>
<pdfrwt beam="2">  1       -2 0.49929366E-02 0.12699095E+03</pdfrwt>
<totfact> 0.15807636E+04</totfact>
</mgrwt>
</event>
<event>
 6    1  0.8712071E-006  0.1302236E+03  0.7546771E-02  0.1241902E+00
          1   -1    0    0  501    0  0.00000000000E+00  0.00000000000E+00  0.32458896432E+03  0.32458896432E+03  0.00000000000E+00 0. -1.
         -1   -1    0    0    0  501 -0.00000000000E+00 -0.00000000000E+00 -0.49830566624E+02  0.49830566624E+02  0.00000000000E+00 0.  1.
          5    1    1    2  502    0  0.49967183133E+00  0.33033314365E+02  0.87942962430E+02  0.94061172494E+02  0.47000000000E+01 0. -1.
         -5    1    1    2    0  502  0.12218449918E+02 -0.48269790798E+02 -0.18738854930E+02  0.53408781171E+02  0.47000000000E+01 0.  1.
        -11    1    1    2    0    0 -0.96515214633E+01 -0.35793840535E+02  0.44191692564E+02  0.57682376671E+02  0.00000000000E+00 0.  1.
         11    1    1    2    0    0 -0.30666002862E+01  0.51030316967E+02  0.16136259763E+03  0.16926720061E+03  0.00000000000E+00 0. -1.
<mgrwt>
<rscale>  0 0.12072736E+03</rscale>
<asrwt>0</asrwt>
<pdfrwt beam="1">  1        1 0.49936763E-01 0.13022357E+03</pdfrwt>
<pdfrwt beam="2">  1       -1 0.76662412E-02 0.13022357E+03</pdfrwt>
<totfact> 0.69263838E+03</totfact>
</mgrwt>
</event>
<event>
 7    1  0.8712071E-006  0.1522462E+03  0.7546771E-02  0.1205694E+00
         -1   -1    0    0    0  501 -0.00000000000E+00  0.00000000000E+00  0.61200449725E+02  0.61200449725E+02  0.00000000000E+00 0.  1.
          1   -1    0    0  501    0  0.00000000000E+00 -0.00000000000E+00 -0.32410361029E+03  0.32410361029E+03  0.00000000000E+00 0. -1.
         23    2    1    2    0    0 -0.26157281630E+02  0.82881641612E+02 -0.12439842150E+03  0.19660588073E+03  0.12500134067E+03 0.  0.
          5    1    3    3  502    0  0.25157086376E+02  0.79729429073E+02 -0.29880067583E+02  0.88907644744E+02  0.47000000000E+01 0. -1.
         -5    1    3    3    0  502 -0.51314368005E+02  0.31522125392E+01 -0.94518353920E+02  0.10769823599E+03  0.47000000000E+01 0. -1.
        -11    1    1    2    0    0 -0.11856241762E+02 -0.85888239237E+02 -0.75077416021E+02  0.11469079520E+03  0.00000000000E+00 0.  1.
         11    1    1    2    0    0  0.38013523391E+02  0.30065976250E+01 -0.63427323045E+02  0.74007384081E+02  0.00000000000E+00 0. -1.
<mgrwt>
<rscale>  0 0.14582865E+03</rscale>
<asrwt>0</asrwt>
<pdfrwt beam="2">  1        1 0.49862094E-01 0.15224620E+03</pdfrwt>
<pdfrwt beam="1">  1       -1 0.94154539E-02 0.15224620E+03</pdfrwt>
<totfact> 0.51311931E+03</totfact>
</mgrwt>
</event>
<event>
 7    1  0.8712071E-006  0.1572572E+03  0.7546771E-02  0.1199898E+00
          3   -1    0    0  501    0  0.00000000000E+00  0.00000000000E+00  0.83955397455E+02  0.83955397455E+02  0.00000000000E+00 0. -1.
         -3   -1    0    0    0  501 -0.00000000000E+00 -0.00000000000E+00 -0.32148715812E+03  0.32148715812E+03  0.00000000000E+00 0.  1.
         23    2    1    2    0    0  0.71014418447E+02 -0.63836163381E+02 -0.22294242697E+03  0.27282437388E+03  0.12494682813E+03 0.  0.
          5    1    3    3  502    0  0.54832669345E+02 -0.87878287112E+01 -0.20512436087E+03  0.21256044077E+03  0.47000000000E+01 0.  1.
         -5    1    3    3    0  502  0.16181749102E+02 -0.55048334670E+02 -0.17818066101E+02  0.60263933107E+02  0.47000000000E+01 0.  1.
        -11    1    1    2    0    0 -0.50137904629E+02 -0.73657318618E+01 -0.26949647878E+02  0.57396402389E+02  0.00000000000E+00 0.  1.
         11    1    1    2    0    0 -0.20876513818E+02  0.71201895243E+02  0.12360314180E+02  0.75221779307E+02  0.00000000000E+00 0. -1.
<mgrwt>
<rscale>  0 0.15046919E+03</rscale>
<asrwt>0</asrwt>
<pdfrwt beam="1">  1        3 0.12916215E-01 0.15725716E+03</pdfrwt>
<pdfrwt beam="2">  1       -3 0.49459563E-01 0.15725716E+03</pdfrwt>
<totfact> 0.46385172E+02</totfact>
</mgrwt>
</event>
<event>
 7    1  0.8712071E-006  0.2147661E+03  0.7546771E-02  0.1142084E+00
         -1   -1    0    0    0  501 -0.00000000000E+00  0.00000000000E+00  0.60693258866E+02  0.60693258866E+02  0.00000000000E+00 0.  1.
          1   -1    0    0  501    0  0.00000000000E+00 -0.00000000000E+00 -0.70709477323E+03  0.70709477323E+03  0.00000000000E+00 0. -1.
         23    2    1    2    0    0  0.76582971902E+02 -0.15694031262E+03 -0.40241835545E+03  0.45614144501E+03  0.12501708581E+03 0.  0.
          5    1    3    3  502    0  0.95318586768E+02 -0.88973215456E+02 -0.17689761052E+03  0.21981064729E+03  0.47000000000E+01 0. -1.
         -5    1    3    3    0  502 -0.18735614866E+02 -0.67967097164E+02 -0.22552074493E+03  0.23633079773E+03  0.47000000000E+01 0. -1.
        -11    1    1    2    0    0  0.11555808368E+02  0.49931867721E+02 -0.96299896618E+02  0.10908894632E+03  0.00000000000E+00 0. -1.
         11    1    1    2    0    0 -0.88138780271E+02  0.10700844490E+03 -0.14768326229E+03  0.20255764075E+03  0.00000000000E+00 0.  1.
<mgrwt>
<rscale>  0 0.20934701E+03</rscale>
<asrwt>0</asrwt>
<pdfrwt beam="2">  1        1 0.10878381E+00 0.21476612E+03</pdfrwt>
<pdfrwt beam="1">  1       -1 0.93374245E-02 0.21476612E+03</pdfrwt>
<totfact> 0.18758551E+03</totfact>
</mgrwt>
</event>
<event>
 7    1  0.8712071E-006  0.1311323E+03  0.7546771E-02  0.1239254E+00
         -1   -1    0    0    0  501 -0.00000000000E+00  0.00000000000E+00  0.11001615620E+03  0.11001615620E+03  0.00000000000E+00 0.  1.
          1   -1    0    0  501    0  0.00000000000E+00 -0.00000000000E+00 -0.12165387781E+03  0.12165387781E+03  0.00000000000E+00 0. -1.
         23    2    1    2    0    0  0.38053328049E+02  0.10982750509E+02 -0.16364139075E+02  0.13214942633E+03  0.12500803673E+03 0.  0.
          5    1    3    3  502    0 -0.10417106145E+01  0.14079428969E+02  0.51511688494E+02  0.53617716592E+02  0.47000000000E+01 0.  1.
         -5    1    3    3    0  502  0.39095038664E+02 -0.30966784604E+01 -0.67875827569E+02  0.78531709734E+02  0.47000000000E+01 0.  1.
        -11    1    1    2    0    0 -0.47589971332E+02 -0.73003952949E+01 -0.34340317628E+02  0.59138469355E+02  0.00000000000E+00 0. -1.
         11    1    1    2    0    0  0.95366432827E+01 -0.36823552139E+01  0.39066735097E+02  0.40382138331E+02  0.00000000000E+00 0.  1.
<mgrwt>
<rscale>  0 0.12235958E+03</rscale>
<asrwt>0</asrwt>
<pdfrwt beam="2">  1        1 0.18715981E-01 0.13113232E+03</pdfrwt>
<pdfrwt beam="1">  1       -1 0.16925562E-01 0.13113232E+03</pdfrwt>
<totfact> 0.69664179E+03</totfact>
</mgrwt>
</event>
<event>
 7    1  0.8712071E-006  0.1428903E+03  0.7546771E-02  0.1218992E+00
         -2   -1    0    0    0  501 -0.00000000000E+00  0.00000000000E+00  0.98542820271E+02  0.98542820271E+02  0.00000000000E+00 0.  1.
          2   -1    0    0  501    0  0.00000000000E+00 -0.00000000000E+00 -0.17114402491E+03  0.17114402491E+03  0.00000000000E+00 0. -1.
         23    2    1    2    0    0  0.20693451693E+02  0.66058066619E+02 -0.38453181829E+02  0.14797395137E+03  0.12500302390E+03 0.  0.
          5    1    3    3  502    0  0.17899903279E+02  0.83337099247E+02  0.19233679437E+02  0.87507160124E+02  0.47000000000E+01 0. -1.
         -5    1    3    3    0  502  0.27935484135E+01 -0.17279032628E+02 -0.57686861267E+02  0.60466791250E+02  0.47000000000E+01 0. -1.
        -11    1    1    2    0    0  0.88329345946E+01  0.22127856874E+02 -0.67547719259E+01  0.24764687100E+02  0.00000000000E+00 0.  1.
         11    1    1    2    0    0 -0.29526386287E+02 -0.88185923493E+02 -0.27393250882E+02  0.96948206705E+02  0.00000000000E+00 0. -1.
<mgrwt>
<rscale>  0 0.13587373E+03</rscale>
<asrwt>0</asrwt>
<pdfrwt beam="2">  1        2 0.26329850E-01 0.14289032E+03</pdfrwt>
<pdfrwt beam="1">  1       -2 0.15160434E-01 0.14289032E+03</pdfrwt>
<totfact> 0.65065543E+03</totfact>
</mgrwt>
</event>
<event>
 7    1  0.8712071E-006  0.1261975E+03  0.7546771E-02  0.1248608E+00
         -1   -1    0    0    0  501 -0.00000000000E+00  0.00000000000E+00  0.19072668485E+03  0.19072668485E+03  0.00000000000E+00 0.  1.
          1   -1    0    0  501    0  0.00000000000E+00 -0.00000000000E+00 -0.62858899773E+02  0.62858899773E+02  0.00000000000E+00 0. -1.
         23    2    1    2    0    0 -0.68951978807E+01  0.15931443695E+02  0.81744636936E+02  0.15035957535E+03  0.12499784630E+03 0.  0.
          5    1    3    3  502    0  0.77341751669E+01 -0.30611994246E+02  0.94472334024E+02  0.99719724995E+02  0.47000000000E+01 0.  1.
         -5    1    3    3    0  502 -0.14629373048E+02  0.46543437941E+02 -0.12727697088E+02  0.50639850358E+02  0.47000000000E+01 0.  1.
        -11    1    1    2    0    0  0.12007926506E+02 -0.50430557019E+02  0.44486637430E+02  0.68311728788E+02  0.00000000000E+00 0.  1.
         11    1    1    2    0    0 -0.51127286250E+01  0.34499113324E+02  0.16365107091E+01  0.34914280480E+02  0.00000000000E+00 0. -1.
<mgrwt>
<rscale>  0 0.11672012E+03</rscale>
<asrwt>0</asrwt>
<pdfrwt beam="2">  1        1 0.96706000E-02 0.12619753E+03</pdfrwt>
<pdfrwt beam="1">  1       -1 0.29342567E-01 0.12619753E+03</pdfrwt>
<totfact> 0.67161087E+03</totfact>
</mgrwt>
</event>
<event>
 7    1  0.8712071E-006  0.1781889E+03  0.7546771E-02  0.1174744E+00
         -1   -1    0    0    0  501 -0.00000000000E+00  0.00000000000E+00  0.67534560810E+02  0.67534560810E+02  0.00000000000E+00 0.  1.
          1   -1    0    0  501    0  0.00000000000E+00 -0.00000000000E+00 -0.42676455241E+03  0.42676455241E+03  0.00000000000E+00 0. -1.
         23    2    1    2    0    0  0.98389163079E+02  0.80283111310E+02 -0.15736239320E+03  0.23772713176E+03  0.12500184401E+03 0.  0.
          5    1    3    3  502    0  0.10239453202E+03  0.10512361406E+03 -0.10849529728E+03  0.18256213723E+03  0.47000000000E+01 0.  1.
         -5    1    3    3    0  502 -0.40053689365E+01 -0.24840502749E+02 -0.48867095921E+02  0.55164994524E+02  0.47000000000E+01 0.  1.
        -11    1    1    2    0    0 -0.72586207837E+02 -0.88460887445E+02 -0.10263559863E+03  0.15371451552E+03  0.00000000000E+00 0.  1.
         11    1    1    2    0    0 -0.25802955242E+02  0.81777761347E+01 -0.99231999764E+02  0.10285746594E+03  0.00000000000E+00 0. -1.
<mgrwt>
<rscale>  0 0.17301088E+03</rscale>
<asrwt>0</asrwt>
<pdfrwt beam="2">  1        1 0.65656087E-01 0.17818885E+03</pdfrwt>
<pdfrwt beam="1">  1       -1 0.10389932E-01 0.17818885E+03</pdfrwt>
<totfact> 0.31404352E+03</totfact>
</mgrwt>
</event>
<event>
 7    1  0.8712071E-006  0.1823442E+03  0.7546771E-02  0.1171185E+00
         -2   -1    0    0    0  501 -0.00000000000E+00  0.00000000000E+00  0.18687820483E+02  0.18687820483E+02  0.00000000000E+00 0.  1.
          2   -1    0    0  501    0  0.00000000000E+00 -0.00000000000E+00 -0.15866778883E+04  0.15866778883E+04  0.00000000000E+00 0. -1.
         23    2    1    2    0    0  0.12131971300E+03 -0.53908315380E+02 -0.91583350050E+03  0.93380961704E+03  0.12499928401E+03 0.  0.
          5    1    3    3  502    0  0.11533082921E+03 -0.19207189304E+02 -0.40025874456E+03  0.41701231263E+03  0.47000000000E+01 0. -1.
         -5    1    3    3    0  502  0.59888837854E+01 -0.34701126076E+02 -0.51557475594E+03  0.51679730441E+03  0.47000000000E+01 0. -1.
        -11    1    1    2    0    0 -0.89407918975E+02  0.76138711549E+02 -0.54634380150E+03  0.55882235891E+03  0.00000000000E+00 0.  1.
         11    1    1    2    0    0 -0.31911794022E+02 -0.22230396169E+02 -0.10581276584E+03  0.11273373287E+03  0.00000000000E+00 0. -1.
<mgrwt>
<rscale>  0 0.17654972E+03</rscale>
<asrwt>0</asrwt>
<pdfrwt beam="2">  1        2 0.24410434E+00 0.18234418E+03</pdfrwt>
<pdfrwt beam="1">  1       -2 0.28750487E-02 0.18234418E+03</pdfrwt>
<totfact> 0.54946112E+03</totfact>
</mgrwt>
</event>
<event>
 6    1  0.8712071E-006  0.1350908E+03  0.7546771E-02  0.1264044E+00
         -2   -1    0    0    0  501 -0.00000000000E+00  0.00000000000E+00  0.52820266085E+02  0.52820266085E+02  0.00000000000E+00 0.  1.
          2   -1    0    0  501    0  0.00000000000E+00 -0.00000000000E+00 -0.18084129115E+03  0.18084129115E+03  0.00000000000E+00 0. -1.
          5    1    1    2  502    0 -0.58062928541E+02  0.24365051082E+02 -0.23846114438E+02  0.67495826232E+02  0.47000000000E+01 0. -1.
         -5    1    1    2    0  502  0.61998625035E+02 -0.35009911707E+02 -0.41845224047E+02  0.82720228478E+02  0.47000000000E+01 0.  1.
        -11    1    1    2    0    0 -0.10091040298E+02  0.21495714955E+02 -0.43534018950E+01  0.24142223671E+02  0.00000000000E+00 0. -1.
         11    1    1    2    0    0  0.61553438038E+01 -0.10850854330E+02 -0.57976284686E+02  0.59303278856E+02  0.00000000000E+00 0.  1.
<mgrwt>
<rscale>  0 0.10814480E+03</rscale>
<asrwt>0</asrwt>
<pdfrwt beam="2">  1        2 0.27821737E-01 0.13509075E+03</pdfrwt>
<pdfrwt beam="1">  1       -2 0.81261949E-02 0.13509075E+03</pdfrwt>
<totfact> 0.16419357E+04</totfact>
</mgrwt>
</event>
<event>
 6    1  0.8712071E-006  0.1524844E+03  0.7546771E-02  0.1208373E+00
          2   -1    0    0  501    0  0.00000000000E+00  0.00000000000E+00  0.75282205064E+03  0.75282205064E+03  0.00000000000E+00 0. -1.
         -2   -1    0    0    0  501 -0.00000000000E+00 -0.00000000000E+00 -0.27746371349E+02  0.27746371349E+02  0.00000000000E+00 0.  1.
          5    1    1    2  502    0 -0.15465314442E+02 -0.96524777824E+02  0.18699884553E+03  0.21106128711E+03  0.47000000000E+01 0. -1.
         -5    1    1    2    0  502  0.44238031614E+02  0.30874264816E+02  0.85700237828E+02  0.10137477217E+03  0.47000000000E+01 0.  1.
        -11    1    1    2    0    0  0.35584790892E+02  0.15422098107E+02  0.14308073411E+03  0.14824376859E+03  0.00000000000E+00 0.  1.
         11    1    1    2    0    0 -0.64357508065E+02  0.50228414901E+02  0.30929586183E+03  0.31988859412E+03  0.00000000000E+00 0. -1.
<mgrwt>
<rscale>  0 0.14374825E+03</rscale>
<asrwt>0</asrwt>
<pdfrwt beam="1">  1        2 0.11581876E+00 0.15248443E+03</pdfrwt>
<pdfrwt beam="2">  1       -2 0.42686731E-02 0.15248443E+03</pdfrwt>
<totfact> 0.92292794E+03</totfact>
</mgrwt>
</event>
<event>
 7    1  0.8712071E-006  0.1315924E+03  0.7546771E-02  0.1238829E+00
         -1   -1    0    0    0  501 -0.00000000000E+00  0.00000000000E+00  0.23557657872E+03  0.23557657872E+03  0.00000000000E+00 0.  1.
          1   -1    0    0  501    0  0.00000000000E+00 -0.00000000000E+00 -0.73441169838E+02  0.73441169838E+02  0.00000000000E+00 0. -1.
         23    2    1    2    0    0 -0.41043668270E+02  0.26757085507E+01  0.16338014575E+03  0.20978470161E+03  0.12499922753E+03 0.  0.
          5    1    3    3  502    0 -0.28347666032E+02  0.12369840588E+01 -0.13926910528E+02  0.31955737136E+02  0.47000000000E+01 0. -1.
         -5    1    3    3    0  502 -0.12696002238E+02  0.14387244919E+01  0.17730705627E+03  0.17782896447E+03  0.47000000000E+01 0. -1.
        -11    1    1    2    0    0  0.16493531549E+02  0.25867500143E+02  0.35297570682E+02  0.46766255384E+02  0.00000000000E+00 0.  1.
         11    1    1    2    0    0  0.24550136722E+02 -0.28543208693E+02 -0.36542307551E+02  0.52466791561E+02  0.00000000000E+00 0. -1.
<mgrwt>
<rscale>  0 0.12262487E+03</rscale>
<asrwt>0</asrwt>
<pdfrwt beam="2">  1        1 0.11298642E-01 0.13159236E+03</pdfrwt>
<pdfrwt beam="1">  1       -1 0.36242550E-01 0.13159236E+03</pdfrwt>
<totfact> 0.38326263E+03</totfact>
</mgrwt>
</event>
<event>
 6    1  0.8712071E-006  0.2031485E+03  0.7546771E-02  0.1163705E+00
          2   -1    0    0  501    0  0.00000000000E+00  0.00000000000E+00  0.70061719515E+03  0.70061719515E+03  0.00000000000E+00 0. -1.
         -2   -1    0    0    0  501 -0.00000000000E+00 -0.00000000000E+00 -0.44606828367E+02  0.44606828367E+02  0.00000000000E+00 0.  1.
          5    1    1    2  502    0 -0.14568832321E+03 -0.34875983843E+02  0.26645356802E+03  0.30571394420E+03  0.47000000000E+01 0. -1.
         -5    1    1    2    0  502  0.22067278421E+02  0.35233627426E+02  0.22500254375E+02  0.47504996847E+02  0.47000000000E+01 0.  1.
        -11    1    1    2    0    0  0.45092294485E+02  0.28767068528E+02  0.12924195541E+03  0.13987259307E+03  0.00000000000E+00 0. -1.
         11    1    1    2    0    0  0.78528750303E+02 -0.29124712111E+02  0.23781458897E+03  0.25213248939E+03  0.00000000000E+00 0.  1.
<mgrwt>
<rscale>  0 0.18430006E+03</rscale>
<asrwt>0</asrwt>
<pdfrwt beam="1">  1        2 0.10778725E+00 0.20314849E+03</pdfrwt>
<pdfrwt beam="2">  1       -2 0.68625895E-02 0.20314849E+03</pdfrwt>
<totfact> 0.49654964E+03</totfact>
</mgrwt>
</event>
<event>
 7    1  0.8712071E-006  0.1335461E+03  0.7546771E-02  0.1234738E+00
          1   -1    0    0  501    0  0.00000000000E+00  0.00000000000E+00  0.24508795568E+03  0.24508795568E+03  0.00000000000E+00 0. -1.
         -1   -1    0    0    0  501 -0.00000000000E+00 -0.00000000000E+00 -0.67610162290E+02  0.67610162290E+02  0.00000000000E+00 0.  1.
         23    2    1    2    0    0 -0.43552025262E+02 -0.17683747391E+02  0.37355981181E+02  0.13867237275E+03  0.12500025523E+03 0.  0.
          5    1    3    3  502    0 -0.87032314430E+02 -0.55256599757E+01  0.17225044345E+02  0.89016564896E+02  0.47000000000E+01 0. -1.
         -5    1    3    3    0  502  0.43480289168E+02 -0.12158087416E+02  0.20130936835E+02  0.49655807854E+02  0.47000000000E+01 0. -1.
        -11    1    1    2    0    0  0.69442366700E+01  0.26868556306E+02  0.13268695290E+03  0.13555799206E+03  0.00000000000E+00 0. -1.
         11    1    1    2    0    0  0.36607788592E+02 -0.91848089143E+01  0.74348593093E+01  0.38467753162E+02  0.00000000000E+00 0.  1.
<mgrwt>
<rscale>  0 0.12521211E+03</rscale>
<asrwt>0</asrwt>
<pdfrwt beam="1">  1        1 0.37705839E-01 0.13354609E+03</pdfrwt>
<pdfrwt beam="2">  1       -1 0.10401564E-01 0.13354609E+03</pdfrwt>
<totfact> 0.61822512E+03</totfact>
</mgrwt>
</event>
<event>
 7    1  0.8712071E-006  0.1292662E+03  0.7546771E-02  0.1237760E+00
         -4   -1    0    0    0  501 -0.00000000000E+00  0.00000000000E+00  0.47631814362E+03  0.47631814362E+03  0.00000000000E+00 0.  1.
          4   -1    0    0  501    0  0.00000000000E+00 -0.00000000000E+00 -0.31929154238E+02  0.31929154238E+02  0.00000000000E+00 0. -1.
         23    2    1    2    0    0 -0.25758575189E+02 -0.20478436040E+02  0.31412639913E+03  0.33968387386E+03  0.12500747573E+03 0.  0.
          5    1    3    3  502    0  0.95746357421E+01 -0.46592372211E+02  0.40901458865E+02  0.62908998841E+02  0.47000000000E+01 0.  1.
         -5    1    3    3    0  502 -0.35333210931E+02  0.26113936171E+02  0.27322494027E+03  0.27677487502E+03  0.47000000000E+01 0.  1.
        -11    1    1    2    0    0  0.48425217536E+02  0.37525271423E+02  0.38119529675E+02  0.72154322334E+02  0.00000000000E+00 0. -1.
         11    1    1    2    0    0 -0.22666642347E+02 -0.17046835383E+02  0.92143060576E+02  0.96409101667E+02  0.00000000000E+00 0.  1.
<mgrwt>
<rscale>  0 0.12329400E+03</rscale>
<asrwt>0</asrwt>
<pdfrwt beam="2">  1        4 0.49121779E-02 0.12926616E+03</pdfrwt>
<pdfrwt beam="1">  1       -4 0.73279709E-01 0.12926616E+03</pdfrwt>
<totfact> 0.69573654E+02</totfact>
</mgrwt>
</event>
<event>
 7    1  0.8712071E-006  0.1275145E+03  0.7546771E-02  0.1245647E+00
         -3   -1    0    0    0  501 -0.00000000000E+00  0.00000000000E+00  0.10889955221E+03  0.10889955221E+03  0.00000000000E+00 0.  1.
          3   -1    0    0  501    0  0.00000000000E+00 -0.00000000000E+00 -0.14107768683E+03  0.14107768683E+03  0.00000000000E+00 0. -1.
         23    2    1    2    0    0 -0.25147466508E+02  0.16023928832E+01  0.36636486509E+02  0.13267324738E+03  0.12499998277E+03 0.  0.
          5    1    3    3  502    0  0.25347138640E+02  0.42983008839E+02  0.44145884818E+02  0.66790460640E+02  0.47000000000E+01 0.  1.
         -5    1    3    3    0  502 -0.50494605148E+02 -0.41380615956E+02 -0.75093983090E+01  0.65882786742E+02  0.47000000000E+01 0.  1.
        -11    1    1    2    0    0  0.37249703288E+02 -0.37491650367E+02 -0.56763596604E+02  0.77558172630E+02  0.00000000000E+00 0.  1.
         11    1    1    2    0    0 -0.12102236780E+02  0.35889257484E+02 -0.12051024528E+02  0.39745819026E+02  0.00000000000E+00 0. -1.
<mgrwt>
<rscale>  0 0.11846753E+03</rscale>
<asrwt>0</asrwt>
<pdfrwt beam="2">  1        3 0.21704260E-01 0.12751454E+03</pdfrwt>
<pdfrwt beam="1">  1       -3 0.16753777E-01 0.12751454E+03</pdfrwt>
<totfact> 0.13527345E+03</totfact>
</mgrwt>
</event>
<event>
 7    1  0.8712071E-006  0.1486161E+03  0.7546771E-02  0.1212488E+00
          3   -1    0    0  501    0  0.00000000000E+00  0.00000000000E+00  0.12065534445E+03  0.12065534445E+03  0.00000000000E+00 0. -1.
         -3   -1    0    0    0  501 -0.00000000000E+00 -0.00000000000E+00 -0.15223963997E+03  0.15223963997E+03  0.00000000000E+00 0.  1.
         23    2    1    2    0    0  0.55530151366E+02 -0.58122063702E+02 -0.38587801970E+02  0.15354402347E+03  0.12499990673E+03 0.  0.
          5    1    3    3  502    0  0.52226998839E+02  0.25055354376E+01 -0.68005856171E+02  0.85911719743E+02  0.47000000000E+01 0.  1.
         -5    1    3    3    0  502  0.33031525275E+01 -0.60627599140E+02  0.29418054202E+02  0.67632303724E+02  0.47000000000E+01 0.  1.
        -11    1    1    2    0    0  0.23957419942E+02  0.84019648779E+01  0.13720688884E+01  0.25425057663E+02  0.00000000000E+00 0. -1.
         11    1    1    2    0    0 -0.79487571309E+02  0.49720098824E+02  0.56314375539E+01  0.93925903288E+02  0.00000000000E+00 0.  1.
<mgrwt>
<rscale>  0 0.14062698E+03</rscale>
<asrwt>0</asrwt>
<pdfrwt beam="1">  1        3 0.18562361E-01 0.14861611E+03</pdfrwt>
<pdfrwt beam="2">  1       -3 0.23421483E-01 0.14861611E+03</pdfrwt>
<totfact> 0.10126001E+03</totfact>
</mgrwt>
</event>
<event>
 7    1  0.8712071E-006  0.1331835E+03  0.7546771E-02  0.1235779E+00
         -1   -1    0    0    0  501 -0.00000000000E+00  0.00000000000E+00  0.56652435462E+02  0.56652435462E+02  0.00000000000E+00 0.  1.
          1   -1    0    0  501    0  0.00000000000E+00 -0.00000000000E+00 -0.25056798677E+03  0.25056798677E+03  0.00000000000E+00 0. -1.
         23    2    1    2    0    0  0.43820761959E+02 -0.13856383609E+02 -0.84470697600E+02  0.15771219642E+03  0.12500231839E+03 0.  0.
          5    1    3    3  502    0 -0.38740643241E+02  0.18736667587E+02 -0.36981181373E+02  0.56935032509E+02  0.47000000000E+01 0. -1.
         -5    1    3    3    0  502  0.82561405200E+02 -0.32593051197E+02 -0.47489516227E+02  0.10077716391E+03  0.47000000000E+01 0. -1.
        -11    1    1    2    0    0 -0.46784745377E+02  0.47350933679E+02 -0.59393040772E+02  0.89210182224E+02  0.00000000000E+00 0. -1.
         11    1    1    2    0    0  0.29639834184E+01 -0.33494550070E+02 -0.50051812940E+02  0.60298043589E+02  0.00000000000E+00 0.  1.
<mgrwt>
<rscale>  0 0.12454716E+03</rscale>
<asrwt>0</asrwt>
<pdfrwt beam="2">  1        1 0.38548921E-01 0.13318348E+03</pdfrwt>
<pdfrwt beam="1">  1       -1 0.87157594E-02 0.13318348E+03</pdfrwt>
<totfact> 0.78710970E+03</totfact>
</mgrwt>
</event>
<event>
 7    1  0.8712071E-006  0.1737907E+03  0.7546771E-02  0.1180202E+00
          2   -1    0    0  501    0  0.00000000000E+00  0.00000000000E+00  0.59782555682E+03  0.59782555682E+03  0.00000000000E+00 0. -1.
         -2   -1    0    0    0  501 -0.00000000000E+00 -0.00000000000E+00 -0.56257649183E+02  0.56257649183E+02  0.00000000000E+00 0.  1.
         23    2    1    2    0    0  0.78104641648E+02  0.92093733295E+02  0.13392475619E+03  0.21940613298E+03  0.12498647970E+03 0.  0.
          5    1    3    3  502    0  0.47726400710E+02  0.12048037067E+03  0.85096128368E+02  0.15510245035E+03  0.47000000000E+01 0.  1.
         -5    1    3    3    0  502  0.30378240937E+02 -0.28386637377E+02  0.48828627827E+02  0.64303682627E+02  0.47000000000E+01 0.  1.
        -11    1    1    2    0    0 -0.17951512777E+02 -0.61354957799E+02  0.92924521280E+02  0.11279031125E+03  0.00000000000E+00 0.  1.
         11    1    1    2    0    0 -0.60153128870E+02 -0.30738775496E+02  0.31471863017E+03  0.32188676177E+03  0.00000000000E+00 0. -1.
<mgrwt>
<rscale>  0 0.16776185E+03</rscale>
<asrwt>0</asrwt>
<pdfrwt beam="1">  1        2 0.91973158E-01 0.17379071E+03</pdfrwt>
<pdfrwt beam="2">  1       -2 0.86550234E-02 0.17379071E+03</pdfrwt>
<totfact> 0.41487391E+03</totfact>
</mgrwt>
</event>
<event>
 7    1  0.8712071E-006  0.1283822E+03  0.7546771E-02  0.1245012E+00
          2   -1    0    0  501    0  0.00000000000E+00  0.00000000000E+00  0.65256730537E+02  0.65256730537E+02  0.00000000000E+00 0. -1.
         -2   -1    0    0    0  501 -0.00000000000E+00 -0.00000000000E+00 -0.19124358029E+03  0.19124358029E+03  0.00000000000E+00 0.  1.
         23    2    1    2    0    0 -0.23558130807E+02  0.17375108558E+02 -0.83037906913E+02  0.15289632159E+03  0.12500044498E+03 0.  0.
          5    1    3    3  502    0 -0.35147600078E+02 -0.48398569005E+02 -0.50662036159E+02  0.78527111120E+02  0.47000000000E+01 0. -1.
         -5    1    3    3    0  502  0.11589469271E+02  0.65773677563E+02 -0.32375870754E+02  0.74369210465E+02  0.47000000000E+01 0. -1.
        -11    1    1    2    0    0 -0.18993102722E+02  0.35405534811E+01 -0.51876103806E+02  0.55357055702E+02  0.00000000000E+00 0.  1.
         11    1    1    2    0    0  0.42551233529E+02 -0.20915662039E+02  0.89271609631E+01  0.48246933542E+02  0.00000000000E+00 0. -1.
<mgrwt>
<rscale>  0 0.11884648E+03</rscale>
<asrwt>0</asrwt>
<pdfrwt beam="1">  1        2 0.10039497E-01 0.12838221E+03</pdfrwt>
<pdfrwt beam="2">  1       -2 0.29422089E-01 0.12838221E+03</pdfrwt>
<totfact> 0.63686577E+03</totfact>
</mgrwt>
</event>
<event>
 7    1  0.8712071E-006  0.1341862E+03  0.7546771E-02  0.1232499E+00
          2   -1    0    0  501    0  0.00000000000E+00  0.00000000000E+00  0.51384146158E+03  0.51384146158E+03  0.00000000000E+00 0. -1.
         -2   -1    0    0    0  501 -0.00000000000E+00 -0.00000000000E+00 -0.30751244307E+02  0.30751244307E+02  0.00000000000E+00 0.  1.
         23    2    1    2    0    0 -0.48801969859E+02 -0.16974725383E+01  0.18887124429E+03  0.23168573824E+03  0.12498568200E+03 0.  0.
          5    1    3    3  502    0 -0.79873190427E+02  0.13486228318E+02  0.17718586440E+03  0.19488079804E+03  0.47000000000E+01 0.  1.
         -5    1    3    3    0  502  0.31071220568E+02 -0.15183700856E+02  0.11685379897E+02  0.36804940193E+02  0.47000000000E+01 0.  1.
        -11    1    1    2    0    0 -0.10546371491E+02 -0.34730327522E+02  0.11686716934E+03  0.12237384063E+03  0.00000000000E+00 0.  1.
         11    1    1    2    0    0  0.59348341350E+02  0.36427800060E+02  0.17735180364E+03  0.19053312702E+03  0.00000000000E+00 0. -1.
<mgrwt>
<rscale>  0 0.12665900E+03</rscale>
<asrwt>0</asrwt>
<pdfrwt beam="1">  1        2 0.79052526E-01 0.13418619E+03</pdfrwt>
<pdfrwt beam="2">  1       -2 0.47309610E-02 0.13418619E+03</pdfrwt>
<totfact> 0.12195696E+04</totfact>
</mgrwt>
</event>
<event>
 7    1  0.8712071E-006  0.1971931E+03  0.7546771E-02  0.1156570E+00
         -2   -1    0    0    0  501 -0.00000000000E+00  0.00000000000E+00  0.25286797777E+03  0.25286797777E+03  0.00000000000E+00 0.  1.
          2   -1    0    0  501    0  0.00000000000E+00 -0.00000000000E+00 -0.13917945230E+03  0.13917945230E+03  0.00000000000E+00 0. -1.
         23    2    1    2    0    0  0.84284101639E+01 -0.15227908148E+03  0.51170168610E+02  0.20372410595E+03  0.12500067375E+03 0.  0.
          5    1    3    3  502    0 -0.11640311945E+02 -0.16859938322E+03  0.53503665259E+02  0.17733014713E+03  0.47000000000E+01 0. -1.
         -5    1    3    3    0  502  0.20068722109E+02  0.16320301740E+02 -0.23334966491E+01  0.26393958828E+02  0.47000000000E+01 0. -1.
        -11    1    1    2    0    0 -0.36921396107E+02  0.11946718276E+03  0.71366845339E+02  0.14397508070E+03  0.00000000000E+00 0.  1.
         11    1    1    2    0    0  0.28492985943E+02  0.32811898715E+02 -0.88484884784E+01  0.44348243410E+02  0.00000000000E+00 0. -1.
<mgrwt>
<rscale>  0 0.19211267E+03</rscale>
<asrwt>0</asrwt>
<pdfrwt beam="2">  1        2 0.21412223E-01 0.19719312E+03</pdfrwt>
<pdfrwt beam="1">  1       -2 0.38902766E-01 0.19719312E+03</pdfrwt>
<totfact> 0.15950139E+03</totfact>
</mgrwt>
</event>
<event>
 7    1  0.8712071E-006  0.1346632E+03  0.7546771E-02  0.1232682E+00
         -2   -1    0    0    0  501 -0.00000000000E+00  0.00000000000E+00  0.27202703686E+02  0.27202703686E+02  0.00000000000E+00 0.  1.
          2   -1    0    0  501    0  0.00000000000E+00 -0.00000000000E+00 -0.54798374888E+03  0.54798374888E+03  0.00000000000E+00 0. -1.
         23    2    1    2    0    0  0.29541597801E+02 -0.40459565905E+02 -0.23672237582E+03  0.27234472912E+03  0.12499794316E+03 0.  0.
          5    1    3    3  502    0 -0.46156076407E+02 -0.14143184802E+02 -0.13033009414E+03  0.13906270710E+03  0.47000000000E+01 0.  1.
         -5    1    3    3    0  502  0.75697674208E+02 -0.26316381103E+02 -0.10639228168E+03  0.13328202203E+03  0.47000000000E+01 0.  1.
        -11    1    1    2    0    0 -0.14256086530E+02  0.67492775036E+02 -0.14804014273E+03  0.16332297617E+03  0.00000000000E+00 0.  1.
         11    1    1    2    0    0 -0.15285511272E+02 -0.27033209131E+02 -0.13601852665E+03  0.13951874728E+03  0.00000000000E+00 0. -1.
<mgrwt>
<rscale>  0 0.12654003E+03</rscale>
<asrwt>0</asrwt>
<pdfrwt beam="2">  1        2 0.84305190E-01 0.13466317E+03</pdfrwt>
<pdfrwt beam="1">  1       -2 0.41850314E-02 0.13466317E+03</pdfrwt>
<totfact> 0.13640583E+04</totfact>
</mgrwt>
</event>
<event>
 7    1  0.8712071E-006  0.1548437E+03  0.7546771E-02  0.1204850E+00
         -2   -1    0    0    0  501 -0.00000000000E+00  0.00000000000E+00  0.84682952556E+02  0.84682952556E+02  0.00000000000E+00 0. -1.
          2   -1    0    0  501    0  0.00000000000E+00 -0.00000000000E+00 -0.26121099172E+03  0.26121099172E+03  0.00000000000E+00 0.  1.
         23    2    1    2    0    0  0.12332576301E+02 -0.90543848786E+02 -0.37009758131E+02  0.15920522590E+03  0.12500520296E+03 0.  0.
          5    1    3    3  502    0 -0.50015142834E+02 -0.47283533330E+02  0.10157302651E+02  0.69731684578E+02  0.47000000000E+01 0. -1.
         -5    1    3    3    0  502  0.62347719135E+02 -0.43260315456E+02 -0.47167060781E+02  0.89473541326E+02  0.47000000000E+01 0. -1.
        -11    1    1    2    0    0 -0.11306971823E+02 -0.14811598114E+02 -0.19092013908E+02  0.26678381614E+02  0.00000000000E+00 0. -1.
         11    1    1    2    0    0 -0.10256044778E+01  0.10535544690E+03 -0.12042626713E+03  0.16001033676E+03  0.00000000000E+00 0.  1.
<mgrwt>
<rscale>  0 0.14649258E+03</rscale>
<asrwt>0</asrwt>
<pdfrwt beam="2">  1        2 0.40186307E-01 0.15484373E+03</pdfrwt>
<pdfrwt beam="1">  1       -2 0.13028146E-01 0.15484373E+03</pdfrwt>
<totfact> 0.52985431E+03</totfact>
</mgrwt>
</event>
<event>
 7    1  0.8712071E-006  0.1961060E+03  0.7546771E-02  0.1157558E+00
         -1   -1    0    0    0  501 -0.00000000000E+00  0.00000000000E+00  0.23503379619E+03  0.23503379619E+03  0.00000000000E+00 0.  1.
          1   -1    0    0  501    0  0.00000000000E+00 -0.00000000000E+00 -0.17331185013E+03  0.17331185013E+03  0.00000000000E+00 0. -1.
         23    2    1    2    0    0  0.96611512576E+02 -0.11620389029E+03  0.11069450678E+03  0.22519066586E+03  0.12498173339E+03 0.  0.
          5    1    3    3  502    0  0.42540479211E+02  0.20768706493E+02  0.38070636645E+02  0.60930246311E+02  0.47000000000E+01 0.  1.
         -5    1    3    3    0  502  0.54071033365E+02 -0.13697259678E+03  0.72623870130E+02  0.16426041955E+03  0.47000000000E+01 0.  1.
        -11    1    1    2    0    0 -0.37408447520E+02  0.99635746119E+02 -0.31403224027E+01  0.10647316787E+03  0.00000000000E+00 0.  1.
         11    1    1    2    0    0 -0.59203065056E+02  0.16568144171E+02 -0.45832238313E+02  0.76681812590E+02  0.00000000000E+00 0. -1.
<mgrwt>
<rscale>  0 0.19100553E+03</rscale>
<asrwt>0</asrwt>
<pdfrwt beam="2">  1        1 0.26663362E-01 0.19610600E+03</pdfrwt>
<pdfrwt beam="1">  1       -1 0.36159046E-01 0.19610600E+03</pdfrwt>
<totfact> 0.12923308E+03</totfact>
</mgrwt>
</event>
<event>
 7    1  0.8712071E-006  0.1360822E+03  0.7546771E-02  0.1231122E+00
         -1   -1    0    0    0  501 -0.00000000000E+00  0.00000000000E+00  0.18061259807E+03  0.18061259807E+03  0.00000000000E+00 0.  1.
          1   -1    0    0  501    0  0.00000000000E+00 -0.00000000000E+00 -0.89514032465E+02  0.89514032465E+02  0.00000000000E+00 0. -1.
         23    2    1    2    0    0  0.52963495085E+02 -0.96019821721E+01  0.93377218552E+02  0.16503839242E+03  0.12498414361E+03 0.  0.
          5    1    3    3  502    0  0.14601348500E+02  0.51003038395E+02  0.86983958210E+01  0.53965372169E+02  0.47000000000E+01 0. -1.
         -5    1    3    3    0  502  0.38362146585E+02 -0.60605020567E+02  0.84678822731E+02  0.11107302025E+03  0.47000000000E+01 0. -1.
        -11    1    1    2    0    0  0.18538765232E+02  0.23604116223E+02 -0.10427089852E+02  0.31773641935E+02  0.00000000000E+00 0.  1.
         11    1    1    2    0    0 -0.71502260317E+02 -0.14002134051E+02  0.81484369008E+01  0.73314596176E+02  0.00000000000E+00 0. -1.
<mgrwt>
<rscale>  0 0.12755985E+03</rscale>
<asrwt>0</asrwt>
<pdfrwt beam="2">  1        1 0.13771390E-01 0.13608220E+03</pdfrwt>
<pdfrwt beam="1">  1       -1 0.27786554E-01 0.13608220E+03</pdfrwt>
<totfact> 0.46470527E+03</totfact>
</mgrwt>
</event>
<event>
 7    1  0.8712071E-006  0.1312032E+03  0.7546771E-02  0.1239899E+00
         -1   -1    0    0    0  501 -0.00000000000E+00  0.00000000000E+00  0.44444497770E+03  0.44444497770E+03  0.00000000000E+00 0.  1.
          1   -1    0    0  501    0  0.00000000000E+00 -0.00000000000E+00 -0.30529786834E+02  0.30529786834E+02  0.00000000000E+00 0. -1.
         23    2    1    2    0    0  0.39674187071E+02  0.37748092746E+01  0.27835017800E+03  0.30772243309E+03  0.12500393566E+03 0.  0.
          5    1    3    3  502    0  0.71888149486E+02 -0.10019996010E+02  0.25543521802E+03  0.26558905656E+03  0.47000000000E+01 0. -1.
         -5    1    3    3    0  502 -0.32213962415E+02  0.13794805285E+02  0.22914959976E+02  0.42133376532E+02  0.47000000000E+01 0. -1.
        -11    1    1    2    0    0 -0.66021085476E+02  0.12180424846E+02  0.91359961670E+02  0.11337455214E+03  0.00000000000E+00 0.  1.
         11    1    1    2    0    0  0.26346898405E+02 -0.15955234120E+02  0.44205051203E+02  0.53877779309E+02  0.00000000000E+00 0. -1.
<mgrwt>
<rscale>  0 0.12195976E+03</rscale>
<asrwt>0</asrwt>
<pdfrwt beam="2">  1        1 0.46968906E-02 0.13120318E+03</pdfrwt>
<pdfrwt beam="1">  1       -1 0.68376146E-01 0.13120318E+03</pdfrwt>
<totfact> 0.39056701E+03</totfact>
</mgrwt>
</event>
<event>
 7    1  0.8712071E-006  0.1657631E+03  0.7546771E-02  0.1189336E+00
          2   -1    0    0  501    0  0.00000000000E+00  0.00000000000E+00  0.68810051543E+03  0.68810051543E+03  0.00000000000E+00 0.  1.
         -2   -1    0    0    0  501 -0.00000000000E+00 -0.00000000000E+00 -0.35982197839E+02  0.35982197839E+02  0.00000000000E+00 0. -1.
         23    2    1    2    0    0 -0.10518142931E+03  0.28100416931E+02  0.27414196189E+03  0.32036109604E+03  0.12499860031E+03 0.  0.
          5    1    3    3  502    0 -0.75406876999E+01  0.17331378370E+02 -0.83866500127E+01  0.21205295226E+02  0.47000000000E+01 0. -1.
         -5    1    3    3    0  502 -0.97640741615E+02  0.10769038561E+02  0.28252861190E+03  0.29915580081E+03  0.47000000000E+01 0. -1.
        -11    1    1    2    0    0  0.10300737487E+03 -0.41978765256E+01  0.35783308977E+03  0.37238778387E+03  0.00000000000E+00 0.  1.
         11    1    1    2    0    0  0.21740544471E+01 -0.23902540406E+02  0.20143265931E+02  0.31333833359E+02  0.00000000000E+00 0. -1.
<mgrwt>
<rscale>  0 0.15943475E+03</rscale>
<asrwt>0</asrwt>
<pdfrwt beam="1">  1        2 0.10586161E+00 0.16576313E+03</pdfrwt>
<pdfrwt beam="2">  1       -2 0.55357233E-02 0.16576313E+03</pdfrwt>
<totfact> 0.69862884E+03</totfact>
</mgrwt>
</event>
<event>
 7    1  0.8712071E-006  0.1535329E+03  0.7546771E-02  0.1204606E+00
         -2   -1    0    0    0  501 -0.00000000000E+00  0.00000000000E+00  0.77919121632E+03  0.77919121632E+03  0.00000000000E+00 0. -1.
          2   -1    0    0  501    0  0.00000000000E+00 -0.00000000000E+00 -0.29912082454E+02  0.29912082454E+02  0.00000000000E+00 0.  1.
         23    2    1    2    0    0  0.30448852071E+02 -0.83789875708E+02  0.55989008363E+03  0.58055943626E+03  0.12499790966E+03 0.  0.
          5    1    3    3  502    0  0.34250027087E+01 -0.82254387144E+02  0.16253655354E+03  0.18225733479E+03  0.47000000000E+01 0.  1.
         -5    1    3    3    0  502  0.27023849362E+02 -0.15354885635E+01  0.39735353009E+03  0.39830210147E+03  0.47000000000E+01 0.  1.
        -11    1    1    2    0    0  0.17862198560E+02  0.15181973335E+02  0.23686743045E+01  0.23561856245E+02  0.00000000000E+00 0.  1.
         11    1    1    2    0    0 -0.48311050630E+02  0.68607902373E+02  0.18702037593E+03  0.20498200627E+03  0.00000000000E+00 0. -1.
<mgrwt>
<rscale>  0 0.14668563E+03</rscale>
<asrwt>0</asrwt>
<pdfrwt beam="2">  1        2 0.46018594E-02 0.15353291E+03</pdfrwt>
<pdfrwt beam="1">  1       -2 0.11987556E+00 0.15353291E+03</pdfrwt>
<totfact> 0.95458968E+02</totfact>
</mgrwt>
</event>
<event>
 7    1  0.8712071E-006  0.3403703E+03  0.7546771E-02  0.1067866E+00
         -1   -1    0    0    0  501 -0.00000000000E+00  0.00000000000E+00  0.99908279250E+03  0.99908279250E+03  0.00000000000E+00 0.  1.
          1   -1    0    0  501    0  0.00000000000E+00 -0.00000000000E+00 -0.14848138126E+03  0.14848138126E+03  0.00000000000E+00 0. -1.
         23    2    1    2    0    0  0.26002083944E+03 -0.18059571875E+03  0.71461821758E+03  0.79153719232E+03  0.12500511734E+03 0.  0.
          5    1    3    3  502    0  0.72551347970E+02 -0.65572510185E+02  0.10560025907E+03  0.14400332253E+03  0.47000000000E+01 0. -1.
         -5    1    3    3    0  502  0.18746949147E+03 -0.11502320856E+03  0.60901795851E+03  0.64753386979E+03  0.47000000000E+01 0. -1.
        -11    1    1    2    0    0 -0.13380847184E+03  0.13665693752E+03  0.52052493930E+02  0.19821525631E+03  0.00000000000E+00 0.  1.
         11    1    1    2    0    0 -0.12621236760E+03  0.43938781228E+02  0.83930699733E+02  0.15781172513E+03  0.00000000000E+00 0. -1.
<mgrwt>
<rscale>  0 0.33750027E+03</rscale>
<asrwt>0</asrwt>
<pdfrwt beam="2">  1        1 0.22843290E-01 0.34037028E+03</pdfrwt>
<pdfrwt beam="1">  1       -1 0.15370504E+00 0.34037028E+03</pdfrwt>
<totfact> 0.75874675E+01</totfact>
</mgrwt>
</event>
<event>
 7    1  0.8712071E-006  0.1323509E+03  0.7546771E-02  0.1237598E+00
          1   -1    0    0  501    0  0.00000000000E+00  0.00000000000E+00  0.22183860422E+03  0.22183860422E+03  0.00000000000E+00 0. -1.
         -1   -1    0    0    0  501 -0.00000000000E+00 -0.00000000000E+00 -0.61288987238E+02  0.61288987238E+02  0.00000000000E+00 0.  1.
         23    2    1    2    0    0  0.12282981667E+02  0.41740376174E+02  0.10333446239E+03  0.16791297196E+03  0.12499449745E+03 0.  0.
          5    1    3    3  502    0  0.27014086739E+02  0.55191306107E+02 -0.94907237989E+00  0.61634664682E+02  0.47000000000E+01 0.  1.
         -5    1    3    3    0  502 -0.14731105072E+02 -0.13450929932E+02  0.10428353477E+03  0.10627830728E+03  0.47000000000E+01 0.  1.
        -11    1    1    2    0    0 -0.13036130088E+02  0.14260046442E+02  0.55953089851E+02  0.59194914275E+02  0.00000000000E+00 0. -1.
         11    1    1    2    0    0  0.75314842074E+00 -0.56000422617E+02  0.12620647364E+01  0.56019705223E+02  0.00000000000E+00 0.  1.
<mgrwt>
<rscale>  0 0.12339559E+03</rscale>
<asrwt>0</asrwt>
<pdfrwt beam="1">  1        1 0.34129016E-01 0.13235088E+03</pdfrwt>
<pdfrwt beam="2">  1       -1 0.94290751E-02 0.13235088E+03</pdfrwt>
<totfact> 0.81175175E+03</totfact>
</mgrwt>
</event>
<event>
 7    1  0.8712071E-006  0.1303722E+03  0.7546771E-02  0.1240862E+00
          3   -1    0    0  501    0  0.00000000000E+00  0.00000000000E+00  0.31723876271E+03  0.31723876271E+03  0.00000000000E+00 0. -1.
         -3   -1    0    0    0  501 -0.00000000000E+00 -0.00000000000E+00 -0.56359805973E+02  0.56359805973E+02  0.00000000000E+00 0.  1.
         23    2    1    2    0    0 -0.27788536991E+02 -0.24479680703E+02  0.47370284340E+02  0.13871145109E+03  0.12500186107E+03 0.  0.
          5    1    3    3  502    0 -0.48165758837E+02  0.38625977931E+02  0.10857330596E+02  0.62863965220E+02  0.47000000000E+01 0.  1.
         -5    1    3    3    0  502  0.20377221846E+02 -0.63105658634E+02  0.36512953744E+02  0.75847485871E+02  0.47000000000E+01 0.  1.
        -11    1    1    2    0    0 -0.72492774405E+01  0.47858468171E+02  0.68441647943E+02  0.83828659612E+02  0.00000000000E+00 0.  1.
         11    1    1    2    0    0  0.35037814431E+02 -0.23378787469E+02  0.14506702445E+03  0.15105845798E+03  0.00000000000E+00 0. -1.
<mgrwt>
<rscale>  0 0.12136503E+03</rscale>
<asrwt>0</asrwt>
<pdfrwt beam="1">  1        3 0.48805962E-01 0.13037225E+03</pdfrwt>
<pdfrwt beam="2">  1       -3 0.86707396E-02 0.13037225E+03</pdfrwt>
<totfact> 0.89943383E+02</totfact>
</mgrwt>
</event>
<event>
 7    1  0.8712071E-006  0.1843229E+03  0.7546771E-02  0.1168667E+00
          1   -1    0    0  501    0  0.00000000000E+00  0.00000000000E+00  0.62488351668E+03  0.62488351668E+03  0.00000000000E+00 0. -1.
         -1   -1    0    0    0  501 -0.00000000000E+00 -0.00000000000E+00 -0.14278701928E+03  0.14278701928E+03  0.00000000000E+00 0.  1.
         23    2    1    2    0    0  0.11446037377E+03  0.72419512925E+02 -0.65755331978E+02  0.19570050581E+03  0.12501664398E+03 0.  0.
          5    1    3    3  502    0  0.96015550645E+02 -0.13406473774E+01 -0.70740278932E+02  0.11936105045E+03  0.47000000000E+01 0.  1.
         -5    1    3    3    0  502  0.18444823128E+02  0.73760160302E+02  0.49849469538E+01  0.76339455357E+02  0.47000000000E+01 0.  1.
        -11    1    1    2    0    0 -0.10093335627E+03 -0.22681415678E+02  0.26531992156E+03  0.28477473519E+03  0.00000000000E+00 0. -1.
         11    1    1    2    0    0 -0.13527017502E+02 -0.49738097248E+02  0.28253190782E+03  0.28719529497E+03  0.00000000000E+00 0.  1.
<mgrwt>
<rscale>  0 0.17911055E+03</rscale>
<asrwt>0</asrwt>
<pdfrwt beam="1">  1        1 0.96135925E-01 0.18432288E+03</pdfrwt>
<pdfrwt beam="2">  1       -1 0.21967234E-01 0.18432288E+03</pdfrwt>
<totfact> 0.57903137E+02</totfact>
</mgrwt>
</event>
<event>
 6    1  0.8712071E-006  0.8793020E+03  0.7546771E-02  0.9604141E-01
          2   -1    0    0  501    0  0.00000000000E+00  0.00000000000E+00  0.13584787141E+04  0.13584787141E+04  0.00000000000E+00 0. -1.
         -2   -1    0    0    0  501 -0.00000000000E+00 -0.00000000000E+00 -0.36243344344E+03  0.36243344344E+03  0.00000000000E+00 0.  1.
          5    1    1    2  502    0  0.12872778243E+02 -0.56002856094E+02  0.53927737837E+03  0.54235063302E+03  0.47000000000E+01 0. -1.
         -5    1    1    2    0  502  0.49178694628E+03  0.33157530137E+02  0.72910848548E+01  0.49297978890E+03  0.47000000000E+01 0.  1.
        -11    1    1    2    0    0 -0.77595089191E+02 -0.23911598145E+02  0.34326244549E+02  0.88153578811E+02  0.00000000000E+00 0.  1.
         11    1    1    2    0    0 -0.42706463534E+03  0.46756924103E+02  0.41515056290E+03  0.59742815684E+03  0.00000000000E+00 0. -1.
<mgrwt>
<rscale>  0 0.77022739E+03</rscale>
<asrwt>0</asrwt>
<pdfrwt beam="1">  1        2 0.20899672E+00 0.87930199E+03</pdfrwt>
<pdfrwt beam="2">  1       -2 0.55758992E-01 0.87930199E+03</pdfrwt>
<totfact> 0.46549435E+01</totfact>
</mgrwt>
</event>
<event>
 7    1  0.8712071E-006  0.1494198E+03  0.7546771E-02  0.1211584E+00
         -1   -1    0    0    0  501 -0.00000000000E+00  0.00000000000E+00  0.59510806081E+03  0.59510806081E+03  0.00000000000E+00 0.  1.
          1   -1    0    0  501    0  0.00000000000E+00 -0.00000000000E+00 -0.30421760105E+02  0.30421760105E+02  0.00000000000E+00 0. -1.
         23    2    1    2    0    0  0.75677958329E+02  0.31201410447E+02  0.32489011359E+03  0.35760295470E+03  0.12500242362E+03 0.  0.
          5    1    3    3  502    0 -0.20595135111E+02 -0.19011510226E+02  0.22417048536E+02  0.36196839315E+02  0.47000000000E+01 0.  1.
         -5    1    3    3    0  502  0.96273093440E+02  0.50212920673E+02  0.30247306506E+03  0.32140611539E+03  0.47000000000E+01 0.  1.
        -11    1    1    2    0    0 -0.88174319712E+02 -0.42976120294E+02  0.17213823487E+03  0.19812427785E+03  0.00000000000E+00 0. -1.
         11    1    1    2    0    0  0.12496361383E+02  0.11774709846E+02  0.67657952241E+02  0.69802588357E+02  0.00000000000E+00 0.  1.
<mgrwt>
<rscale>  0 0.14130485E+03</rscale>
<asrwt>0</asrwt>
<pdfrwt beam="2">  1        1 0.46802712E-02 0.14941984E+03</pdfrwt>
<pdfrwt beam="1">  1       -1 0.91555078E-01 0.14941984E+03</pdfrwt>
<totfact> 0.21766133E+03</totfact>
</mgrwt>
</event>
<event>
 7    1  0.8712071E-006  0.1408354E+03  0.7546771E-02  0.1223220E+00
          1   -1    0    0  501    0  0.00000000000E+00  0.00000000000E+00  0.19319471379E+03  0.19319471379E+03  0.00000000000E+00 0. -1.
         -1   -1    0    0    0  501 -0.00000000000E+00 -0.00000000000E+00 -0.98359243794E+02  0.98359243794E+02  0.00000000000E+00 0.  1.
         23    2    1    2    0    0 -0.62777616073E+02 -0.16372741915E+02 -0.61898751758E+01  0.14097131386E+03  0.12500200406E+03 0.  0.
          5    1    3    3  502    0 -0.77915388843E+02 -0.13062549650E+02  0.42378669215E+02  0.89774604574E+02  0.47000000000E+01 0. -1.
         -5    1    3    3    0  502  0.15137772769E+02 -0.33101922645E+01 -0.48568544391E+02  0.51196709284E+02  0.47000000000E+01 0. -1.
        -11    1    1    2    0    0  0.11081712457E+02 -0.10065399421E+02  0.90304623187E+02  0.91537104965E+02  0.00000000000E+00 0. -1.
         11    1    1    2    0    0  0.51695903616E+02  0.26438141336E+02  0.10720721988E+02  0.59045538764E+02  0.00000000000E+00 0.  1.
<mgrwt>
<rscale>  0 0.13289626E+03</rscale>
<asrwt>0</asrwt>
<pdfrwt beam="1">  1        1 0.29722263E-01 0.14083535E+03</pdfrwt>
<pdfrwt beam="2">  1       -1 0.15132191E-01 0.14083535E+03</pdfrwt>
<totfact> 0.46625937E+03</totfact>
</mgrwt>
</event>
<event>
 7    1  0.8712071E-006  0.1339389E+03  0.7546771E-02  0.1228089E+00
          2   -1    0    0  501    0  0.00000000000E+00  0.00000000000E+00  0.55472734963E+03  0.55472734963E+03  0.00000000000E+00 0. -1.
         -2   -1    0    0    0  501 -0.00000000000E+00 -0.00000000000E+00 -0.28476987004E+02  0.28476987004E+02  0.00000000000E+00 0.  1.
         23    2    1    2    0    0 -0.56140720371E+01 -0.47780412984E+02  0.28942427365E+03  0.31891385149E+03  0.12500059528E+03 0.  0.
          5    1    3    3  502    0 -0.41528495051E+02  0.25025904318E+02  0.14759471918E+03  0.15542587596E+03  0.47000000000E+01 0. -1.
         -5    1    3    3    0  502  0.35914423013E+02 -0.72806317301E+02  0.14182955448E+03  0.16348797553E+03  0.47000000000E+01 0. -1.
        -11    1    1    2    0    0 -0.36836338998E+02  0.48739505960E+02  0.73704299261E+02  0.95732852468E+02  0.00000000000E+00 0.  1.
         11    1    1    2    0    0  0.42450411035E+02 -0.95909297652E+00  0.16312178971E+03  0.16855763268E+03  0.00000000000E+00 0. -1.
<mgrwt>
<rscale>  0 0.12957425E+03</rscale>
<asrwt>0</asrwt>
<pdfrwt beam="1">  1        2 0.85342661E-01 0.13393892E+03</pdfrwt>
<pdfrwt beam="2">  1       -2 0.43810753E-02 0.13393892E+03</pdfrwt>
<totfact> 0.12563335E+04</totfact>
</mgrwt>
</event>
<event>
 7    1  0.8712071E-006  0.1269798E+03  0.7546771E-02  0.1248452E+00
          1   -1    0    0  501    0  0.00000000000E+00  0.00000000000E+00  0.21203869373E+03  0.21203869373E+03  0.00000000000E+00 0. -1.
         -1   -1    0    0    0  501 -0.00000000000E+00 -0.00000000000E+00 -0.59105962330E+02  0.59105962330E+02  0.00000000000E+00 0.  1.
         23    2    1    2    0    0  0.17651447001E+02  0.13619409654E+02  0.57719417643E+02  0.13948266016E+03  0.12500727743E+03 0.  0.
          5    1    3    3  502    0 -0.18791529179E+02  0.24144811167E+02 -0.30427577002E+02  0.43405309784E+02  0.47000000000E+01 0.  1.
         -5    1    3    3    0  502  0.36442976180E+02 -0.10525401514E+02  0.88146994645E+02  0.96077350373E+02  0.47000000000E+01 0.  1.
        -11    1    1    2    0    0 -0.30824477487E+02 -0.42800307989E+02  0.80937736169E+02  0.96607100735E+02  0.00000000000E+00 0. -1.
         11    1    1    2    0    0  0.13173030487E+02  0.29180898335E+02  0.14275577591E+02  0.35054895170E+02  0.00000000000E+00 0.  1.
<mgrwt>
<rscale>  0 0.11681127E+03</rscale>
<asrwt>0</asrwt>
<pdfrwt beam="1">  1        1 0.32621337E-01 0.12697985E+03</pdfrwt>
<pdfrwt beam="2">  1       -1 0.90932251E-02 0.12697985E+03</pdfrwt>
<totfact> 0.90417173E+03</totfact>
</mgrwt>
</event>
<event>
 7    1  0.8712071E-006  0.2478230E+03  0.7546771E-02  0.1116480E+00
         -2   -1    0    0    0  501 -0.00000000000E+00  0.00000000000E+00  0.17154482740E+04  0.17154482740E+04  0.00000000000E+00 0.  1.
          2   -1    0    0  501    0  0.00000000000E+00 -0.00000000000E+00 -0.14075300839E+03  0.14075300839E+03  0.00000000000E+00 0. -1.
         23    2    1    2    0    0 -0.19782105741E+03  0.91784280109E+02  0.15989900688E+04  0.16180808037E+04  0.11772307588E+03 0.  0.
          5    1    3    3  502    0  0.34397150819E+01  0.17515273631E+02  0.36261071451E+02  0.40688717761E+02  0.47000000000E+01 0. -1.
         -5    1    3    3    0  502 -0.20126077249E+03  0.74269006478E+02  0.15627289973E+04  0.15773920860E+04  0.47000000000E+01 0.  1.
        -11    1    1    2    0    0  0.13718784145E+03 -0.83709423769E+02  0.20904562816E+02  0.16206409909E+03  0.00000000000E+00 0.  1.
         11    1    1    2    0    0  0.60633215964E+02 -0.80748563395E+01 -0.45199365991E+02  0.76056379542E+02  0.00000000000E+00 0. -1.
<mgrwt>
<rscale>  0 0.24504021E+03</rscale>
<asrwt>0</asrwt>
<pdfrwt beam="2">  1        2 0.21654310E-01 0.24782302E+03</pdfrwt>
<pdfrwt beam="1">  1       -2 0.26391510E+00 0.24782302E+03</pdfrwt>
<totfact> 0.15204130E+01</totfact>
</mgrwt>
</event>
<event>
 7    1  0.8712071E-006  0.1338814E+03  0.7546771E-02  0.1234565E+00
         -2   -1    0    0    0  501 -0.00000000000E+00  0.00000000000E+00  0.11490836679E+03  0.11490836679E+03  0.00000000000E+00 0.  1.
          2   -1    0    0  501    0  0.00000000000E+00 -0.00000000000E+00 -0.12205739969E+03  0.12205739969E+03  0.00000000000E+00 0. -1.
         23    2    1    2    0    0  0.90346000527E+01  0.47092969145E+02  0.57135066362E+00  0.13388259847E+03  0.12499940796E+03 0.  0.
          5    1    3    3  502    0  0.65242348879E+02  0.30111196554E+02 -0.13635072328E+02  0.73288835729E+02  0.47000000000E+01 0.  1.
         -5    1    3    3    0  502 -0.56207748826E+02  0.16981772592E+02  0.14206422992E+02  0.60593762737E+02  0.47000000000E+01 0.  1.
        -11    1    1    2    0    0 -0.47143880975E+02 -0.19363447383E+02  0.11395408001E+02  0.52223978510E+02  0.00000000000E+00 0.  1.
         11    1    1    2    0    0  0.38109280922E+02 -0.27729521763E+02 -0.19115791569E+02  0.50859189503E+02  0.00000000000E+00 0. -1.
<mgrwt>
<rscale>  0 0.12532327E+03</rscale>
<asrwt>0</asrwt>
<pdfrwt beam="2">  1        2 0.18778062E-01 0.13388138E+03</pdfrwt>
<pdfrwt beam="1">  1       -2 0.17678210E-01 0.13388138E+03</pdfrwt>
<totfact> 0.73341897E+03</totfact>
</mgrwt>
</event>
<event>
 7    1  0.8712071E-006  0.1346371E+03  0.7546771E-02  0.1233195E+00
         -1   -1    0    0    0  501 -0.00000000000E+00  0.00000000000E+00  0.20822706213E+03  0.20822706213E+03  0.00000000000E+00 0.  1.
          1   -1    0    0  501    0  0.00000000000E+00 -0.00000000000E+00 -0.76441487833E+02  0.76441487833E+02  0.00000000000E+00 0. -1.
         23    2    1    2    0    0  0.15102670969E+02  0.47694856550E+02  0.11944811839E+03  0.17998609375E+03  0.12499700375E+03 0.  0.
          5    1    3    3  502    0  0.68015331577E+01 -0.10159327290E+01 -0.25473023094E+02  0.26800333545E+02  0.47000000000E+01 0. -1.
         -5    1    3    3    0  502  0.83011378115E+01  0.48710789279E+02  0.14492114149E+03  0.15318576021E+03  0.47000000000E+01 0. -1.
        -11    1    1    2    0    0 -0.31770591321E+02  0.17140600351E+02  0.10952818164E+02  0.37724459957E+02  0.00000000000E+00 0.  1.
         11    1    1    2    0    0  0.16667920352E+02 -0.64835456900E+02  0.13846377404E+01  0.66957996251E+02  0.00000000000E+00 0. -1.
<mgrwt>
<rscale>  0 0.12620677E+03</rscale>
<asrwt>0</asrwt>
<pdfrwt beam="2">  1        1 0.11760229E-01 0.13463707E+03</pdfrwt>
<pdfrwt beam="1">  1       -1 0.32034932E-01 0.13463707E+03</pdfrwt>
<totfact> 0.44958125E+03</totfact>
</mgrwt>
</event>
<event>
 7    1  0.8712071E-006  0.1401088E+03  0.7546771E-02  0.1224612E+00
         -1   -1    0    0    0  501 -0.00000000000E+00  0.00000000000E+00  0.43133335551E+02  0.43133335551E+02  0.00000000000E+00 0.  1.
          1   -1    0    0  501    0  0.00000000000E+00 -0.00000000000E+00 -0.40364679270E+03  0.40364679270E+03  0.00000000000E+00 0. -1.
         23    2    1    2    0    0  0.59507953873E+02  0.21535072287E+02 -0.12926093561E+03  0.19062758513E+03  0.12500212328E+03 0.  0.
          5    1    3    3  502    0  0.91312336244E+02  0.31623398948E+02 -0.60642190325E+02  0.11418207985E+03  0.47000000000E+01 0.  1.
         -5    1    3    3    0  502 -0.31804382371E+02 -0.10088326660E+02 -0.68618745283E+02  0.76445505277E+02  0.47000000000E+01 0.  1.
        -11    1    1    2    0    0 -0.47674461817E+02 -0.37497258217E+02 -0.22810909033E+03  0.23603528502E+03  0.00000000000E+00 0. -1.
         11    1    1    2    0    0 -0.11833492055E+02  0.15962185930E+02 -0.31434312106E+01  0.20117258105E+02  0.00000000000E+00 0.  1.
<mgrwt>
<rscale>  0 0.13193511E+03</rscale>
<asrwt>0</asrwt>
<pdfrwt beam="2">  1        1 0.62099506E-01 0.14010884E+03</pdfrwt>
<pdfrwt beam="1">  1       -1 0.66358979E-02 0.14010884E+03</pdfrwt>
<totfact> 0.65793549E+03</totfact>
</mgrwt>
</event>
<event>
 7    1  0.8712071E-006  0.1346572E+03  0.7546771E-02  0.1233230E+00
          2   -1    0    0  501    0  0.00000000000E+00  0.00000000000E+00  0.13198074684E+03  0.13198074684E+03  0.00000000000E+00 0. -1.
         -2   -1    0    0    0  501 -0.00000000000E+00 -0.00000000000E+00 -0.13076976897E+03  0.13076976897E+03  0.00000000000E+00 0.  1.
         23    2    1    2    0    0 -0.78802562672E+01 -0.49501594770E+02 -0.54084133671E+02  0.14511258650E+03  0.12498025013E+03 0.  0.
          5    1    3    3  502    0  0.53112220432E+02 -0.45899480209E+02 -0.44077724477E+02  0.83021720277E+02  0.47000000000E+01 0.  1.
         -5    1    3    3    0  502 -0.60992476699E+02 -0.36021145609E+01 -0.10006409193E+02  0.62090866221E+02  0.47000000000E+01 0.  1.
        -11    1    1    2    0    0  0.25104514319E+02  0.71266267921E+02  0.45521183881E+02  0.88211653224E+02  0.00000000000E+00 0.  1.
         11    1    1    2    0    0 -0.17224258052E+02 -0.21764673151E+02  0.97739276568E+01  0.29426276092E+02  0.00000000000E+00 0. -1.
<mgrwt>
<rscale>  0 0.12618429E+03</rscale>
<asrwt>0</asrwt>
<pdfrwt beam="1">  1        2 0.20304730E-01 0.13465723E+03</pdfrwt>
<pdfrwt beam="2">  1       -2 0.20118426E-01 0.13465723E+03</pdfrwt>
<totfact> 0.54048056E+03</totfact>
</mgrwt>
</event>
<event>
 7    1  0.8712071E-006  0.1566267E+03  0.7546771E-02  0.1200716E+00
         -2   -1    0    0    0  501 -0.00000000000E+00  0.00000000000E+00  0.30812819059E+02  0.30812819059E+02  0.00000000000E+00 0.  1.
          2   -1    0    0  501    0  0.00000000000E+00 -0.00000000000E+00 -0.68997733142E+03  0.68997733142E+03  0.00000000000E+00 0. -1.
         23    2    1    2    0    0  0.86657001963E+02 -0.37375511460E+02 -0.29935078132E+03  0.33785027304E+03  0.12500220746E+03 0.  0.
          5    1    3    3  502    0  0.36084643694E+02 -0.75026168876E+02 -0.10876128285E+03  0.13704792656E+03  0.47000000000E+01 0. -1.
         -5    1    3    3    0  502  0.50572358269E+02  0.37650657416E+02 -0.19058949847E+03  0.20080234648E+03  0.47000000000E+01 0. -1.
        -11    1    1    2    0    0 -0.24409166697E+02  0.42714129985E+02 -0.64668761142E+02  0.81254864388E+02  0.00000000000E+00 0.  1.
         11    1    1    2    0    0 -0.62247835266E+02 -0.53386185246E+01 -0.29514496989E+03  0.30168501305E+03  0.00000000000E+00 0. -1.
<mgrwt>
<rscale>  0 0.14980207E+03</rscale>
<asrwt>0</asrwt>
<pdfrwt beam="2">  1        2 0.10615035E+00 0.15662668E+03</pdfrwt>
<pdfrwt beam="1">  1       -2 0.47404340E-02 0.15662668E+03</pdfrwt>
<totfact> 0.87744839E+03</totfact>
</mgrwt>
</event>
<event>
 6    1  0.8712071E-006  0.1394567E+03  0.7546771E-02  0.1238303E+00
         -1   -1    0    0    0  501 -0.00000000000E+00  0.00000000000E+00  0.47627709066E+03  0.47627709066E+03  0.00000000000E+00 0.  1.
          1   -1    0    0  501    0  0.00000000000E+00 -0.00000000000E+00 -0.26273468941E+02  0.26273468941E+02  0.00000000000E+00 0. -1.
          5    1    1    2  502    0  0.53298965036E+00 -0.47491235531E+02  0.32019211413E+02  0.57471918619E+02  0.47000000000E+01 0. -1.
         -5    1    1    2    0  502 -0.10191962550E+01  0.59936145734E+02  0.25019065532E+03  0.25731466016E+03  0.47000000000E+01 0.  1.
        -11    1    1    2    0    0 -0.14093253944E+02 -0.45157474762E+02  0.79903328832E+02  0.92856659923E+02  0.00000000000E+00 0.  1.
         11    1    1    2    0    0  0.14579460549E+02  0.32712564559E+02  0.87890426161E+02  0.94907320901E+02  0.00000000000E+00 0. -1.
<mgrwt>
<rscale>  0 0.12295360E+03</rscale>
<asrwt>0</asrwt>
<pdfrwt beam="2">  1        1 0.40420725E-02 0.13945674E+03</pdfrwt>
<pdfrwt beam="1">  1       -1 0.73273392E-01 0.13945674E+03</pdfrwt>
<totfact> 0.42019521E+03</totfact>
</mgrwt>
</event>
<event>
 7    1  0.8712071E-006  0.3154972E+03  0.7546771E-02  0.1079052E+00
         -2   -1    0    0    0  501 -0.00000000000E+00  0.00000000000E+00  0.51732511892E+02  0.51732511892E+02  0.00000000000E+00 0.  1.
          2   -1    0    0  501    0  0.00000000000E+00 -0.00000000000E+00 -0.20939178507E+04  0.20939178507E+04  0.00000000000E+00 0. -1.
         23    2    1    2    0    0 -0.28434768092E+03  0.55328881902E+02 -0.67685532173E+03  0.74677414125E+03  0.12499441057E+03 0.  0.
          5    1    3    3  502    0 -0.27245242760E+03  0.78834672224E+02 -0.57088294204E+03  0.63747521862E+03  0.47000000000E+01 0.  1.
         -5    1    3    3    0  502 -0.11895253319E+02 -0.23505790322E+02 -0.10597237969E+03  0.10929892263E+03  0.47000000000E+01 0.  1.
        -11    1    1    2    0    0  0.13303838986E+03 -0.73591133020E+02 -0.69689494965E+03  0.71328636527E+03  0.00000000000E+00 0.  1.
         11    1    1    2    0    0  0.15130929106E+03  0.18262251118E+02 -0.66843506740E+03  0.68558985604E+03  0.00000000000E+00 0. -1.
<mgrwt>
<rscale>  0 0.31271476E+03</rscale>
<asrwt>0</asrwt>
<pdfrwt beam="2">  1        2 0.32214116E+00 0.31549721E+03</pdfrwt>
<pdfrwt beam="1">  1       -2 0.79588491E-02 0.31549721E+03</pdfrwt>
<totfact> 0.62813446E+02</totfact>
</mgrwt>
</event>
<event>
 7    1  0.8712071E-006  0.1620178E+03  0.7546771E-02  0.1193932E+00
          1   -1    0    0  501    0  0.00000000000E+00  0.00000000000E+00  0.13931621603E+03  0.13931621603E+03  0.00000000000E+00 0. -1.
         -1   -1    0    0    0  501 -0.00000000000E+00 -0.00000000000E+00 -0.22583578207E+03  0.22583578207E+03  0.00000000000E+00 0.  1.
         23    2    1    2    0    0 -0.10297627742E+03  0.44717174755E+01 -0.14356413434E+03  0.21647271297E+03  0.12500265927E+03 0.  0.
          5    1    3    3  502    0 -0.70168832555E+02 -0.35745765507E+02 -0.18563858033E+02  0.81044010506E+02  0.47000000000E+01 0. -1.
         -5    1    3    3    0  502 -0.32807444867E+02  0.40217482983E+02 -0.12500027630E+03  0.13542870247E+03  0.47000000000E+01 0. -1.
        -11    1    1    2    0    0  0.38568423054E+02 -0.29847755436E+02 -0.12716352044E+02  0.50399577089E+02  0.00000000000E+00 0.  1.
         11    1    1    2    0    0  0.64407854368E+02  0.25376037960E+02  0.69760920337E+02  0.98279708043E+02  0.00000000000E+00 0. -1.
<mgrwt>
<rscale>  0 0.15544980E+03</rscale>
<asrwt>0</asrwt>
<pdfrwt beam="1">  1        1 0.21433264E-01 0.16201782E+03</pdfrwt>
<pdfrwt beam="2">  1       -1 0.34743966E-01 0.16201782E+03</pdfrwt>
<totfact> 0.18172283E+03</totfact>
</mgrwt>
</event>
<event>
 7    1  0.8712071E-006  0.1253365E+03  0.7546771E-02  0.1249443E+00
          1   -1    0    0  501    0  0.00000000000E+00  0.00000000000E+00  0.22327337893E+03  0.22327337893E+03  0.00000000000E+00 0. -1.
         -1   -1    0    0    0  501 -0.00000000000E+00 -0.00000000000E+00 -0.54109855458E+02  0.54109855458E+02  0.00000000000E+00 0.  1.
         23    2    1    2    0    0 -0.37187875613E+01 -0.83636844576E+01  0.79567095895E+02  0.14845930204E+03  0.12500184404E+03 0.  0.
          5    1    3    3  502    0  0.45193051630E+02 -0.42603195996E+02  0.23963004651E+02  0.66736495387E+02  0.47000000000E+01 0.  1.
         -5    1    3    3    0  502 -0.48911839191E+02  0.34239511538E+02  0.55604091244E+02  0.81722806648E+02  0.47000000000E+01 0.  1.
        -11    1    1    2    0    0  0.25968175297E+02  0.24184236687E+02  0.23613705614E+00  0.35486324029E+02  0.00000000000E+00 0.  1.
         11    1    1    2    0    0 -0.22249387735E+02 -0.15820552230E+02  0.89360290524E+02  0.93437608328E+02  0.00000000000E+00 0. -1.
<mgrwt>
<rscale>  0 0.11623361E+03</rscale>
<asrwt>0</asrwt>
<pdfrwt beam="1">  1        1 0.34349750E-01 0.12533651E+03</pdfrwt>
<pdfrwt beam="2">  1       -1 0.83245933E-02 0.12533651E+03</pdfrwt>
<totfact> 0.96842206E+03</totfact>
</mgrwt>
</event>
<event>
 7    1  0.8712071E-006  0.1525161E+03  0.7546771E-02  0.1206556E+00
         -2   -1    0    0    0  501 -0.00000000000E+00  0.00000000000E+00  0.96850899794E+02  0.96850899794E+02  0.00000000000E+00 0.  1.
          2   -1    0    0  501    0  0.00000000000E+00 -0.00000000000E+00 -0.19920133091E+03  0.19920133091E+03  0.00000000000E+00 0. -1.
         23    2    1    2    0    0  0.71809543068E+02  0.49788953415E+02 -0.51439051297E+02  0.16095695359E+03  0.12500245819E+03 0.  0.
          5    1    3    3  502    0  0.47048519928E+02  0.73396108279E+02  0.12588544997E+02  0.88210619560E+02  0.47000000000E+01 0. -1.
         -5    1    3    3    0  502  0.24761023141E+02 -0.23607154864E+02 -0.64027596294E+02  0.72746334031E+02  0.47000000000E+01 0. -1.
        -11    1    1    2    0    0 -0.20851042101E+02 -0.26062770120E+02 -0.68497973535E+02  0.76197154287E+02  0.00000000000E+00 0. -1.
         11    1    1    2    0    0 -0.50958500967E+02 -0.23726183296E+02  0.17586593711E+02  0.58898122831E+02  0.00000000000E+00 0.  1.
<mgrwt>
<rscale>  0 0.14515483E+03</rscale>
<asrwt>0</asrwt>
<pdfrwt beam="2">  1        2 0.30646358E-01 0.15251611E+03</pdfrwt>
<pdfrwt beam="1">  1       -2 0.14900139E-01 0.15251611E+03</pdfrwt>
<totfact> 0.56955951E+03</totfact>
</mgrwt>
</event>
<event>
 7    1  0.8712071E-006  0.1305360E+03  0.7546771E-02  0.1240027E+00
          1   -1    0    0  501    0  0.00000000000E+00  0.00000000000E+00  0.55176936959E+03  0.55176936959E+03  0.00000000000E+00 0. -1.
         -1   -1    0    0    0  501 -0.00000000000E+00 -0.00000000000E+00 -0.27686158860E+02  0.27686158860E+02  0.00000000000E+00 0.  1.
         23    2    1    2    0    0  0.19716456604E+02 -0.32050591317E+02  0.18683958998E+03  0.22792252117E+03  0.12499465671E+03 0.  0.
          5    1    3    3  502    0 -0.29748183718E+02 -0.64462832437E+02  0.10532764841E+03  0.12710788614E+03  0.47000000000E+01 0. -1.
         -5    1    3    3    0  502  0.49464640321E+02  0.32412241120E+02  0.81511941572E+02  0.10081463503E+03  0.47000000000E+01 0. -1.
        -11    1    1    2    0    0  0.34360803758E+02  0.26986414022E+02  0.12365730666E+03  0.13114900254E+03  0.00000000000E+00 0.  1.
         11    1    1    2    0    0 -0.54077260362E+02  0.50641772947E+01  0.21358631409E+03  0.22038400474E+03  0.00000000000E+00 0. -1.
<mgrwt>
<rscale>  0 0.12188049E+03</rscale>
<asrwt>0</asrwt>
<pdfrwt beam="1">  1        1 0.84887587E-01 0.13053598E+03</pdfrwt>
<pdfrwt beam="2">  1       -1 0.42594095E-02 0.13053598E+03</pdfrwt>
<totfact> 0.84396103E+03</totfact>
</mgrwt>
</event>
<event>
 7    1  0.8712071E-006  0.1623406E+03  0.7546771E-02  0.1193297E+00
          2   -1    0    0  501    0  0.00000000000E+00  0.00000000000E+00  0.14210776689E+04  0.14210776689E+04  0.00000000000E+00 0. -1.
         -2   -1    0    0    0  501 -0.00000000000E+00 -0.00000000000E+00 -0.16783284987E+02  0.16783284987E+02  0.00000000000E+00 0.  1.
         23    2    1    2    0    0 -0.39358541637E+02  0.95902322339E+02  0.91852366624E+03  0.93275944774E+03  0.12493242844E+03 0.  0.
          5    1    3    3  502    0 -0.39152886094E+02 -0.69952304088E+01  0.99095389633E+02  0.10688249616E+03  0.47000000000E+01 0.  1.
         -5    1    3    3    0  502 -0.20565554237E+00  0.10289755275E+03  0.81942827661E+03  0.82587695158E+03  0.47000000000E+01 0.  1.
        -11    1    1    2    0    0 -0.17125461666E+02 -0.46304372945E+02  0.93912788277E+02  0.10609895472E+03  0.00000000000E+00 0.  1.
         11    1    1    2    0    0  0.56484003302E+02 -0.49597949394E+02  0.39185792945E+03  0.39900255147E+03  0.00000000000E+00 0. -1.
<mgrwt>
<rscale>  0 0.15599250E+03</rscale>
<asrwt>0</asrwt>
<pdfrwt beam="1">  1        2 0.21862724E+00 0.16234057E+03</pdfrwt>
<pdfrwt beam="2">  1       -2 0.25820450E-02 0.16234057E+03</pdfrwt>
<totfact> 0.78435545E+03</totfact>
</mgrwt>
</event>
<event>
 7    1  0.8712071E-006  0.1853136E+03  0.7546771E-02  0.1167878E+00
          2   -1    0    0  501    0  0.00000000000E+00  0.00000000000E+00  0.20343616344E+03  0.20343616344E+03  0.00000000000E+00 0. -1.
         -2   -1    0    0    0  501 -0.00000000000E+00 -0.00000000000E+00 -0.15335243549E+03  0.15335243549E+03  0.00000000000E+00 0.  1.
         23    2    1    2    0    0  0.13679313194E+03  0.21802360908E+01  0.23141351699E+01  0.18532806738E+03  0.12499609178E+03 0.  0.
          5    1    3    3  502    0  0.85680227684E+01  0.19624230216E+02 -0.42894147041E+02  0.48171768455E+02  0.47000000000E+01 0. -1.
         -5    1    3    3    0  502  0.12822510918E+03 -0.17443994125E+02  0.45208282210E+02  0.13715629892E+03  0.47000000000E+01 0. -1.
        -11    1    1    2    0    0 -0.67039593255E+02 -0.36564982364E+02 -0.64843011097E+01  0.76637791982E+02  0.00000000000E+00 0. -1.
         11    1    1    2    0    0 -0.69753538690E+02  0.34384746274E+02  0.54253893899E+02  0.94822739569E+02  0.00000000000E+00 0.  1.
<mgrwt>
<rscale>  0 0.17992241E+03</rscale>
<asrwt>0</asrwt>
<pdfrwt beam="1">  1        2 0.31297871E-01 0.18531362E+03</pdfrwt>
<pdfrwt beam="2">  1       -2 0.23592682E-01 0.18531362E+03</pdfrwt>
<totfact> 0.25888713E+03</totfact>
</mgrwt>
</event>
<event>
 7    1  0.8712071E-006  0.1195289E+03  0.7546771E-02  0.1255846E+00
          1   -1    0    0  501    0  0.00000000000E+00  0.00000000000E+00  0.89713554020E+02  0.89713554020E+02  0.00000000000E+00 0. -1.
         -1   -1    0    0    0  501 -0.00000000000E+00 -0.00000000000E+00 -0.13549164737E+03  0.13549164737E+03  0.00000000000E+00 0.  1.
         23    2    1    2    0    0 -0.11446491207E+02  0.18547024057E+02 -0.53155498364E+02  0.13081539024E+03  0.11752508267E+03 0.  0.
          5    1    3    3  502    0  0.49833239989E+02  0.13487992083E+02 -0.44931607276E+02  0.68601873667E+02  0.47000000000E+01 0. -1.
         -5    1    3    3    0  502 -0.61279731196E+02  0.50590319732E+01 -0.82238910877E+01  0.62213516575E+02  0.47000000000E+01 0.  1.
        -11    1    1    2    0    0  0.17007860595E+02 -0.30298728204E+02  0.43688794400E+02  0.55821062413E+02  0.00000000000E+00 0. -1.
         11    1    1    2    0    0 -0.55613693876E+01  0.11751704147E+02 -0.36311389387E+02  0.38568748736E+02  0.00000000000E+00 0.  1.
<mgrwt>
<rscale>  0 0.11259091E+03</rscale>
<asrwt>0</asrwt>
<pdfrwt beam="1">  1        1 0.13802085E-01 0.11952891E+03</pdfrwt>
<pdfrwt beam="2">  1       -1 0.20844869E-01 0.11952891E+03</pdfrwt>
<totfact> 0.73437172E+03</totfact>
</mgrwt>
</event>
<event>
 7    1  0.8712071E-006  0.1829181E+03  0.7546771E-02  0.1170259E+00
          3   -1    0    0  501    0  0.00000000000E+00  0.00000000000E+00  0.57686040971E+03  0.57686040971E+03  0.00000000000E+00 0. -1.
         -3   -1    0    0    0  501 -0.00000000000E+00 -0.00000000000E+00 -0.81452270767E+02  0.81452270767E+02  0.00000000000E+00 0.  1.
         23    2    1    2    0    0  0.94272287522E+02  0.94594428474E+02  0.58112957372E+02  0.19192745309E+03  0.12499464525E+03 0.  0.
          5    1    3    3  502    0  0.11682441336E+03  0.47554280964E+02  0.21540459966E+02  0.12804465866E+03  0.47000000000E+01 0.  1.
         -5    1    3    3    0  502 -0.22552125840E+02  0.47040147509E+02  0.36572497407E+02  0.63882794430E+02  0.47000000000E+01 0.  1.
        -11    1    1    2    0    0 -0.64983415233E+02 -0.41275863024E+02  0.35938732624E+03  0.36754019017E+03  0.00000000000E+00 0. -1.
         11    1    1    2    0    0 -0.29288872288E+02 -0.53318565449E+02  0.77907855323E+02  0.98845037218E+02  0.00000000000E+00 0.  1.
<mgrwt>
<rscale>  0 0.17748531E+03</rscale>
<asrwt>0</asrwt>
<pdfrwt beam="1">  1        3 0.88747753E-01 0.18291810E+03</pdfrwt>
<pdfrwt beam="2">  1       -3 0.12531119E-01 0.18291810E+03</pdfrwt>
<totfact> 0.14509985E+02</totfact>
</mgrwt>
</event>
<event>
 7    1  0.8712071E-006  0.1574598E+03  0.7546771E-02  0.1199320E+00
         -4   -1    0    0    0  501 -0.00000000000E+00  0.00000000000E+00  0.50878242716E+03  0.50878242716E+03  0.00000000000E+00 0. -1.
          4   -1    0    0  501    0  0.00000000000E+00 -0.00000000000E+00 -0.42514338597E+02  0.42514338597E+02  0.00000000000E+00 0.  1.
         23    2    1    2    0    0 -0.82728274962E+02 -0.48230582633E+02  0.29587535150E+03  0.33516534035E+03  0.12499370050E+03 0.  0.
          5    1    3    3  502    0 -0.68035105875E+02  0.20995855963E+02  0.76515545737E+02  0.10462466410E+03  0.47000000000E+01 0.  1.
         -5    1    3    3    0  502 -0.14693169086E+02 -0.69226438596E+02  0.21935980577E+03  0.23054067625E+03  0.47000000000E+01 0.  1.
        -11    1    1    2    0    0  0.35374805818E+02 -0.91965756492E+01  0.12198237961E+03  0.12734070373E+03  0.00000000000E+00 0. -1.
         11    1    1    2    0    0  0.47353469143E+02  0.57427158282E+02  0.48410357449E+02  0.88790721681E+02  0.00000000000E+00 0.  1.
<mgrwt>
<rscale>  0 0.15094189E+03</rscale>
<asrwt>0</asrwt>
<pdfrwt beam="2">  1        4 0.65406678E-02 0.15745978E+03</pdfrwt>
<pdfrwt beam="1">  1       -4 0.78274215E-01 0.15745978E+03</pdfrwt>
<totfact> 0.39309907E+02</totfact>
</mgrwt>
</event>
<event>
 7    1  0.8712071E-006  0.1411619E+03  0.7546771E-02  0.1222712E+00
         -3   -1    0    0    0  501 -0.00000000000E+00  0.00000000000E+00  0.45747180854E+02  0.45747180854E+02  0.00000000000E+00 0.  1.
          3   -1    0    0  501    0  0.00000000000E+00 -0.00000000000E+00 -0.35339435786E+03  0.35339435786E+03  0.00000000000E+00 0. -1.
         23    2    1    2    0    0  0.58774072582E+02 -0.29213142502E+02 -0.15327042932E+03  0.20837109374E+03  0.12497555320E+03 0.  0.
          5    1    3    3  502    0  0.36746375096E+02 -0.78231938585E+02 -0.84496436069E+02  0.12096392026E+03  0.47000000000E+01 0. -1.
         -5    1    3    3    0  502  0.22027697486E+02  0.49018796083E+02 -0.68773993255E+02  0.87407173471E+02  0.47000000000E+01 0. -1.
        -11    1    1    2    0    0 -0.91435548497E+00 -0.21781161044E+02 -0.45667134781E+01  0.22273524517E+02  0.00000000000E+00 0.  1.
         11    1    1    2    0    0 -0.57859717097E+02  0.50994303546E+02 -0.14981003420E+03  0.16849692046E+03  0.00000000000E+00 0. -1.
<mgrwt>
<rscale>  0 0.13324993E+03</rscale>
<asrwt>0</asrwt>
<pdfrwt beam="2">  1        3 0.54368363E-01 0.14116192E+03</pdfrwt>
<pdfrwt beam="1">  1       -3 0.70380278E-02 0.14116192E+03</pdfrwt>
<totfact> 0.10293024E+03</totfact>
</mgrwt>
</event>
<event>
 7    1  0.8712071E-006  0.1428454E+03  0.7546771E-02  0.1219894E+00
          4   -1    0    0  501    0  0.00000000000E+00  0.00000000000E+00  0.94318036015E+02  0.94318036015E+02  0.00000000000E+00 0. -1.
         -4   -1    0    0    0  501 -0.00000000000E+00 -0.00000000000E+00 -0.20706765377E+03  0.20706765377E+03  0.00000000000E+00 0.  1.
         23    2    1    2    0    0  0.60038672772E+02  0.34283131744E+02 -0.11980082289E+03  0.18643242728E+03  0.12499934970E+03 0.  0.
          5    1    3    3  502    0  0.55961743989E+02  0.75272043464E+02 -0.10842374767E+03  0.14344126455E+03  0.47000000000E+01 0. -1.
         -5    1    3    3    0  502  0.40769287833E+01 -0.40988911719E+02 -0.11377075223E+02  0.42991162730E+02  0.47000000000E+01 0. -1.
        -11    1    1    2    0    0 -0.41490106838E+02 -0.73560686209E+01 -0.39706121919E+02  0.57897468242E+02  0.00000000000E+00 0.  1.
         11    1    1    2    0    0 -0.18548565934E+02 -0.26927063123E+02  0.46757327049E+02  0.57055794267E+02  0.00000000000E+00 0. -1.
<mgrwt>
<rscale>  0 0.13523074E+03</rscale>
<asrwt>0</asrwt>
<pdfrwt beam="1">  1        4 0.14510467E-01 0.14284542E+03</pdfrwt>
<pdfrwt beam="2">  1       -4 0.31856561E-01 0.14284542E+03</pdfrwt>
<totfact> 0.63360023E+02</totfact>
</mgrwt>
</event>
<event>
 7    1  0.8712071E-006  0.1319910E+03  0.7546771E-02  0.1237605E+00
          1   -1    0    0  501    0  0.00000000000E+00  0.00000000000E+00  0.99516489614E+02  0.99516489614E+02  0.00000000000E+00 0. -1.
         -1   -1    0    0    0  501 -0.00000000000E+00 -0.00000000000E+00 -0.13707370390E+03  0.13707370390E+03  0.00000000000E+00 0.  1.
         23    2    1    2    0    0  0.11630424535E+02 -0.40855047068E+02 -0.30902185129E+02  0.13556020538E+03  0.12496888649E+03 0.  0.
          5    1    3    3  502    0 -0.56406169947E+01  0.17356100403E+02  0.38718886336E+02  0.43061501836E+02  0.47000000000E+01 0. -1.
         -5    1    3    3    0  502  0.17271041529E+02 -0.58211147471E+02 -0.69621071465E+02  0.92498703544E+02  0.47000000000E+01 0. -1.
        -11    1    1    2    0    0  0.21389846086E+02  0.51852271761E+02  0.17394004374E+02  0.58725931159E+02  0.00000000000E+00 0.  1.
         11    1    1    2    0    0 -0.33020270621E+02 -0.10997224692E+02 -0.24049033533E+02  0.42304056977E+02  0.00000000000E+00 0. -1.
<mgrwt>
<rscale>  0 0.12339136E+03</rscale>
<asrwt>0</asrwt>
<pdfrwt beam="1">  1        1 0.15310229E-01 0.13199100E+03</pdfrwt>
<pdfrwt beam="2">  1       -1 0.21088262E-01 0.13199100E+03</pdfrwt>
<totfact> 0.63497706E+03</totfact>
</mgrwt>
</event>
<event>
 7    1  0.8712071E-006  0.1265629E+03  0.7546771E-02  0.1246585E+00
          2   -1    0    0  501    0  0.00000000000E+00  0.00000000000E+00  0.50914032284E+02  0.50914032284E+02  0.00000000000E+00 0. -1.
         -2   -1    0    0    0  501 -0.00000000000E+00 -0.00000000000E+00 -0.41020475652E+03  0.41020475652E+03  0.00000000000E+00 0.  1.
         23    2    1    2    0    0  0.18761403686E+02 -0.64839665137E+01 -0.34140987751E+03  0.36411382359E+03  0.12499655986E+03 0.  0.
          5    1    3    3  502    0  0.55433956555E+02 -0.40552809316E+02 -0.13343102879E+03  0.15014454145E+03  0.47000000000E+01 0. -1.
         -5    1    3    3    0  502 -0.36672552869E+02  0.34068842803E+02 -0.20797884873E+03  0.21396928214E+03  0.47000000000E+01 0. -1.
        -11    1    1    2    0    0 -0.24295740046E+02 -0.24470224434E+02 -0.44157396630E+02  0.56026337961E+02  0.00000000000E+00 0.  1.
         11    1    1    2    0    0  0.55343363595E+01  0.30954190948E+02  0.26276549909E+02  0.40978627250E+02  0.00000000000E+00 0. -1.
<mgrwt>
<rscale>  0 0.11791031E+03</rscale>
<asrwt>0</asrwt>
<pdfrwt beam="1">  1        2 0.78329281E-02 0.12656292E+03</pdfrwt>
<pdfrwt beam="2">  1       -2 0.63108424E-01 0.12656292E+03</pdfrwt>
<totfact> 0.19964455E+03</totfact>
</mgrwt>
</event>
<event>
 7    1  0.8712071E-006  0.1510254E+03  0.7546771E-02  0.1210454E+00
         -4   -1    0    0    0  501 -0.00000000000E+00  0.00000000000E+00  0.67945744057E+02  0.67945744057E+02  0.00000000000E+00 0.  1.
          4   -1    0    0  501    0  0.00000000000E+00 -0.00000000000E+00 -0.28049832245E+03  0.28049832245E+03  0.00000000000E+00 0. -1.
         23    2    1    2    0    0  0.63687230573E+02 -0.55953824450E+02 -0.81099996262E+02  0.17142308021E+03  0.12498707624E+03 0.  0.
          5    1    3    3  502    0  0.32871075275E+02 -0.92752737097E+02 -0.72775653599E+02  0.12248250318E+03  0.47000000000E+01 0. -1.
         -5    1    3    3    0  502  0.30816155298E+02  0.36798912647E+02 -0.83243426627E+01  0.48940577031E+02  0.47000000000E+01 0. -1.
        -11    1    1    2    0    0 -0.81887236899E+02  0.57561958387E+02 -0.10733622736E+03  0.14676499693E+03  0.00000000000E+00 0.  1.
         11    1    1    2    0    0  0.18200006326E+02 -0.16081339367E+01 -0.24116354772E+02  0.30255989366E+02  0.00000000000E+00 0. -1.
<mgrwt>
<rscale>  0 0.14215844E+03</rscale>
<asrwt>0</asrwt>
<pdfrwt beam="2">  1        4 0.43153588E-01 0.15102537E+03</pdfrwt>
<pdfrwt beam="1">  1       -4 0.10453191E-01 0.15102537E+03</pdfrwt>
<totfact> 0.62250783E+02</totfact>
</mgrwt>
</event>
<event>
 7    1  0.8712071E-006  0.1395115E+03  0.7546771E-02  0.1227161E+00
          1   -1    0    0  501    0  0.00000000000E+00  0.00000000000E+00  0.52893599672E+03  0.52893599672E+03  0.00000000000E+00 0. -1.
         -1   -1    0    0    0  501 -0.00000000000E+00 -0.00000000000E+00 -0.37958256868E+02  0.37958256868E+02  0.00000000000E+00 0.  1.
         23    2    1    2    0    0  0.57899626647E+02 -0.22010133603E+02  0.12988766948E+03  0.19061552659E+03  0.12500663802E+03 0.  0.
          5    1    3    3  502    0  0.58061174550E+02  0.21186803037E+02  0.13332324445E+03  0.14702774610E+03  0.47000000000E+01 0. -1.
         -5    1    3    3    0  502 -0.16154790362E+00 -0.43196936640E+02 -0.34355749684E+01  0.43587780492E+02  0.47000000000E+01 0. -1.
        -11    1    1    2    0    0 -0.77373638447E+02  0.59936874942E+01  0.30608450265E+03  0.31576942059E+03  0.00000000000E+00 0.  1.
         11    1    1    2    0    0  0.19474011801E+02  0.16016446109E+02  0.55005567721E+02  0.60509306407E+02  0.00000000000E+00 0. -1.
<mgrwt>
<rscale>  0 0.13019915E+03</rscale>
<asrwt>0</asrwt>
<pdfrwt beam="1">  1        1 0.81374763E-01 0.13951155E+03</pdfrwt>
<pdfrwt beam="2">  1       -1 0.58397322E-02 0.13951155E+03</pdfrwt>
<totfact> 0.56189032E+03</totfact>
</mgrwt>
</event>
<event>
 7    1  0.8712071E-006  0.1695333E+03  0.7546771E-02  0.1184309E+00
          2   -1    0    0  501    0  0.00000000000E+00  0.00000000000E+00  0.33667236421E+03  0.33667236421E+03  0.00000000000E+00 0.  1.
         -2   -1    0    0    0  501 -0.00000000000E+00 -0.00000000000E+00 -0.75400247294E+02  0.75400247294E+02  0.00000000000E+00 0. -1.
         23    2    1    2    0    0 -0.51685355847E+02 -0.10214121322E+03  0.15427803474E+03  0.22922312465E+03  0.12504929198E+03 0.  0.
          5    1    3    3  502    0  0.37499392472E+02 -0.30291181205E+02  0.19287471499E+02  0.52133066775E+02  0.47000000000E+01 0. -1.
         -5    1    3    3    0  502 -0.89184748319E+02 -0.71850032012E+02  0.13499056324E+03  0.17709005787E+03  0.47000000000E+01 0. -1.
        -11    1    1    2    0    0  0.37838260984E+02  0.84145156873E+02  0.12394473889E+03  0.15451355836E+03  0.00000000000E+00 0.  1.
         11    1    1    2    0    0  0.13847094863E+02  0.17996056344E+02 -0.16950656719E+02  0.28335928488E+02  0.00000000000E+00 0. -1.
<mgrwt>
<rscale>  0 0.16394945E+03</rscale>
<asrwt>0</asrwt>
<pdfrwt beam="1">  1        2 0.51795748E-01 0.16953327E+03</pdfrwt>
<pdfrwt beam="2">  1       -2 0.11600038E-01 0.16953327E+03</pdfrwt>
<totfact> 0.48955310E+03</totfact>
</mgrwt>
</event>
<event>
 7    1  0.8712071E-006  0.1399785E+03  0.7546771E-02  0.1226382E+00
         -1   -1    0    0    0  501 -0.00000000000E+00  0.00000000000E+00  0.76988800850E+02  0.76988800850E+02  0.00000000000E+00 0.  1.
          1   -1    0    0  501    0  0.00000000000E+00 -0.00000000000E+00 -0.21672628355E+03  0.21672628355E+03  0.00000000000E+00 0. -1.
         23    2    1    2    0    0 -0.43203249337E+02 -0.48010110561E+02 -0.34851515755E+02  0.14425191089E+03  0.12418733501E+03 0.  0.
          5    1    3    3  502    0 -0.77982385763E+02 -0.39754983702E+01 -0.37380387438E+00  0.78225870439E+02  0.47000000000E+01 0. -1.
         -5    1    3    3    0  502  0.34779136426E+02 -0.44034612191E+02 -0.34477711880E+02  0.66026040452E+02  0.47000000000E+01 0.  1.
        -11    1    1    2    0    0  0.60961583125E+02  0.59554567263E+02 -0.81702110180E+02  0.11806056034E+03  0.00000000000E+00 0.  1.
         11    1    1    2    0    0 -0.17758333788E+02 -0.11544456702E+02 -0.23183856765E+02  0.31402613171E+02  0.00000000000E+00 0. -1.
<mgrwt>
<rscale>  0 0.13072659E+03</rscale>
<asrwt>0</asrwt>
<pdfrwt beam="2">  1        1 0.33342505E-01 0.13997852E+03</pdfrwt>
<pdfrwt beam="1">  1       -1 0.11844431E-01 0.13997852E+03</pdfrwt>
<totfact> 0.59147192E+03</totfact>
</mgrwt>
</event>
<event>
 7    1  0.8712071E-006  0.1364466E+03  0.7546771E-02  0.1230480E+00
         -2   -1    0    0    0  501 -0.00000000000E+00  0.00000000000E+00  0.15726101957E+03  0.15726101957E+03  0.00000000000E+00 0.  1.
          2   -1    0    0  501    0  0.00000000000E+00 -0.00000000000E+00 -0.17864200797E+03  0.17864200797E+03  0.00000000000E+00 0. -1.
         23    2    1    2    0    0  0.47989018031E+02  0.26246403549E+02  0.10429565028E+03  0.17174184891E+03  0.12500344175E+03 0.  0.
          5    1    3    3  502    0 -0.23389317962E+02 -0.70042158871E+00  0.91095701660E+02  0.94170418105E+02  0.47000000000E+01 0.  1.
         -5    1    3    3    0  502  0.71378335993E+02  0.26946825137E+02  0.13199948622E+02  0.77571430809E+02  0.47000000000E+01 0.  1.
        -11    1    1    2    0    0  0.12280941459E+02 -0.26288393388E+02 -0.52387101881E+01  0.29484661003E+02  0.00000000000E+00 0.  1.
         11    1    1    2    0    0 -0.60269959491E+02  0.41989839162E-01 -0.12043792849E+03  0.13467651762E+03  0.00000000000E+00 0. -1.
<mgrwt>
<rscale>  0 0.12798299E+03</rscale>
<asrwt>0</asrwt>
<pdfrwt beam="2">  1        2 0.27483386E-01 0.13644662E+03</pdfrwt>
<pdfrwt beam="1">  1       -2 0.24194003E-01 0.13644662E+03</pdfrwt>
<totfact> 0.28168753E+03</totfact>
</mgrwt>
</event>
<event>
 7    1  0.8712071E-006  0.1868500E+03  0.7546771E-02  0.1166155E+00
          1   -1    0    0  501    0  0.00000000000E+00  0.00000000000E+00  0.16159887615E+03  0.16159887615E+03  0.00000000000E+00 0. -1.
         -1   -1    0    0    0  501 -0.00000000000E+00 -0.00000000000E+00 -0.29831644864E+03  0.29831644864E+03  0.00000000000E+00 0.  1.
         23    2    1    2    0    0 -0.10798225241E+03  0.87333070553E+02 -0.20677496552E+03  0.27869127399E+03  0.12500283110E+03 0.  0.
          5    1    3    3  502    0 -0.87608277207E+02  0.90969791409E+01 -0.16610251764E+03  0.18806940642E+03  0.47000000000E+01 0.  1.
         -5    1    3    3    0  502 -0.20373975199E+02  0.78236091412E+02 -0.40672447881E+02  0.90621867568E+02  0.47000000000E+01 0.  1.
        -11    1    1    2    0    0  0.38217003405E+02 -0.66922023895E+01  0.63470790560E+02  0.74389960185E+02  0.00000000000E+00 0. -1.
         11    1    1    2    0    0  0.69765249002E+02 -0.80640868163E+02  0.65866024586E+01  0.10683409062E+03  0.00000000000E+00 0.  1.
<mgrwt>
<rscale>  0 0.18171333E+03</rscale>
<asrwt>0</asrwt>
<pdfrwt beam="1">  1        1 0.24861366E-01 0.18685005E+03</pdfrwt>
<pdfrwt beam="2">  1       -1 0.45894838E-01 0.18685005E+03</pdfrwt>
<totfact> 0.92430231E+02</totfact>
</mgrwt>
</event>
<event>
 7    1  0.8712071E-006  0.1488132E+03  0.7546771E-02  0.1211898E+00
         -2   -1    0    0    0  501 -0.00000000000E+00  0.00000000000E+00  0.17236605199E+02  0.17236605199E+02  0.00000000000E+00 0.  1.
          2   -1    0    0  501    0  0.00000000000E+00 -0.00000000000E+00 -0.10495883916E+04  0.10495883916E+04  0.00000000000E+00 0. -1.
         23    2    1    2    0    0  0.44425002937E+02  0.67448335886E+02 -0.57833548580E+03  0.59717443471E+03  0.12499004933E+03 0.  0.
          5    1    3    3  502    0  0.27524883276E+02  0.46719979512E+02 -0.56371029902E+03  0.56633185228E+03  0.47000000000E+01 0. -1.
         -5    1    3    3    0  502  0.16900119661E+02  0.20728356375E+02 -0.14625186784E+02  0.30842582431E+02  0.47000000000E+01 0. -1.
        -11    1    1    2    0    0 -0.32686791038E+02  0.13163069096E+02 -0.90491335491E+02  0.97110115309E+02  0.00000000000E+00 0.  1.
         11    1    1    2    0    0 -0.11738211900E+02 -0.80611404982E+02 -0.36352496510E+03  0.37254044678E+03  0.00000000000E+00 0. -1.
<mgrwt>
<rscale>  0 0.14106855E+03</rscale>
<asrwt>0</asrwt>
<pdfrwt beam="2">  1        2 0.16147514E+00 0.14881321E+03</pdfrwt>
<pdfrwt beam="1">  1       -2 0.26517854E-02 0.14881321E+03</pdfrwt>
<totfact> 0.12064095E+04</totfact>
</mgrwt>
</event>
<event>
 7    1  0.8712071E-006  0.1403088E+03  0.7546771E-02  0.1224100E+00
          1   -1    0    0  501    0  0.00000000000E+00  0.00000000000E+00  0.14561239361E+03  0.14561239361E+03  0.00000000000E+00 0. -1.
         -1   -1    0    0    0  501 -0.00000000000E+00 -0.00000000000E+00 -0.11230964707E+03  0.11230964707E+03  0.00000000000E+00 0.  1.
         23    2    1    2    0    0  0.63038132984E+02 -0.93494181607E+01  0.42675024792E+02  0.14665512819E+03  0.12500140421E+03 0.  0.
          5    1    3    3  502    0  0.51665993291E+02  0.26591350736E+02 -0.29317824675E+02  0.65254115889E+02  0.47000000000E+01 0.  1.
         -5    1    3    3    0  502  0.11372139693E+02 -0.35940768897E+02  0.71992849467E+02  0.81401012306E+02  0.47000000000E+01 0.  1.
        -11    1    1    2    0    0 -0.55010236703E+02  0.43351935995E+02 -0.23068918411E+02  0.73740704453E+02  0.00000000000E+00 0.  1.
         11    1    1    2    0    0 -0.80278962818E+01 -0.34002517834E+02  0.13696640159E+02  0.37526208034E+02  0.00000000000E+00 0. -1.
<mgrwt>
<rscale>  0 0.13228748E+03</rscale>
<asrwt>0</asrwt>
<pdfrwt beam="1">  1        1 0.22401907E-01 0.14030883E+03</pdfrwt>
<pdfrwt beam="2">  1       -1 0.17278407E-01 0.14030883E+03</pdfrwt>
<totfact> 0.53912809E+03</totfact>
</mgrwt>
</event>
<event>
 7    1  0.8712071E-006  0.2099381E+03  0.7546771E-02  0.1145687E+00
         -1   -1    0    0    0  501 -0.00000000000E+00  0.00000000000E+00  0.87562658112E+03  0.87562658112E+03  0.00000000000E+00 0.  1.
          1   -1    0    0  501    0  0.00000000000E+00 -0.00000000000E+00 -0.45864250039E+02  0.45864250039E+02  0.00000000000E+00 0. -1.
         23    2    1    2    0    0 -0.14898569688E+03 -0.79065734705E+02  0.41347909603E+03  0.46372293212E+03  0.12500346650E+03 0.  0.
          5    1    3    3  502    0 -0.15859745564E+03 -0.85939139868E+02  0.30409617005E+03  0.35360325131E+03  0.47000000000E+01 0. -1.
         -5    1    3    3    0  502  0.96117587615E+01  0.68734051626E+01  0.10938292598E+03  0.11011968081E+03  0.47000000000E+01 0. -1.
        -11    1    1    2    0    0  0.94150894856E+02  0.78047770397E+02  0.19818890246E+03  0.23288341831E+03  0.00000000000E+00 0. -1.
         11    1    1    2    0    0  0.54834802027E+02  0.10179643079E+01  0.21809433259E+03  0.22488448073E+03  0.00000000000E+00 0.  1.
<mgrwt>
<rscale>  0 0.20487853E+03</rscale>
<asrwt>0</asrwt>
<pdfrwt beam="2">  1        1 0.70560391E-02 0.20993807E+03</pdfrwt>
<pdfrwt beam="1">  1       -1 0.13471177E+00 0.20993807E+03</pdfrwt>
<totfact> 0.51432997E+02</totfact>
</mgrwt>
</event>
<event>
 7    1  0.8712071E-006  0.1285751E+03  0.7546771E-02  0.1245140E+00
         -2   -1    0    0    0  501 -0.00000000000E+00  0.00000000000E+00  0.33798808456E+02  0.33798808456E+02  0.00000000000E+00 0. -1.
          2   -1    0    0  501    0  0.00000000000E+00 -0.00000000000E+00 -0.38925748997E+03  0.38925748997E+03  0.00000000000E+00 0.  1.
         23    2    1    2    0    0 -0.67255156998E+01  0.29346438473E+02 -0.15195869631E+03  0.19905526828E+03  0.12500043373E+03 0.  0.
          5    1    3    3  502    0 -0.61480230895E+02 -0.59611081041E+01 -0.88157885219E+02  0.10774625899E+03  0.47000000000E+01 0.  1.
         -5    1    3    3    0  502  0.54754715195E+02  0.35307546577E+02 -0.63800811096E+02  0.91309009292E+02  0.47000000000E+01 0.  1.
        -11    1    1    2    0    0 -0.33889287880E+02 -0.33595283260E+02 -0.72595511171E+02  0.86874824504E+02  0.00000000000E+00 0.  1.
         11    1    1    2    0    0  0.40614803580E+02  0.42488447863E+01 -0.13090447403E+03  0.13712620564E+03  0.00000000000E+00 0. -1.
<mgrwt>
<rscale>  0 0.11877001E+03</rscale>
<asrwt>0</asrwt>
<pdfrwt beam="2">  1        2 0.59885764E-01 0.12857509E+03</pdfrwt>
<pdfrwt beam="1">  1       -2 0.51998170E-02 0.12857509E+03</pdfrwt>
<totfact> 0.14241398E+04</totfact>
</mgrwt>
</event>
<event>
 7    1  0.8712071E-006  0.1254395E+03  0.7546771E-02  0.1250389E+00
         -2   -1    0    0    0  501 -0.00000000000E+00  0.00000000000E+00  0.36492216395E+02  0.36492216395E+02  0.00000000000E+00 0.  1.
          2   -1    0    0  501    0  0.00000000000E+00 -0.00000000000E+00 -0.33157015487E+03  0.33157015487E+03  0.00000000000E+00 0. -1.
         23    2    1    2    0    0  0.49731690167E+01  0.92726532456E+01 -0.13670752733E+03  0.18553707913E+03  0.12499738074E+03 0.  0.
          5    1    3    3  502    0 -0.21230502642E+02 -0.40793401641E+02 -0.11650647926E+03  0.12534227367E+03  0.47000000000E+01 0. -1.
         -5    1    3    3    0  502  0.26203671659E+02  0.50066054886E+02 -0.20201048076E+02  0.60194805454E+02  0.47000000000E+01 0. -1.
        -11    1    1    2    0    0  0.33034521481E+02 -0.95269231101E+01 -0.13164730737E+03  0.13606268927E+03  0.00000000000E+00 0. -1.
         11    1    1    2    0    0 -0.38007690498E+02  0.25426986449E+00 -0.26723103767E+02  0.46462602866E+02  0.00000000000E+00 0.  1.
<mgrwt>
<rscale>  0 0.11568551E+03</rscale>
<asrwt>0</asrwt>
<pdfrwt beam="2">  1        2 0.51010795E-01 0.12543947E+03</pdfrwt>
<pdfrwt beam="1">  1       -2 0.56141870E-02 0.12543947E+03</pdfrwt>
<totfact> 0.15011777E+04</totfact>
</mgrwt>
</event>
<event>
 7    1  0.8712071E-006  0.1431786E+03  0.7546771E-02  0.1213018E+00
         -1   -1    0    0    0  501 -0.00000000000E+00  0.00000000000E+00  0.64344207621E+02  0.64344207621E+02  0.00000000000E+00 0.  1.
          1   -1    0    0  501    0  0.00000000000E+00 -0.00000000000E+00 -0.42800888694E+03  0.42800888694E+03  0.00000000000E+00 0. -1.
         23    2    1    2    0    0  0.68396403957E+02  0.59652600653E+02 -0.49184615381E+02  0.15139097106E+03  0.11074113458E+03 0.  0.
          5    1    3    3  502    0 -0.20358369375E+02 -0.94696235428E+01  0.90118490233E+01  0.24646305940E+02  0.47000000000E+01 0. -1.
         -5    1    3    3    0  502  0.88754773331E+02  0.69122224196E+02 -0.58196464405E+02  0.12674466512E+03  0.47000000000E+01 0.  1.
        -11    1    1    2    0    0 -0.30124779918E+02 -0.26883556569E+00 -0.15755681881E+02  0.33997296205E+02  0.00000000000E+00 0.  1.
         11    1    1    2    0    0 -0.38271624038E+02 -0.59383765088E+02 -0.29872438205E+03  0.30696482729E+03  0.00000000000E+00 0. -1.
<mgrwt>
<rscale>  0 0.14023107E+03</rscale>
<asrwt>0</asrwt>
<pdfrwt beam="2">  1        1 0.65847520E-01 0.14317856E+03</pdfrwt>
<pdfrwt beam="1">  1       -1 0.98991090E-02 0.14317856E+03</pdfrwt>
<totfact> 0.33407495E+03</totfact>
</mgrwt>
</event>
<event>
 7    1  0.8712071E-006  0.1339551E+03  0.7546771E-02  0.1234301E+00
         -2   -1    0    0    0  501 -0.00000000000E+00  0.00000000000E+00  0.19707282523E+02  0.19707282523E+02  0.00000000000E+00 0.  1.
          2   -1    0    0  501    0  0.00000000000E+00 -0.00000000000E+00 -0.73181132118E+03  0.73181132118E+03  0.00000000000E+00 0. -1.
         23    2    1    2    0    0  0.25253313667E+02 -0.41001520122E+02 -0.34192558308E+03  0.36722889738E+03  0.12500041681E+03 0.  0.
          5    1    3    3  502    0  0.54958000587E+02 -0.71903410587E+02 -0.22185588176E+03  0.23965100574E+03  0.47000000000E+01 0. -1.
         -5    1    3    3    0  502 -0.29704686921E+02  0.30901890464E+02 -0.12006970132E+03  0.12757789164E+03  0.47000000000E+01 0. -1.
        -11    1    1    2    0    0  0.22262891697E+01 -0.27819632964E+02 -0.77374425355E+02  0.82253814749E+02  0.00000000000E+00 0.  1.
         11    1    1    2    0    0 -0.27479602836E+02  0.68821153086E+02 -0.29280403022E+03  0.30203589157E+03  0.00000000000E+00 0. -1.
<mgrwt>
<rscale>  0 0.12549319E+03</rscale>
<asrwt>0</asrwt>
<pdfrwt beam="2">  1        2 0.11258636E+00 0.13395506E+03</pdfrwt>
<pdfrwt beam="1">  1       -2 0.30318895E-02 0.13395506E+03</pdfrwt>
<totfact> 0.15723811E+04</totfact>
</mgrwt>
</event>
<event>
 6    1  0.8712071E-006  0.2261007E+03  0.7546771E-02  0.1155020E+00
         -2   -1    0    0    0  501 -0.00000000000E+00  0.00000000000E+00  0.43278697902E+03  0.43278697902E+03  0.00000000000E+00 0.  1.
          2   -1    0    0  501    0  0.00000000000E+00 -0.00000000000E+00 -0.14295786888E+03  0.14295786888E+03  0.00000000000E+00 0. -1.
          5    1    1    2  502    0 -0.62283991025E+02  0.46172989901E+02  0.46100400565E+02  0.90324844127E+02  0.47000000000E+01 0. -1.
         -5    1    1    2    0  502  0.15861449060E+02 -0.11332127175E+03  0.32100924979E+03  0.34082594480E+03  0.47000000000E+01 0.  1.
        -11    1    1    2    0    0  0.50579369907E+02  0.87255146806E+02 -0.57555194099E+02  0.11612206367E+03  0.00000000000E+00 0. -1.
         11    1    1    2    0    0 -0.41568279431E+01 -0.20106864956E+02 -0.19725346119E+02  0.28471995301E+02  0.00000000000E+00 0.  1.
<mgrwt>
<rscale>  0 0.19386643E+03</rscale>
<asrwt>0</asrwt>
<pdfrwt beam="2">  1        2 0.21993519E-01 0.22610066E+03</pdfrwt>
<pdfrwt beam="1">  1       -2 0.66582611E-01 0.22610066E+03</pdfrwt>
<totfact> 0.52883514E+02</totfact>
</mgrwt>
</event>
<event>
 7    1  0.8712071E-006  0.1376039E+03  0.7546771E-02  0.1228158E+00
         -4   -1    0    0    0  501 -0.00000000000E+00  0.00000000000E+00  0.53839945661E+03  0.53839945661E+03  0.00000000000E+00 0.  1.
          4   -1    0    0  501    0  0.00000000000E+00 -0.00000000000E+00 -0.30527835598E+02  0.30527835598E+02  0.00000000000E+00 0. -1.
         23    2    1    2    0    0  0.32518148103E+02 -0.47457076334E+02  0.36301838013E+03  0.38822311463E+03  0.12500095349E+03 0.  0.
          5    1    3    3  502    0 -0.27286888430E+02  0.14830912609E+02  0.21102821756E+03  0.21335306151E+03  0.47000000000E+01 0.  1.
         -5    1    3    3    0  502  0.59805036533E+02 -0.62287988943E+02  0.15199016257E+03  0.17487005312E+03  0.47000000000E+01 0.  1.
        -11    1    1    2    0    0  0.43101356962E+01  0.27864029617E+02  0.13490311020E+03  0.13781810678E+03  0.00000000000E+00 0.  1.
         11    1    1    2    0    0 -0.36828283799E+02  0.19593046717E+02  0.99501306824E+01  0.42886070790E+02  0.00000000000E+00 0. -1.
<mgrwt>
<rscale>  0 0.12952815E+03</rscale>
<asrwt>0</asrwt>
<pdfrwt beam="2">  1        4 0.46965905E-02 0.13760393E+03</pdfrwt>
<pdfrwt beam="1">  1       -4 0.82830679E-01 0.13760393E+03</pdfrwt>
<totfact> 0.57824239E+02</totfact>
</mgrwt>
</event>
<event>
 6    1  0.8712071E-006  0.1564198E+03  0.7546771E-02  0.1215782E+00
          2   -1    0    0  501    0  0.00000000000E+00  0.00000000000E+00  0.29716559634E+03  0.29716559634E+03  0.00000000000E+00 0. -1.
         -2   -1    0    0    0  501 -0.00000000000E+00 -0.00000000000E+00 -0.54583733925E+02  0.54583733925E+02  0.00000000000E+00 0.  1.
          5    1    1    2  502    0 -0.56990906968E+01  0.41764976694E+02  0.14680572662E+03  0.15280969957E+03  0.47000000000E+01 0. -1.
         -5    1    1    2    0  502 -0.23164810005E+02 -0.33180521427E+02 -0.22904832304E+02  0.46736246829E+02  0.47000000000E+01 0.  1.
        -11    1    1    2    0    0  0.38386210882E+02 -0.42209407383E+02  0.91919200925E+02  0.10818629653E+03  0.00000000000E+00 0.  1.
         11    1    1    2    0    0 -0.95223101804E+01  0.33624952117E+02  0.26761767176E+02  0.44017087346E+02  0.00000000000E+00 0. -1.
<mgrwt>
<rscale>  0 0.13819225E+03</rscale>
<asrwt>0</asrwt>
<pdfrwt beam="1">  1        2 0.45717783E-01 0.15641980E+03</pdfrwt>
<pdfrwt beam="2">  1       -2 0.83974977E-02 0.15641980E+03</pdfrwt>
<totfact> 0.92630255E+03</totfact>
</mgrwt>
</event>
<event>
 7    1  0.8712071E-006  0.1899656E+03  0.7546771E-02  0.1163421E+00
          1   -1    0    0  501    0  0.00000000000E+00  0.00000000000E+00  0.26016119380E+03  0.26016119380E+03  0.00000000000E+00 0. -1.
         -1   -1    0    0    0  501 -0.00000000000E+00 -0.00000000000E+00 -0.13124270564E+03  0.13124270564E+03  0.00000000000E+00 0.  1.
         23    2    1    2    0    0 -0.78090247291E+02  0.11985140539E+03  0.22378508505E+02  0.19127919997E+03  0.12499795439E+03 0.  0.
          5    1    3    3  502    0  0.50331984845E+01  0.83339556658E+02  0.48525755808E+02  0.96683265189E+02  0.47000000000E+01 0.  1.
         -5    1    3    3    0  502 -0.83123445776E+02  0.36511848729E+02 -0.26147247303E+02  0.94595934779E+02  0.47000000000E+01 0.  1.
        -11    1    1    2    0    0  0.66389626728E+02 -0.30965806876E+02  0.20990038900E+02  0.76203972768E+02  0.00000000000E+00 0. -1.
         11    1    1    2    0    0  0.11700620563E+02 -0.88885598510E+02  0.85549940759E+02  0.12392072671E+03  0.00000000000E+00 0.  1.
<mgrwt>
<rscale>  0 0.18460346E+03</rscale>
<asrwt>0</asrwt>
<pdfrwt beam="1">  1        1 0.40024799E-01 0.18996561E+03</pdfrwt>
<pdfrwt beam="2">  1       -1 0.20191186E-01 0.18996561E+03</pdfrwt>
<totfact> 0.20585932E+03</totfact>
</mgrwt>
</event>
<event>
 7    1  0.8712071E-006  0.1454946E+03  0.7546771E-02  0.1211692E+00
          1   -1    0    0  501    0  0.00000000000E+00  0.00000000000E+00  0.20195964345E+03  0.20195964345E+03  0.00000000000E+00 0. -1.
         -1   -1    0    0    0  501 -0.00000000000E+00 -0.00000000000E+00 -0.10997901322E+03  0.10997901322E+03  0.00000000000E+00 0.  1.
         23    2    1    2    0    0 -0.50955236967E+02  0.54290470982E+02 -0.12205186423E+02  0.14600562823E+03  0.12499914194E+03 0.  0.
          5    1    3    3  502    0 -0.52621595324E+02  0.56743764535E+02 -0.59908539988E+02  0.97979642128E+02  0.47000000000E+01 0.  1.
         -5    1    3    3    0  502  0.16663583578E+01 -0.24532935531E+01  0.47703353565E+02  0.48025986099E+02  0.47000000000E+01 0.  1.
        -11    1    1    2    0    0  0.41185174021E+02 -0.13569881321E+02  0.11481337539E+03  0.12272926059E+03  0.00000000000E+00 0. -1.
         11    1    1    2    0    0  0.97700629459E+01 -0.40720589660E+02 -0.10627558735E+02  0.43203767855E+02  0.00000000000E+00 0.  1.
<mgrwt>
<rscale>  0 0.14122340E+03</rscale>
<asrwt>0</asrwt>
<pdfrwt beam="1">  1        1 0.31070714E-01 0.14549459E+03</pdfrwt>
<pdfrwt beam="2">  1       -1 0.16919848E-01 0.14549459E+03</pdfrwt>
<totfact> 0.37061430E+03</totfact>
</mgrwt>
</event>
<event>
 7    1  0.8712071E-006  0.1476812E+03  0.7546771E-02  0.1212590E+00
         -3   -1    0    0    0  501 -0.00000000000E+00  0.00000000000E+00  0.87162693841E+02  0.87162693841E+02  0.00000000000E+00 0.  1.
          3   -1    0    0  501    0  0.00000000000E+00 -0.00000000000E+00 -0.20732548578E+03  0.20732548578E+03  0.00000000000E+00 0. -1.
         23    2    1    2    0    0 -0.45559646842E+02  0.64189502320E+02 -0.67610274536E+02  0.16242194425E+03  0.12495505240E+03 0.  0.
          5    1    3    3  502    0  0.20435136844E+02 -0.23975936334E+02 -0.35318747630E+02  0.47559901966E+02  0.47000000000E+01 0. -1.
         -5    1    3    3    0  502 -0.65994783686E+02  0.88165438654E+02 -0.32291526906E+02  0.11486204228E+03  0.47000000000E+01 0. -1.
        -11    1    1    2    0    0  0.20725417082E+02 -0.84593707644E+02 -0.27561939752E+02  0.91352607019E+02  0.00000000000E+00 0.  1.
         11    1    1    2    0    0  0.24834229760E+02  0.20404205324E+02 -0.24990577656E+02  0.40713628360E+02  0.00000000000E+00 0. -1.
<mgrwt>
<rscale>  0 0.14055091E+03</rscale>
<asrwt>0</asrwt>
<pdfrwt beam="2">  1        3 0.31896228E-01 0.14768121E+03</pdfrwt>
<pdfrwt beam="1">  1       -3 0.13409645E-01 0.14768121E+03</pdfrwt>
<totfact> 0.10062382E+03</totfact>
</mgrwt>
</event>
<event>
 7    1  0.8712071E-006  0.1311795E+03  0.7546771E-02  0.1238975E+00
          1   -1    0    0  501    0  0.00000000000E+00  0.00000000000E+00  0.18166185380E+03  0.18166185380E+03  0.00000000000E+00 0. -1.
         -1   -1    0    0    0  501 -0.00000000000E+00 -0.00000000000E+00 -0.74284230048E+02  0.74284230048E+02  0.00000000000E+00 0.  1.
         23    2    1    2    0    0  0.37951392961E+02  0.11825690975E+02  0.47562116626E+02  0.13953568661E+03  0.12501159028E+03 0.  0.
          5    1    3    3  502    0 -0.33660065410E+02 -0.15789154365E+02 -0.15039221424E+02  0.40380262258E+02  0.47000000000E+01 0. -1.
         -5    1    3    3    0  502  0.71611458371E+02  0.27614845340E+02  0.62601338050E+02  0.99155424354E+02  0.47000000000E+01 0. -1.
        -11    1    1    2    0    0 -0.31967305844E+02 -0.28858915717E+02 -0.10071841311E+02  0.44228810143E+02  0.00000000000E+00 0.  1.
         11    1    1    2    0    0 -0.59840871165E+01  0.17033224742E+02  0.69887348434E+02  0.72181587090E+02  0.00000000000E+00 0. -1.
<mgrwt>
<rscale>  0 0.12253362E+03</rscale>
<asrwt>0</asrwt>
<pdfrwt beam="1">  1        1 0.27947977E-01 0.13117947E+03</pdfrwt>
<pdfrwt beam="2">  1       -1 0.11428343E-01 0.13117947E+03</pdfrwt>
<totfact> 0.77487661E+03</totfact>
</mgrwt>
</event>
<event>
 7    1  0.8712071E-006  0.1356849E+03  0.7546771E-02  0.1231432E+00
         -1   -1    0    0    0  501 -0.00000000000E+00  0.00000000000E+00  0.17992501719E+03  0.17992501719E+03  0.00000000000E+00 0.  1.
          1   -1    0    0  501    0  0.00000000000E+00 -0.00000000000E+00 -0.89125423819E+02  0.89125423819E+02  0.00000000000E+00 0. -1.
         23    2    1    2    0    0  0.12830076475E+02  0.51173782076E+02  0.91639035935E+02  0.16373178205E+03  0.12500806658E+03 0.  0.
          5    1    3    3  502    0  0.52954947083E+02  0.48316061247E+00  0.82676284035E+02  0.98295054843E+02  0.47000000000E+01 0. -1.
         -5    1    3    3    0  502 -0.40124870608E+02  0.50690621464E+02  0.89627519000E+01  0.65436727205E+02  0.47000000000E+01 0. -1.
        -11    1    1    2    0    0  0.17597924415E+02  0.20407963919E+02  0.46451553915E+01  0.27345006923E+02  0.00000000000E+00 0.  1.
         11    1    1    2    0    0 -0.30428000890E+02 -0.71581745995E+02 -0.54845979535E+01  0.77973652041E+02  0.00000000000E+00 0. -1.
<mgrwt>
<rscale>  0 0.12735660E+03</rscale>
<asrwt>0</asrwt>
<pdfrwt beam="2">  1        1 0.13711604E-01 0.13568487E+03</pdfrwt>
<pdfrwt beam="1">  1       -1 0.27680772E-01 0.13568487E+03</pdfrwt>
<totfact> 0.47023421E+03</totfact>
</mgrwt>
</event>
<event>
 7    1  0.8712071E-006  0.1411001E+03  0.7546771E-02  0.1223378E+00
          4   -1    0    0  501    0  0.00000000000E+00  0.00000000000E+00  0.16582365971E+03  0.16582365971E+03  0.00000000000E+00 0. -1.
         -4   -1    0    0    0  501 -0.00000000000E+00 -0.00000000000E+00 -0.97801331166E+02  0.97801331166E+02  0.00000000000E+00 0.  1.
         23    2    1    2    0    0 -0.64483663507E+02  0.11236384901E+02  0.18248435929E+02  0.14227527464E+03  0.12499939662E+03 0.  0.
          5    1    3    3  502    0  0.33073527532E+02  0.19718375327E+02 -0.10355562233E+02  0.40149722516E+02  0.47000000000E+01 0.  1.
         -5    1    3    3    0  502 -0.97557191039E+02 -0.84819904256E+01  0.28603998162E+02  0.10212555212E+03  0.47000000000E+01 0.  1.
        -11    1    1    2    0    0  0.27679152197E+02 -0.23275549086E+01 -0.25104684476E+02  0.37440595092E+02  0.00000000000E+00 0.  1.
         11    1    1    2    0    0  0.36804511310E+02 -0.89088299928E+01  0.74878577095E+02  0.83909121151E+02  0.00000000000E+00 0. -1.
<mgrwt>
<rscale>  0 0.13278686E+03</rscale>
<asrwt>0</asrwt>
<pdfrwt beam="1">  1        4 0.25511332E-01 0.14110014E+03</pdfrwt>
<pdfrwt beam="2">  1       -4 0.15046359E-01 0.14110014E+03</pdfrwt>
<totfact> 0.90063999E+02</totfact>
</mgrwt>
</event>
<event>
 7    1  0.8712071E-006  0.1717764E+03  0.7546771E-02  0.1182638E+00
          2   -1    0    0  501    0  0.00000000000E+00  0.00000000000E+00  0.94876272963E+03  0.94876272963E+03  0.00000000000E+00 0. -1.
         -2   -1    0    0    0  501 -0.00000000000E+00 -0.00000000000E+00 -0.39173532381E+02  0.39173532381E+02  0.00000000000E+00 0.  1.
         23    2    1    2    0    0 -0.22895507427E+02 -0.11558234372E+03  0.20255564616E+03  0.26558598206E+03  0.12499456641E+03 0.  0.
          5    1    3    3  502    0  0.45878591636E+02 -0.61042150052E+02  0.13324206718E+03  0.15364415940E+03  0.47000000000E+01 0. -1.
         -5    1    3    3    0  502 -0.68774099062E+02 -0.54540193670E+02  0.69313578988E+02  0.11194182266E+03  0.47000000000E+01 0. -1.
        -11    1    1    2    0    0 -0.31534576459E+02  0.52098134358E+02  0.22395086808E+03  0.23208325323E+03  0.00000000000E+00 0.  1.
         11    1    1    2    0    0  0.54430083886E+02  0.63484209364E+02  0.48308268300E+03  0.49026702672E+03  0.00000000000E+00 0. -1.
<mgrwt>
<rscale>  0 0.16548626E+03</rscale>
<asrwt>0</asrwt>
<pdfrwt beam="1">  1        2 0.14596348E+00 0.17177638E+03</pdfrwt>
<pdfrwt beam="2">  1       -2 0.60266980E-02 0.17177638E+03</pdfrwt>
<totfact> 0.40963981E+03</totfact>
</mgrwt>
</event>
<event>
 6    1  0.8712071E-006  0.1571698E+03  0.7546771E-02  0.1208006E+00
         -1   -1    0    0    0  501 -0.00000000000E+00  0.00000000000E+00  0.81979493729E+02  0.81979493729E+02  0.00000000000E+00 0.  1.
          1   -1    0    0  501    0  0.00000000000E+00 -0.00000000000E+00 -0.21906127763E+03  0.21906127763E+03  0.00000000000E+00 0. -1.
          5    1    1    2  502    0  0.24624103051E+02  0.73634175651E+02 -0.96725677034E+02  0.12412205635E+03  0.47000000000E+01 0. -1.
         -5    1    1    2    0  502 -0.47424983026E+02 -0.11727313796E+02  0.17220703056E+02  0.52012513087E+02  0.47000000000E+01 0.  1.
        -11    1    1    2    0    0  0.49208611085E+02 -0.10316805504E+02 -0.13401186358E+02  0.52033793602E+02  0.00000000000E+00 0. -1.
         11    1    1    2    0    0 -0.26407731110E+02 -0.51590056352E+02 -0.44175623562E+02  0.72872408316E+02  0.00000000000E+00 0.  1.
<mgrwt>
<rscale>  0 0.14403075E+03</rscale>
<asrwt>0</asrwt>
<pdfrwt beam="2">  1        1 0.33701735E-01 0.15716980E+03</pdfrwt>
<pdfrwt beam="1">  1       -1 0.12612230E-01 0.15716980E+03</pdfrwt>
<totfact> 0.53331782E+03</totfact>
</mgrwt>
</event>
<event>
 6    1  0.8712071E-006  0.1804319E+03  0.7546771E-02  0.1182732E+00
          2   -1    0    0  501    0  0.00000000000E+00  0.00000000000E+00  0.51880110555E+03  0.51880110555E+03  0.00000000000E+00 0. -1.
         -2   -1    0    0    0  501 -0.00000000000E+00 -0.00000000000E+00 -0.14958875717E+03  0.14958875717E+03  0.00000000000E+00 0.  1.
          5    1    1    2  502    0 -0.13404874468E+03  0.12313703879E+00 -0.56179094323E+02  0.14542098113E+03  0.47000000000E+01 0. -1.
         -5    1    1    2    0  502  0.44945046902E+02 -0.82131030654E+01 -0.26795814720E+02  0.53175351334E+02  0.47000000000E+01 0.  1.
        -11    1    1    2    0    0  0.18053478948E+02 -0.38327312685E+02  0.16228483318E+03  0.16772381489E+03  0.00000000000E+00 0. -1.
         11    1    1    2    0    0  0.71050218834E+02  0.46417278712E+02  0.28990242424E+03  0.30206971536E+03  0.00000000000E+00 0.  1.
<mgrwt>
<rscale>  0 0.16539929E+03</rscale>
<asrwt>0</asrwt>
<pdfrwt beam="1">  1        2 0.79815554E-01 0.18043189E+03</pdfrwt>
<pdfrwt beam="2">  1       -2 0.23013655E-01 0.18043189E+03</pdfrwt>
<totfact> 0.98187096E+02</totfact>
</mgrwt>
</event>
<event>
 7    1  0.8712071E-006  0.1114109E+03  0.7546771E-02  0.1267571E+00
          1   -1    0    0  501    0  0.00000000000E+00  0.00000000000E+00  0.56737560597E+03  0.56737560597E+03  0.00000000000E+00 0. -1.
         -1   -1    0    0    0  501 -0.00000000000E+00 -0.00000000000E+00 -0.23301124652E+02  0.23301124652E+02  0.00000000000E+00 0.  1.
         23    2    1    2    0    0  0.14830248460E+02  0.52429650291E+01  0.15557590251E+03  0.19135370446E+03  0.11029484946E+03 0.  0.
          5    1    3    3  502    0  0.19977746883E+02 -0.46161457372E+02  0.39211643659E+02  0.63950242499E+02  0.47000000000E+01 0. -1.
         -5    1    3    3    0  502 -0.51474984233E+01  0.51404422402E+02  0.11636425885E+03  0.12740346197E+03  0.47000000000E+01 0.  1.
        -11    1    1    2    0    0 -0.49970702820E+02  0.11851610981E+02  0.17949414841E+03  0.18669676252E+03  0.00000000000E+00 0.  1.
         11    1    1    2    0    0  0.35140454360E+02 -0.17094576010E+02  0.20900443040E+03  0.21262626364E+03  0.00000000000E+00 0. -1.
<mgrwt>
<rscale>  0 0.10630406E+03</rscale>
<asrwt>0</asrwt>
<pdfrwt beam="1">  1        1 0.87288544E-01 0.11141086E+03</pdfrwt>
<pdfrwt beam="2">  1       -1 0.35847888E-02 0.11141086E+03</pdfrwt>
<totfact> 0.10349663E+04</totfact>
</mgrwt>
</event>
<event>
 7    1  0.8712071E-006  0.1288863E+03  0.7546771E-02  0.1244017E+00
          1   -1    0    0  501    0  0.00000000000E+00  0.00000000000E+00  0.36723822680E+02  0.36723822680E+02  0.00000000000E+00 0. -1.
         -1   -1    0    0    0  501 -0.00000000000E+00 -0.00000000000E+00 -0.36806658448E+03  0.36806658448E+03  0.00000000000E+00 0.  1.
         23    2    1    2    0    0 -0.28921217417E+02  0.12294910873E+02 -0.24273627525E+03  0.27483190463E+03  0.12499629926E+03 0.  0.
          5    1    3    3  502    0  0.47993976881E+02  0.81244010519E+01 -0.12318091531E+03  0.13253322453E+03  0.47000000000E+01 0.  1.
         -5    1    3    3    0  502 -0.76915194297E+02  0.41705098215E+01 -0.11955535994E+03  0.14229868010E+03  0.47000000000E+01 0.  1.
        -11    1    1    2    0    0  0.56790367007E+02 -0.13765761635E+02 -0.82977639936E+02  0.10148857427E+03  0.00000000000E+00 0.  1.
         11    1    1    2    0    0 -0.27869149590E+02  0.14708507612E+01 -0.56288466104E+01  0.28469928258E+02  0.00000000000E+00 0. -1.
<mgrwt>
<rscale>  0 0.11944410E+03</rscale>
<asrwt>0</asrwt>
<pdfrwt beam="1">  1        1 0.56498190E-02 0.12888629E+03</pdfrwt>
<pdfrwt beam="2">  1       -1 0.56625627E-01 0.12888629E+03</pdfrwt>
<totfact> 0.43507662E+03</totfact>
</mgrwt>
</event>
<event>
 7    1  0.8712071E-006  0.1373415E+03  0.7546771E-02  0.1228849E+00
         -1   -1    0    0    0  501 -0.00000000000E+00  0.00000000000E+00  0.19845870267E+03  0.19845870267E+03  0.00000000000E+00 0.  1.
          1   -1    0    0  501    0  0.00000000000E+00 -0.00000000000E+00 -0.96503645946E+02  0.96503645946E+02  0.00000000000E+00 0. -1.
         23    2    1    2    0    0  0.17302826249E+02  0.54210656701E+02  0.12465021079E+03  0.18547333756E+03  0.12499800318E+03 0.  0.
          5    1    3    3  502    0 -0.36080838449E+02  0.67854887277E+02  0.96404271441E+02  0.12337741358E+03  0.47000000000E+01 0.  1.
         -5    1    3    3    0  502  0.53383664698E+02 -0.13644230576E+02  0.28245939347E+02  0.62095923973E+02  0.47000000000E+01 0.  1.
        -11    1    1    2    0    0 -0.48037865131E+02 -0.33539276326E+02  0.10771215126E+02  0.59569611533E+02  0.00000000000E+00 0.  1.
         11    1    1    2    0    0  0.30735038882E+02 -0.20671380375E+02 -0.33466369193E+02  0.49919399522E+02  0.00000000000E+00 0. -1.
<mgrwt>
<rscale>  0 0.12906541E+03</rscale>
<asrwt>0</asrwt>
<pdfrwt beam="2">  1        1 0.14846715E-01 0.13734149E+03</pdfrwt>
<pdfrwt beam="1">  1       -1 0.30532108E-01 0.13734149E+03</pdfrwt>
<totfact> 0.36017505E+03</totfact>
</mgrwt>
</event>
<event>
 7    1  0.8712071E-006  0.1258753E+03  0.7546771E-02  0.1249318E+00
          2   -1    0    0  501    0  0.00000000000E+00  0.00000000000E+00  0.74402237776E+03  0.74402237776E+03  0.00000000000E+00 0. -1.
         -2   -1    0    0    0  501 -0.00000000000E+00 -0.00000000000E+00 -0.18939450151E+02  0.18939450151E+02  0.00000000000E+00 0.  1.
         23    2    1    2    0    0  0.14397677389E+02 -0.35569306214E+01  0.25940736355E+03  0.28833446277E+03  0.12499854915E+03 0.  0.
          5    1    3    3  502    0 -0.14052878742E+02  0.55224058509E+02  0.89022408432E+02  0.10580292643E+03  0.47000000000E+01 0.  1.
         -5    1    3    3    0  502  0.28450556131E+02 -0.58780989130E+02  0.17038495511E+03  0.18253153633E+03  0.47000000000E+01 0.  1.
        -11    1    1    2    0    0 -0.26509828921E+02  0.42907127277E+02  0.26927087001E+03  0.27395363483E+03  0.00000000000E+00 0. -1.
         11    1    1    2    0    0  0.12112151532E+02 -0.39350196656E+02  0.19640469405E+03  0.20067373031E+03  0.00000000000E+00 0.  1.
<mgrwt>
<rscale>  0 0.11630612E+03</rscale>
<asrwt>0</asrwt>
<pdfrwt beam="1">  1        2 0.11446496E+00 0.12587526E+03</pdfrwt>
<pdfrwt beam="2">  1       -2 0.29137621E-02 0.12587526E+03</pdfrwt>
<totfact> 0.16261994E+04</totfact>
</mgrwt>
</event>
<event>
 7    1  0.8712071E-006  0.1298165E+03  0.7546771E-02  0.1234112E+00
          1   -1    0    0  501    0  0.00000000000E+00  0.00000000000E+00  0.15773758903E+03  0.15773758903E+03  0.00000000000E+00 0. -1.
         -1   -1    0    0    0  501 -0.00000000000E+00 -0.00000000000E+00 -0.94434089270E+02  0.94434089270E+02  0.00000000000E+00 0.  1.
         23    2    1    2    0    0 -0.31162699165E+02  0.12444846518E+02  0.25902924054E+02  0.13237550907E+03  0.12540464865E+03 0.  0.
          5    1    3    3  502    0 -0.25593541744E+02  0.80255642361E+01  0.76429248425E+02  0.81135436618E+02  0.47000000000E+01 0. -1.
         -5    1    3    3    0  502 -0.55691574215E+01  0.44192822815E+01 -0.50526324372E+02  0.51240072451E+02  0.47000000000E+01 0.  1.
        -11    1    1    2    0    0  0.47928639691E+02  0.34316663399E+02  0.23407096197E+01  0.58993786207E+02  0.00000000000E+00 0.  1.
         11    1    1    2    0    0 -0.16765940526E+02 -0.46761509917E+02  0.35059866089E+02  0.60802383026E+02  0.00000000000E+00 0. -1.
<mgrwt>
<rscale>  0 0.12561479E+03</rscale>
<asrwt>0</asrwt>
<pdfrwt beam="1">  1        1 0.24267321E-01 0.12981646E+03</pdfrwt>
<pdfrwt beam="2">  1       -1 0.14528321E-01 0.12981646E+03</pdfrwt>
<totfact> 0.63707767E+03</totfact>
</mgrwt>
</event>
<event>
 7    1  0.8712071E-006  0.1293493E+03  0.7546771E-02  0.1244524E+00
         -1   -1    0    0    0  501 -0.00000000000E+00  0.00000000000E+00  0.23425797804E+03  0.23425797804E+03  0.00000000000E+00 0.  1.
          1   -1    0    0  501    0  0.00000000000E+00 -0.00000000000E+00 -0.60579038529E+02  0.60579038529E+02  0.00000000000E+00 0. -1.
         23    2    1    2    0    0  0.25532546933E+02  0.21047597541E+02  0.15136495442E+03  0.19910449935E+03  0.12504535146E+03 0.  0.
          5    1    3    3  502    0 -0.29559575966E+02  0.54013721334E+02  0.52105913727E+02  0.80798309815E+02  0.47000000000E+01 0. -1.
         -5    1    3    3    0  502  0.55092122899E+02 -0.32966123793E+02  0.99259040692E+02  0.11830618954E+03  0.47000000000E+01 0. -1.
        -11    1    1    2    0    0 -0.30067103415E+02  0.29526719155E+02  0.13065878995E+02  0.44120007318E+02  0.00000000000E+00 0.  1.
         11    1    1    2    0    0  0.45345564821E+01 -0.50574316696E+02  0.92481060974E+01  0.51612509900E+02  0.00000000000E+00 0. -1.
<mgrwt>
<rscale>  0 0.11913943E+03</rscale>
<asrwt>0</asrwt>
<pdfrwt beam="2">  1        1 0.93198522E-02 0.12934934E+03</pdfrwt>
<pdfrwt beam="1">  1       -1 0.36039688E-01 0.12934934E+03</pdfrwt>
<totfact> 0.49863215E+03</totfact>
</mgrwt>
</event>
<event>
 7    1  0.8712071E-006  0.1927169E+03  0.7546771E-02  0.1158464E+00
          3   -1    0    0  501    0  0.00000000000E+00  0.00000000000E+00  0.65423710382E+02  0.65423710382E+02  0.00000000000E+00 0. -1.
         -3   -1    0    0    0  501 -0.00000000000E+00 -0.00000000000E+00 -0.13451876374E+04  0.13451876374E+04  0.00000000000E+00 0.  1.
         23    2    1    2    0    0 -0.15689177406E+03 -0.13121851456E+02 -0.11938289585E+04  0.12092838379E+04  0.11114228122E+03 0.  0.
          5    1    3    3  502    0 -0.17217377214E+03 -0.11068342406E+02 -0.11430748208E+04  0.11560313369E+04  0.47000000000E+01 0. -1.
         -5    1    3    3    0  502  0.15281998085E+02 -0.20535090498E+01 -0.50754137732E+02  0.53252500992E+02  0.47000000000E+01 0.  1.
        -11    1    1    2    0    0  0.14243221894E+03  0.38838127509E+02 -0.87796833708E+02  0.17176618162E+03  0.00000000000E+00 0.  1.
         11    1    1    2    0    0  0.14459555118E+02 -0.25716276054E+02  0.18618651711E+01  0.29561328289E+02  0.00000000000E+00 0. -1.
<mgrwt>
<rscale>  0 0.18999711E+03</rscale>
<asrwt>0</asrwt>
<pdfrwt beam="1">  1        3 0.10065187E-01 0.19271694E+03</pdfrwt>
<pdfrwt beam="2">  1       -3 0.20695193E+00 0.19271694E+03</pdfrwt>
<totfact> 0.25871962E+01</totfact>
</mgrwt>
</event>
<event>
 7    1  0.8712071E-006  0.3566157E+03  0.7546771E-02  0.1061155E+00
         -2   -1    0    0    0  501 -0.00000000000E+00  0.00000000000E+00  0.22053729486E+03  0.22053729486E+03  0.00000000000E+00 0.  1.
          2   -1    0    0  501    0  0.00000000000E+00 -0.00000000000E+00 -0.56755882964E+03  0.56755882964E+03  0.00000000000E+00 0. -1.
         23    2    1    2    0    0  0.23074640571E+03 -0.24146405749E+03 -0.12379737476E+03  0.37749241443E+03  0.12500375255E+03 0.  0.
          5    1    3    3  502    0 -0.94198296278E+01 -0.45204621645E+02 -0.15239805421E+02  0.48852151207E+02  0.47000000000E+01 0. -1.
         -5    1    3    3    0  502  0.24016623534E+03 -0.19625943584E+03 -0.10855756934E+03  0.32864026323E+03  0.47000000000E+01 0. -1.
        -11    1    1    2    0    0 -0.11147092292E+03  0.16320794827E+03 -0.97182638696E+02  0.22024319808E+03  0.00000000000E+00 0.  1.
         11    1    1    2    0    0 -0.11927548279E+03  0.78256109214E+02 -0.12604152133E+03  0.19036051198E+03  0.00000000000E+00 0. -1.
<mgrwt>
<rscale>  0 0.35357944E+03</rscale>
<asrwt>0</asrwt>
<pdfrwt beam="2">  1        2 0.87316743E-01 0.35661567E+03</pdfrwt>
<pdfrwt beam="1">  1       -2 0.33928815E-01 0.35661567E+03</pdfrwt>
<totfact> 0.43932977E+02</totfact>
</mgrwt>
</event>
<event>
 7    1  0.8712071E-006  0.2323243E+03  0.7546771E-02  0.1127551E+00
          2   -1    0    0  501    0  0.00000000000E+00  0.00000000000E+00  0.27331072942E+03  0.27331072942E+03  0.00000000000E+00 0. -1.
         -2   -1    0    0    0  501 -0.00000000000E+00 -0.00000000000E+00 -0.21403209653E+03  0.21403209653E+03  0.00000000000E+00 0.  1.
         23    2    1    2    0    0 -0.13517648364E+03  0.14169143736E+03 -0.58231343096E+02  0.23951087343E+03  0.12500169609E+03 0.  0.
          5    1    3    3  502    0 -0.14399738832E+03  0.89187625868E+02 -0.72327796219E+02  0.18423647998E+03  0.47000000000E+01 0.  1.
         -5    1    3    3    0  502  0.88209046853E+01  0.52503811490E+02  0.14096453123E+02  0.55274393449E+02  0.47000000000E+01 0.  1.
        -11    1    1    2    0    0  0.30438078857E+02 -0.10142829119E+03  0.60694272547E+02  0.12205723910E+03  0.00000000000E+00 0. -1.
         11    1    1    2    0    0  0.10473840478E+03 -0.40263146172E+02  0.56815703437E+02  0.12577471341E+03  0.00000000000E+00 0.  1.
<mgrwt>
<rscale>  0 0.22871023E+03</rscale>
<asrwt>0</asrwt>
<pdfrwt beam="1">  1        2 0.42047804E-01 0.23232428E+03</pdfrwt>
<pdfrwt beam="2">  1       -2 0.32928015E-01 0.23232428E+03</pdfrwt>
<totfact> 0.10406674E+03</totfact>
</mgrwt>
</event>
<event>
 7    1  0.8712071E-006  0.1394423E+03  0.7546771E-02  0.1225221E+00
         -1   -1    0    0    0  501 -0.00000000000E+00  0.00000000000E+00  0.29887596301E+02  0.29887596301E+02  0.00000000000E+00 0.  1.
          1   -1    0    0  501    0  0.00000000000E+00 -0.00000000000E+00 -0.54652006896E+03  0.54652006896E+03  0.00000000000E+00 0. -1.
         23    2    1    2    0    0  0.44270101568E+02  0.43107648853E+02 -0.22628459938E+03  0.26579855191E+03  0.12500415594E+03 0.  0.
          5    1    3    3  502    0  0.41006650630E+02 -0.48504145743E+01 -0.81114573216E+01  0.42343330730E+02  0.47000000000E+01 0. -1.
         -5    1    3    3    0  502  0.32634509380E+01  0.47958063427E+02 -0.21817314205E+03  0.22345522118E+03  0.47000000000E+01 0. -1.
        -11    1    1    2    0    0 -0.62407691539E+02 -0.79775585121E+01 -0.11735715756E+03  0.13315804082E+03  0.00000000000E+00 0.  1.
         11    1    1    2    0    0  0.18137589971E+02 -0.35130090341E+02 -0.17299071572E+03  0.17745107253E+03  0.00000000000E+00 0. -1.
<mgrwt>
<rscale>  0 0.13151780E+03</rscale>
<asrwt>0</asrwt>
<pdfrwt beam="2">  1        1 0.84080012E-01 0.13944228E+03</pdfrwt>
<pdfrwt beam="1">  1       -1 0.45980917E-02 0.13944228E+03</pdfrwt>
<totfact> 0.76683484E+03</totfact>
</mgrwt>
</event>
<event>
 7    1  0.8712071E-006  0.1274073E+03  0.7546771E-02  0.1245543E+00
         -3   -1    0    0    0  501 -0.00000000000E+00  0.00000000000E+00  0.12617959256E+03  0.12617959256E+03  0.00000000000E+00 0.  1.
          3   -1    0    0  501    0  0.00000000000E+00 -0.00000000000E+00 -0.13699270227E+03  0.13699270227E+03  0.00000000000E+00 0. -1.
         23    2    1    2    0    0 -0.24394308914E+02 -0.36770114489E+01  0.63367653227E+02  0.14229570731E+03  0.12499602442E+03 0.  0.
          5    1    3    3  502    0 -0.29324693801E+02 -0.61806815198E+02  0.39102688956E+02  0.78937509177E+02  0.47000000000E+01 0.  1.
         -5    1    3    3    0  502  0.49303848877E+01  0.58129803749E+02  0.24264964271E+02  0.63358198129E+02  0.47000000000E+01 0.  1.
        -11    1    1    2    0    0  0.13311810682E+02  0.14909238325E+02 -0.93682366492E+02  0.95790790176E+02  0.00000000000E+00 0. -1.
         11    1    1    2    0    0  0.11082498232E+02 -0.11232226876E+02  0.19501603554E+02  0.25085797353E+02  0.00000000000E+00 0.  1.
<mgrwt>
<rscale>  0 0.11852929E+03</rscale>
<asrwt>0</asrwt>
<pdfrwt beam="2">  1        3 0.21075800E-01 0.12740726E+03</pdfrwt>
<pdfrwt beam="1">  1       -3 0.19412245E-01 0.12740726E+03</pdfrwt>
<totfact> 0.11028646E+03</totfact>
</mgrwt>
</event>
<event>
 7    1  0.2459643E-005  0.2294183E+03  0.7546771E-02  0.1129884E+00
         -1   -1    0    0    0  501 -0.00000000000E+00  0.00000000000E+00  0.25502540729E+03  0.25502540729E+03  0.00000000000E+00 0.  1.
          1   -1    0    0  501    0  0.00000000000E+00 -0.00000000000E+00 -0.20963717169E+03  0.20963717169E+03  0.00000000000E+00 0. -1.
         23    2    1    2    0    0 -0.19210558961E+03 -0.10175130429E+02  0.89418631234E+02  0.24622847995E+03  0.12499872754E+03 0.  0.
          5    1    3    3  502    0 -0.77533925365E+02 -0.33507845525E+02  0.97315508389E+02  0.12894449762E+03  0.47000000000E+01 0.  1.
         -5    1    3    3    0  502 -0.11457166424E+03  0.23332715096E+02 -0.78968771553E+01  0.11728398232E+03  0.47000000000E+01 0.  1.
        -11    1    1    2    0    0  0.10879090874E+03 -0.82804130091E+01  0.21046614414E+02  0.11111699709E+03  0.00000000000E+00 0.  1.
         11    1    1    2    0    0  0.83314680867E+02  0.18455543438E+02 -0.65077010047E+02  0.10731710194E+03  0.00000000000E+00 0. -1.
<mgrwt>
<rscale>  0 0.22544955E+03</rscale>
<asrwt>0</asrwt>
<pdfrwt beam="2">  1        1 0.32251873E-01 0.22941834E+03</pdfrwt>
<pdfrwt beam="1">  1       -1 0.39234678E-01 0.22941834E+03</pdfrwt>
<totfact> 0.88296670E+02</totfact>
</mgrwt>
</event>
<event>
 7    1  0.8712071E-006  0.1368021E+03  0.7546771E-02  0.1229385E+00
          1   -1    0    0  501    0  0.00000000000E+00  0.00000000000E+00  0.18966566225E+03  0.18966566225E+03  0.00000000000E+00 0. -1.
         -1   -1    0    0    0  501 -0.00000000000E+00 -0.00000000000E+00 -0.15767341979E+03  0.15767341979E+03  0.00000000000E+00 0.  1.
         23    2    1    2    0    0 -0.56763701013E+02 -0.19335681844E+01 -0.10567455644E+03  0.17286392725E+03  0.12445468665E+03 0.  0.
          5    1    3    3  502    0 -0.45967326633E+02 -0.19630475942E+02  0.13356078129E+02  0.51950221622E+02  0.47000000000E+01 0. -1.
         -5    1    3    3    0  502 -0.10796374380E+02  0.17696907758E+02 -0.11903063457E+03  0.12091370563E+03  0.47000000000E+01 0.  1.
        -11    1    1    2    0    0  0.72809532941E+02 -0.53019279819E+00  0.14026251250E+03  0.15803506447E+03  0.00000000000E+00 0. -1.
         11    1    1    2    0    0 -0.16045831928E+02  0.24637609826E+01 -0.25957135942E+01  0.16440090313E+02  0.00000000000E+00 0.  1.
<mgrwt>
<rscale>  0 0.12870843E+03</rscale>
<asrwt>0</asrwt>
<pdfrwt beam="1">  1        1 0.29179333E-01 0.13680214E+03</pdfrwt>
<pdfrwt beam="2">  1       -1 0.24257449E-01 0.13680214E+03</pdfrwt>
<totfact> 0.22378960E+03</totfact>
</mgrwt>
</event>
<event>
 7    1  0.8712071E-006  0.1578310E+03  0.7546771E-02  0.1200277E+00
          2   -1    0    0  501    0  0.00000000000E+00  0.00000000000E+00  0.12042649133E+04  0.12042649133E+04  0.00000000000E+00 0. -1.
         -2   -1    0    0    0  501 -0.00000000000E+00 -0.00000000000E+00 -0.18714562963E+02  0.18714562963E+02  0.00000000000E+00 0.  1.
         23    2    1    2    0    0 -0.29896167585E+02 -0.91610469007E+02  0.46873817082E+03  0.49459689533E+03  0.12499742886E+03 0.  0.
          5    1    3    3  502    0 -0.47716203741E+02  0.10194598281E+02  0.96332940968E+02  0.10808742503E+03  0.47000000000E+01 0.  1.
         -5    1    3    3    0  502  0.17820036156E+02 -0.10180506729E+03  0.37240522985E+03  0.38650947030E+03  0.47000000000E+01 0.  1.
        -11    1    1    2    0    0  0.43222457588E+02  0.10164953550E+03  0.65969613475E+03  0.66887951016E+03  0.00000000000E+00 0.  1.
         11    1    1    2    0    0 -0.13326290002E+02 -0.10039066493E+02  0.57116044788E+02  0.59503070791E+02  0.00000000000E+00 0. -1.
<mgrwt>
<rscale>  0 0.15015975E+03</rscale>
<asrwt>0</asrwt>
<pdfrwt beam="1">  1        2 0.18527146E+00 0.15783097E+03</pdfrwt>
<pdfrwt beam="2">  1       -2 0.28791645E-02 0.15783097E+03</pdfrwt>
<totfact> 0.87504471E+03</totfact>
</mgrwt>
</event>
<event>
 7    1  0.8712071E-006  0.1559163E+03  0.7546771E-02  0.1201808E+00
          2   -1    0    0  501    0  0.00000000000E+00  0.00000000000E+00  0.22726069939E+03  0.22726069939E+03  0.00000000000E+00 0. -1.
         -2   -1    0    0    0  501 -0.00000000000E+00 -0.00000000000E+00 -0.10022810660E+03  0.10022810660E+03  0.00000000000E+00 0.  1.
         23    2    1    2    0    0  0.26503173027E+02 -0.89320851076E+02  0.16042761117E+02  0.15673949030E+03  0.12501705891E+03 0.  0.
          5    1    3    3  502    0 -0.23196382045E+02 -0.55939962838E+02  0.57600134300E+02  0.83709121688E+02  0.47000000000E+01 0. -1.
         -5    1    3    3    0  502  0.49699555072E+02 -0.33380888238E+02 -0.41557373182E+02  0.73030368613E+02  0.47000000000E+01 0. -1.
        -11    1    1    2    0    0 -0.11373091162E+02  0.65390540298E+02  0.11565350396E+02  0.67372303603E+02  0.00000000000E+00 0.  1.
         11    1    1    2    0    0 -0.15130081865E+02  0.23930310778E+02  0.99424481278E+02  0.10337701209E+03  0.00000000000E+00 0. -1.
<mgrwt>
<rscale>  0 0.14891911E+03</rscale>
<asrwt>0</asrwt>
<pdfrwt beam="1">  1        2 0.34963184E-01 0.15591632E+03</pdfrwt>
<pdfrwt beam="2">  1       -2 0.15419709E-01 0.15591632E+03</pdfrwt>
<totfact> 0.46759208E+03</totfact>
</mgrwt>
</event>
<event>
 7    1  0.8712071E-006  0.1286597E+03  0.7546771E-02  0.1245123E+00
         -2   -1    0    0    0  501 -0.00000000000E+00  0.00000000000E+00  0.38320908433E+03  0.38320908433E+03  0.00000000000E+00 0.  1.
          2   -1    0    0  501    0  0.00000000000E+00 -0.00000000000E+00 -0.32282711034E+02  0.32282711034E+02  0.00000000000E+00 0. -1.
         23    2    1    2    0    0 -0.37402880229E+01  0.30257791764E+02  0.19208656967E+03  0.23119378226E+03  0.12499516387E+03 0.  0.
          5    1    3    3  502    0 -0.18954120771E+02 -0.37744808766E+02  0.13328044401E+03  0.13989172970E+03  0.47000000000E+01 0.  1.
         -5    1    3    3    0  502  0.15213832748E+02  0.68002600530E+02  0.58806125656E+02  0.91302052553E+02  0.47000000000E+01 0.  1.
        -11    1    1    2    0    0  0.34605651988E+02 -0.38257027094E+02  0.13489715123E+03  0.14442434934E+03  0.00000000000E+00 0.  1.
         11    1    1    2    0    0 -0.30865363965E+02  0.79992353292E+01  0.23942652392E+02  0.39873663766E+02  0.00000000000E+00 0. -1.
<mgrwt>
<rscale>  0 0.11878016E+03</rscale>
<asrwt>0</asrwt>
<pdfrwt beam="2">  1        2 0.49665712E-02 0.12865969E+03</pdfrwt>
<pdfrwt beam="1">  1       -2 0.58955240E-01 0.12865969E+03</pdfrwt>
<totfact> 0.41210402E+03</totfact>
</mgrwt>
</event>
<event>
 7    1  0.8712071E-006  0.1447339E+03  0.7546771E-02  0.1217244E+00
          2   -1    0    0  501    0  0.00000000000E+00  0.00000000000E+00  0.79558622572E+03  0.79558622572E+03  0.00000000000E+00 0. -1.
         -2   -1    0    0    0  501 -0.00000000000E+00 -0.00000000000E+00 -0.21496192891E+02  0.21496192891E+02  0.00000000000E+00 0.  1.
         23    2    1    2    0    0 -0.96105194827E+01  0.72315077541E+02  0.41337914564E+03  0.43798425926E+03  0.12500424308E+03 0.  0.
          5    1    3    3  502    0 -0.30610755673E+02 -0.70269291193E+01  0.23432068496E+02  0.39465781757E+02  0.47000000000E+01 0.  1.
         -5    1    3    3    0  502  0.21000236190E+02  0.79342006660E+02  0.38994707715E+03  0.39851847751E+03  0.47000000000E+01 0.  1.
        -11    1    1    2    0    0  0.72796789184E+01 -0.94269759449E+02  0.29360659509E+03  0.30845520575E+03  0.00000000000E+00 0.  1.
         11    1    1    2    0    0  0.23308405643E+01  0.21954681908E+02  0.67104292098E+02  0.70642953601E+02  0.00000000000E+00 0. -1.
<mgrwt>
<rscale>  0 0.13712993E+03</rscale>
<asrwt>0</asrwt>
<pdfrwt beam="1">  1        2 0.12239786E+00 0.14473387E+03</pdfrwt>
<pdfrwt beam="2">  1       -2 0.33071072E-02 0.14473387E+03</pdfrwt>
<totfact> 0.12556595E+04</totfact>
</mgrwt>
</event>
<event>
 7    1  0.8712071E-006  0.1780395E+03  0.7546771E-02  0.1175280E+00
          1   -1    0    0  501    0  0.00000000000E+00  0.00000000000E+00  0.85701058504E+02  0.85701058504E+02  0.00000000000E+00 0. -1.
         -1   -1    0    0    0  501 -0.00000000000E+00 -0.00000000000E+00 -0.33939692365E+03  0.33939692365E+03  0.00000000000E+00 0.  1.
         23    2    1    2    0    0 -0.95892751803E+02  0.82931769880E+02 -0.17489923701E+03  0.24957528498E+03  0.12499992584E+03 0.  0.
          5    1    3    3  502    0 -0.57483188029E+02  0.72123257917E+01 -0.34853292207E+01  0.58228618987E+02  0.47000000000E+01 0.  1.
         -5    1    3    3    0  502 -0.38409563774E+02  0.75719444088E+02 -0.17141390779E+03  0.19134666599E+03  0.47000000000E+01 0.  1.
        -11    1    1    2    0    0  0.97559897896E+02 -0.93572560842E+02 -0.48913362650E+02  0.14375769498E+03  0.00000000000E+00 0. -1.
         11    1    1    2    0    0 -0.16671460933E+01  0.10640790963E+02 -0.29883265491E+02  0.31765002201E+02  0.00000000000E+00 0.  1.
<mgrwt>
<rscale>  0 0.17248555E+03</rscale>
<asrwt>0</asrwt>
<pdfrwt beam="1">  1        1 0.13184778E-01 0.17803955E+03</pdfrwt>
<pdfrwt beam="2">  1       -1 0.52214912E-01 0.17803955E+03</pdfrwt>
<totfact> 0.16523602E+03</totfact>
</mgrwt>
</event>
<event>
 7    1  0.8712071E-006  0.3130600E+03  0.7546771E-02  0.1080472E+00
          2   -1    0    0  501    0  0.00000000000E+00  0.00000000000E+00  0.15803254478E+04  0.15803254478E+04  0.00000000000E+00 0.  1.
         -2   -1    0    0    0  501 -0.00000000000E+00 -0.00000000000E+00 -0.68423138008E+02  0.68423138008E+02  0.00000000000E+00 0. -1.
         23    2    1    2    0    0  0.14445018556E+03 -0.24802324222E+03  0.47152707195E+03  0.56598969945E+03  0.12500070207E+03 0.  0.
          5    1    3    3  502    0 -0.44811346545E+01 -0.80166919704E+02  0.18719674407E+03  0.20374377677E+03  0.47000000000E+01 0. -1.
         -5    1    3    3    0  502  0.14893132021E+03 -0.16785632251E+03  0.28433032788E+03  0.36224592268E+03  0.47000000000E+01 0. -1.
        -11    1    1    2    0    0 -0.89673354928E+02  0.70158832052E+02  0.39038329371E+03  0.40664811362E+03  0.00000000000E+00 0. -1.
         11    1    1    2    0    0 -0.54776830629E+02  0.17786441016E+03  0.64999194409E+03  0.67611077270E+03  0.00000000000E+00 0.  1.
<mgrwt>
<rscale>  0 0.30973669E+03</rscale>
<asrwt>0</asrwt>
<pdfrwt beam="1">  1        2 0.24312697E+00 0.31305999E+03</pdfrwt>
<pdfrwt beam="2">  1       -2 0.10526638E-01 0.31305999E+03</pdfrwt>
<totfact> 0.75380702E+02</totfact>
</mgrwt>
</event>
<event>
 7    1  0.8712071E-006  0.1596453E+03  0.7546771E-02  0.1196536E+00
         -1   -1    0    0    0  501 -0.00000000000E+00  0.00000000000E+00  0.87985279765E+03  0.87985279765E+03  0.00000000000E+00 0.  1.
          1   -1    0    0  501    0  0.00000000000E+00 -0.00000000000E+00 -0.32810679722E+02  0.32810679722E+02  0.00000000000E+00 0. -1.
         23    2    1    2    0    0  0.36360767211E+02  0.92417222452E+02  0.67505825113E+03  0.69367879292E+03  0.12499430759E+03 0.  0.
          5    1    3    3  502    0 -0.23912611079E+02  0.91584877986E+02  0.32898390777E+03  0.34236253360E+03  0.47000000000E+01 0. -1.
         -5    1    3    3    0  502  0.60273378290E+02  0.83234446599E+00  0.34607434337E+03  0.35131625932E+03  0.47000000000E+01 0. -1.
        -11    1    1    2    0    0 -0.65580096112E+02 -0.52395709231E+02  0.89063438503E+02  0.12238609165E+03  0.00000000000E+00 0. -1.
         11    1    1    2    0    0  0.29219328901E+02 -0.40021513221E+02  0.82920428288E+02  0.96598592792E+02  0.00000000000E+00 0.  1.
<mgrwt>
<rscale>  0 0.15324913E+03</rscale>
<asrwt>0</asrwt>
<pdfrwt beam="2">  1        1 0.50477976E-02 0.15964531E+03</pdfrwt>
<pdfrwt beam="1">  1       -1 0.13536195E+00 0.15964531E+03</pdfrwt>
<totfact> 0.80101469E+02</totfact>
</mgrwt>
</event>
<event>
 7    1  0.8712071E-006  0.2013031E+03  0.7546771E-02  0.1152778E+00
         -2   -1    0    0    0  501 -0.00000000000E+00  0.00000000000E+00  0.39744115545E+02  0.39744115545E+02  0.00000000000E+00 0.  1.
          2   -1    0    0  501    0  0.00000000000E+00 -0.00000000000E+00 -0.11610038058E+04  0.11610038058E+04  0.00000000000E+00 0. -1.
         23    2    1    2    0    0  0.12995415889E+03 -0.89500492602E+02 -0.31310307014E+03  0.37223174289E+03  0.12499806515E+03 0.  0.
          5    1    3    3  502    0  0.10509329985E+03 -0.48530575854E+01 -0.21986558940E+03  0.24378498979E+03  0.47000000000E+01 0. -1.
         -5    1    3    3    0  502  0.24860859038E+02 -0.84647435017E+02 -0.93237480741E+02  0.12844675310E+03  0.47000000000E+01 0. -1.
        -11    1    1    2    0    0  0.11877704257E+02  0.11167735712E+02 -0.35653394454E+02  0.39204116052E+02  0.00000000000E+00 0.  1.
         11    1    1    2    0    0 -0.14183186315E+03  0.78332756890E+02 -0.77250322562E+03  0.78931206237E+03  0.00000000000E+00 0. -1.
<mgrwt>
<rscale>  0 0.19643964E+03</rscale>
<asrwt>0</asrwt>
<pdfrwt beam="2">  1        2 0.17861593E+00 0.20130310E+03</pdfrwt>
<pdfrwt beam="1">  1       -2 0.61144807E-02 0.20130310E+03</pdfrwt>
<totfact> 0.30104975E+03</totfact>
</mgrwt>
</event>
<event>
 7    1  0.8712071E-006  0.3218356E+03  0.7546771E-02  0.1076110E+00
         -2   -1    0    0    0  501 -0.00000000000E+00  0.00000000000E+00  0.88746151901E+02  0.88746151901E+02  0.00000000000E+00 0.  1.
          2   -1    0    0  501    0  0.00000000000E+00 -0.00000000000E+00 -0.13286064957E+04  0.13286064957E+04  0.00000000000E+00 0. -1.
         23    2    1    2    0    0 -0.27414823737E+03  0.11311645527E+03 -0.35313923489E+03  0.47779229628E+03  0.12500228262E+03 0.  0.
          5    1    3    3  502    0 -0.33359934595E+02  0.21539489278E+01 -0.12016925162E+03  0.12482092680E+03  0.47000000000E+01 0. -1.
         -5    1    3    3    0  502 -0.24078830278E+03  0.11096250635E+03 -0.23296998327E+03  0.35297136948E+03  0.47000000000E+01 0. -1.
        -11    1    1    2    0    0  0.95141435175E+02 -0.34302115989E+01 -0.36429792765E+03  0.37653238789E+03  0.00000000000E+00 0. -1.
         11    1    1    2    0    0  0.17900680220E+03 -0.10968624368E+03 -0.52242318124E+03  0.56302796341E+03  0.00000000000E+00 0.  1.
<mgrwt>
<rscale>  0 0.31900031E+03</rscale>
<asrwt>0</asrwt>
<pdfrwt beam="2">  1        2 0.20440098E+00 0.32183561E+03</pdfrwt>
<pdfrwt beam="1">  1       -2 0.13653256E-01 0.32183561E+03</pdfrwt>
<totfact> 0.67603546E+02</totfact>
</mgrwt>
</event>
<event>
 7    1  0.8712071E-006  0.2725233E+03  0.7546771E-02  0.1101833E+00
          2   -1    0    0  501    0  0.00000000000E+00  0.00000000000E+00  0.56891126293E+03  0.56891126293E+03  0.00000000000E+00 0.  1.
         -2   -1    0    0    0  501 -0.00000000000E+00 -0.00000000000E+00 -0.35874278999E+03  0.35874278999E+03  0.00000000000E+00 0. -1.
         23    2    1    2    0    0 -0.10702285189E+03 -0.21723276385E+03 -0.26907736542E+03  0.38297721980E+03  0.12499983113E+03 0.  0.
          5    1    3    3  502    0 -0.13072765133E+03 -0.17763277746E+03 -0.18928360131E+03  0.29067764650E+03  0.47000000000E+01 0. -1.
         -5    1    3    3    0  502  0.23704799443E+02 -0.39599986392E+02 -0.79793764113E+02  0.92299573294E+02  0.47000000000E+01 0. -1.
        -11    1    1    2    0    0  0.32665431768E+02  0.85229540542E+02  0.27915585099E+03  0.29369898562E+03  0.00000000000E+00 0.  1.
         11    1    1    2    0    0  0.74357420124E+02  0.13200322331E+03  0.20008998737E+03  0.25097784751E+03  0.00000000000E+00 0. -1.
<mgrwt>
<rscale>  0 0.26903514E+03</rscale>
<asrwt>0</asrwt>
<pdfrwt beam="1">  1        2 0.87524810E-01 0.27252325E+03</pdfrwt>
<pdfrwt beam="2">  1       -2 0.55191198E-01 0.27252325E+03</pdfrwt>
<totfact> 0.17043497E+02</totfact>
</mgrwt>
</event>
<event>
 7    1  0.8712071E-006  0.2046308E+03  0.7546771E-02  0.1149803E+00
         -2   -1    0    0    0  501 -0.00000000000E+00  0.00000000000E+00  0.72863071423E+02  0.72863071423E+02  0.00000000000E+00 0.  1.
          2   -1    0    0  501    0  0.00000000000E+00 -0.00000000000E+00 -0.56844353582E+03  0.56844353582E+03  0.00000000000E+00 0. -1.
         23    2    1    2    0    0 -0.13669167290E+03  0.86979408672E+02 -0.16961386783E+03  0.26578679257E+03  0.12499489578E+03 0.  0.
          5    1    3    3  502    0 -0.25258853692E+02  0.77873975357E+02 -0.31061684630E+02  0.87688562423E+02  0.47000000000E+01 0.  1.
         -5    1    3    3    0  502 -0.11143281921E+03  0.91054333150E+01 -0.13855218320E+03  0.17809823015E+03  0.47000000000E+01 0.  1.
        -11    1    1    2    0    0  0.41621652707E+02 -0.21674963200E+02 -0.24917058740E+02  0.53132154296E+02  0.00000000000E+00 0.  1.
         11    1    1    2    0    0  0.95070020191E+02 -0.65304445471E+02 -0.30104953783E+03  0.32238766038E+03  0.00000000000E+00 0. -1.
<mgrwt>
<rscale>  0 0.19992385E+03</rscale>
<asrwt>0</asrwt>
<pdfrwt beam="2">  1        2 0.87452851E-01 0.20463078E+03</pdfrwt>
<pdfrwt beam="1">  1       -2 0.11209703E-01 0.20463078E+03</pdfrwt>
<totfact> 0.29357422E+03</totfact>
</mgrwt>
</event>
<event>
 7    1  0.8712071E-006  0.1296858E+03  0.7546771E-02  0.1242580E+00
         -1   -1    0    0    0  501 -0.00000000000E+00  0.00000000000E+00  0.16043449866E+02  0.16043449866E+02  0.00000000000E+00 0.  1.
          1   -1    0    0  501    0  0.00000000000E+00 -0.00000000000E+00 -0.79683996025E+03  0.79683996025E+03  0.00000000000E+00 0. -1.
         23    2    1    2    0    0  0.13563947327E+02 -0.31759159052E+02 -0.42511162302E+03  0.44445282263E+03  0.12500317862E+03 0.  0.
          5    1    3    3  502    0 -0.50306840118E+02 -0.44849637772E+01 -0.10185941682E+03  0.11379070198E+03  0.47000000000E+01 0. -1.
         -5    1    3    3    0  502  0.63870787445E+02 -0.27274195275E+02 -0.32325220620E+03  0.33066212065E+03  0.47000000000E+01 0. -1.
        -11    1    1    2    0    0 -0.33797440875E+02 -0.20057808415E+02 -0.12008203252E+03  0.12634982083E+03  0.00000000000E+00 0.  1.
         11    1    1    2    0    0  0.20233493547E+02  0.51816967466E+02 -0.23560285484E+03  0.24208076666E+03  0.00000000000E+00 0. -1.
<mgrwt>
<rscale>  0 0.12031392E+03</rscale>
<asrwt>0</asrwt>
<pdfrwt beam="2">  1        1 0.12259075E+00 0.12968585E+03</pdfrwt>
<pdfrwt beam="1">  1       -1 0.24682233E-02 0.12968585E+03</pdfrwt>
<totfact> 0.11148841E+04</totfact>
</mgrwt>
</event>
<event>
 7    1  0.8712071E-006  0.1874131E+03  0.7546771E-02  0.1165869E+00
         -1   -1    0    0    0  501 -0.00000000000E+00  0.00000000000E+00  0.19011458574E+03  0.19011458574E+03  0.00000000000E+00 0.  1.
          1   -1    0    0  501    0  0.00000000000E+00 -0.00000000000E+00 -0.18615420721E+03  0.18615420721E+03  0.00000000000E+00 0. -1.
         23    2    1    2    0    0  0.83208492902E+01  0.13938690154E+03  0.65521825217E+02  0.19853660701E+03  0.12500291952E+03 0.  0.
          5    1    3    3  502    0 -0.62612593500E+00  0.12375116554E+03 -0.66321452909E+01  0.12401942734E+03  0.47000000000E+01 0. -1.
         -5    1    3    3    0  502  0.89469752252E+01  0.15635736002E+02  0.72153970507E+02  0.74517179670E+02  0.47000000000E+01 0. -1.
        -11    1    1    2    0    0  0.12337024575E+02 -0.13939132079E+03 -0.68680743363E+02  0.15588196494E+03  0.00000000000E+00 0. -1.
         11    1    1    2    0    0 -0.20657873865E+02  0.44192438979E-02  0.71192966750E+01  0.21850220990E+02  0.00000000000E+00 0.  1.
<mgrwt>
<rscale>  0 0.18201344E+03</rscale>
<asrwt>0</asrwt>
<pdfrwt beam="2">  1        1 0.28639109E-01 0.18741311E+03</pdfrwt>
<pdfrwt beam="1">  1       -1 0.29248398E-01 0.18741311E+03</pdfrwt>
<totfact> 0.16964358E+03</totfact>
</mgrwt>
</event>
<event>
 7    1  0.8712071E-006  0.1396554E+03  0.7546771E-02  0.1222137E+00
          4   -1    0    0  501    0  0.00000000000E+00  0.00000000000E+00  0.96683302672E+02  0.96683302672E+02  0.00000000000E+00 0. -1.
         -4   -1    0    0    0  501 -0.00000000000E+00 -0.00000000000E+00 -0.17437692113E+03  0.17437692113E+03  0.00000000000E+00 0.  1.
         23    2    1    2    0    0 -0.17454765800E+02  0.59780038226E+02 -0.62262121271E+02  0.15290587744E+03  0.12500125516E+03 0.  0.
          5    1    3    3  502    0  0.13595619730E+02 -0.15308025003E+02  0.25615469947E+02  0.33127312085E+02  0.47000000000E+01 0. -1.
         -5    1    3    3    0  502 -0.31050385530E+02  0.75088063229E+02 -0.87877591219E+02  0.11977856536E+03  0.47000000000E+01 0. -1.
        -11    1    1    2    0    0  0.16618728170E+02  0.24909258690E+02 -0.14929178939E+02  0.33459433323E+02  0.00000000000E+00 0.  1.
         11    1    1    2    0    0  0.83603762989E+00 -0.84689296917E+02 -0.50231825286E+00  0.84694913040E+02  0.00000000000E+00 0. -1.
<mgrwt>
<rscale>  0 0.13365087E+03</rscale>
<asrwt>0</asrwt>
<pdfrwt beam="1">  1        4 0.14874354E-01 0.13965542E+03</pdfrwt>
<pdfrwt beam="2">  1       -4 0.26827218E-01 0.13965542E+03</pdfrwt>
<totfact> 0.83520708E+02</totfact>
</mgrwt>
</event>
<event>
 7    1  0.8712071E-006  0.1441092E+03  0.7546771E-02  0.1217781E+00
          2   -1    0    0  501    0  0.00000000000E+00  0.00000000000E+00  0.53126622323E+02  0.53126622323E+02  0.00000000000E+00 0. -1.
         -2   -1    0    0    0  501 -0.00000000000E+00 -0.00000000000E+00 -0.36419631043E+03  0.36419631043E+03  0.00000000000E+00 0.  1.
         23    2    1    2    0    0  0.50735369477E+02  0.50666882734E+02 -0.24185391258E+03  0.28153289662E+03  0.12500498440E+03 0.  0.
          5    1    3    3  502    0 -0.17317525013E+02  0.21226260155E+02  0.75257525756E+00  0.27804804661E+02  0.47000000000E+01 0.  1.
         -5    1    3    3    0  502  0.68052894490E+02  0.29440622579E+02 -0.24260648784E+03  0.25372809196E+03  0.47000000000E+01 0.  1.
        -11    1    1    2    0    0 -0.50884494188E+02 -0.89153026522E+01  0.36730878342E+01  0.51790017806E+02  0.00000000000E+00 0. -1.
         11    1    1    2    0    0  0.14912471098E+00 -0.41751580082E+02 -0.72888863358E+02  0.84000018328E+02  0.00000000000E+00 0.  1.
<mgrwt>
<rscale>  0 0.13674228E+03</rscale>
<asrwt>0</asrwt>
<pdfrwt beam="1">  1        2 0.81733270E-02 0.14410918E+03</pdfrwt>
<pdfrwt beam="2">  1       -2 0.56030199E-01 0.14410918E+03</pdfrwt>
<totfact> 0.24331668E+03</totfact>
</mgrwt>
</event>
<event>
 7    1  0.8712071E-006  0.1740457E+03  0.7546771E-02  0.1179991E+00
         -1   -1    0    0    0  501 -0.00000000000E+00  0.00000000000E+00  0.25877390572E+02  0.25877390572E+02  0.00000000000E+00 0.  1.
          1   -1    0    0  501    0  0.00000000000E+00 -0.00000000000E+00 -0.10256806405E+04  0.10256806405E+04  0.00000000000E+00 0. -1.
         23    2    1    2    0    0  0.96459598130E+02 -0.73232525615E+02 -0.57272494937E+03  0.59858647209E+03  0.12499776021E+03 0.  0.
          5    1    3    3  502    0  0.21033361569E+02 -0.25369870720E+02 -0.20351857279E+02  0.39016928812E+02  0.47000000000E+01 0. -1.
         -5    1    3    3    0  502  0.75426236561E+02 -0.47862654895E+02 -0.55237309209E+03  0.55956954328E+03  0.47000000000E+01 0. -1.
        -11    1    1    2    0    0 -0.92718683729E+02  0.38900839414E+02 -0.38801561350E+03  0.40083181752E+03  0.00000000000E+00 0. -1.
         11    1    1    2    0    0 -0.37409144011E+01  0.34331686201E+02 -0.39062687006E+02  0.52139741408E+02  0.00000000000E+00 0.  1.
<mgrwt>
<rscale>  0 0.16796128E+03</rscale>
<asrwt>0</asrwt>
<pdfrwt beam="2">  1        1 0.15779704E+00 0.17404567E+03</pdfrwt>
<pdfrwt beam="1">  1       -1 0.39811366E-02 0.17404567E+03</pdfrwt>
<totfact> 0.37459615E+03</totfact>
</mgrwt>
</event>
<event>
 7    1  0.8712071E-006  0.1259787E+03  0.7546771E-02  0.1248523E+00
          1   -1    0    0  501    0  0.00000000000E+00  0.00000000000E+00  0.21355514093E+03  0.21355514093E+03  0.00000000000E+00 0. -1.
         -1   -1    0    0    0  501 -0.00000000000E+00 -0.00000000000E+00 -0.56348269209E+02  0.56348269209E+02  0.00000000000E+00 0.  1.
         23    2    1    2    0    0  0.96308956399E+01  0.12381639535E+02  0.82080013030E+02  0.15035875881E+03  0.12499827464E+03 0.  0.
          5    1    3    3  502    0 -0.48300006302E+02  0.27201770421E+02  0.69585658431E+02  0.89090295667E+02  0.47000000000E+01 0. -1.
         -5    1    3    3    0  502  0.57930901942E+02 -0.14820130885E+02  0.12494354599E+02  0.61268463144E+02  0.47000000000E+01 0. -1.
        -11    1    1    2    0    0 -0.37328680973E+02  0.22893264576E+02  0.19089924654E+02  0.47769835769E+02  0.00000000000E+00 0.  1.
         11    1    1    2    0    0  0.27697785333E+02 -0.35274904111E+02  0.56036934041E+02  0.71774815563E+02  0.00000000000E+00 0. -1.
<mgrwt>
<rscale>  0 0.11676971E+03</rscale>
<asrwt>0</asrwt>
<pdfrwt beam="1">  1        1 0.32854637E-01 0.12597868E+03</pdfrwt>
<pdfrwt beam="2">  1       -1 0.86689646E-02 0.12597868E+03</pdfrwt>
<totfact> 0.96284959E+03</totfact>
</mgrwt>
</event>
<event>
 7    1  0.8712071E-006  0.1301978E+03  0.7546771E-02  0.1236807E+00
         -1   -1    0    0    0  501 -0.00000000000E+00  0.00000000000E+00  0.40812444360E+02  0.40812444360E+02  0.00000000000E+00 0.  1.
          1   -1    0    0  501    0  0.00000000000E+00 -0.00000000000E+00 -0.37252991131E+03  0.37252991131E+03  0.00000000000E+00 0. -1.
         23    2    1    2    0    0 -0.35604729225E+02  0.46708778249E+02 -0.12400927866E+03  0.17980482959E+03  0.11619840292E+03 0.  0.
          5    1    3    3  502    0  0.23696162868E+02  0.62751158374E+02 -0.51779846641E+02  0.84867299534E+02  0.47000000000E+01 0. -1.
         -5    1    3    3    0  502 -0.59300892093E+02 -0.16042380125E+02 -0.72229432017E+02  0.94937530053E+02  0.47000000000E+01 0.  1.
        -11    1    1    2    0    0  0.19481698548E+02 -0.47162286914E+02 -0.21099413059E+03  0.21707680906E+03  0.00000000000E+00 0.  1.
         11    1    1    2    0    0  0.16123030677E+02  0.45350866491E+00  0.32859422994E+01  0.16460717029E+02  0.00000000000E+00 0. -1.
<mgrwt>
<rscale>  0 0.12389450E+03</rscale>
<asrwt>0</asrwt>
<pdfrwt beam="2">  1        1 0.57312291E-01 0.13019783E+03</pdfrwt>
<pdfrwt beam="1">  1       -1 0.62788379E-02 0.13019783E+03</pdfrwt>
<totfact> 0.78669028E+03</totfact>
</mgrwt>
</event>
<event>
 7    1  0.8712071E-006  0.1635991E+03  0.7546771E-02  0.1191522E+00
         -1   -1    0    0    0  501 -0.00000000000E+00  0.00000000000E+00  0.48882154012E+03  0.48882154012E+03  0.00000000000E+00 0.  1.
          1   -1    0    0  501    0  0.00000000000E+00 -0.00000000000E+00 -0.47331833702E+02  0.47331833702E+02  0.00000000000E+00 0. -1.
         23    2    1    2    0    0 -0.64964888347E+02  0.83178242793E+02  0.23856876852E+03  0.28927448617E+03  0.12500245695E+03 0.  0.
          5    1    3    3  502    0 -0.87903014993E+02  0.10067620599E+03  0.18539142680E+03  0.22859289059E+03  0.47000000000E+01 0. -1.
         -5    1    3    3    0  502  0.22938126646E+02 -0.17497963194E+02  0.53177341719E+02  0.60681595581E+02  0.47000000000E+01 0. -1.
        -11    1    1    2    0    0  0.29001929225E+02 -0.49026124556E+02  0.25056667917E+02  0.62229489752E+02  0.00000000000E+00 0. -1.
         11    1    1    2    0    0  0.35962959122E+02 -0.34152118237E+02  0.17786426997E+03  0.18464939789E+03  0.00000000000E+00 0.  1.
<mgrwt>
<rscale>  0 0.15752258E+03</rscale>
<asrwt>0</asrwt>
<pdfrwt beam="2">  1        1 0.72818209E-02 0.16359912E+03</pdfrwt>
<pdfrwt beam="1">  1       -1 0.75203310E-01 0.16359912E+03</pdfrwt>
<totfact> 0.17989371E+03</totfact>
</mgrwt>
</event>
<event>
 7    1  0.8712071E-006  0.1646556E+03  0.7546771E-02  0.1189269E+00
         -2   -1    0    0    0  501 -0.00000000000E+00  0.00000000000E+00  0.14268375688E+04  0.14268375688E+04  0.00000000000E+00 0.  1.
          2   -1    0    0  501    0  0.00000000000E+00 -0.00000000000E+00 -0.26903125462E+02  0.26903125462E+02  0.00000000000E+00 0. -1.
         23    2    1    2    0    0  0.42235028382E+02  0.98503173944E+02  0.11727218290E+04  0.11842246193E+04  0.12499915126E+03 0.  0.
          5    1    3    3  502    0 -0.35325250438E+02  0.19652980001E+02  0.56781428221E+03  0.56927081607E+03  0.47000000000E+01 0.  1.
         -5    1    3    3    0  502  0.77560278820E+02  0.78850193943E+02  0.60490754680E+03  0.61495380324E+03  0.47000000000E+01 0.  1.
        -11    1    1    2    0    0 -0.17640436381E+02  0.66310262947E+01  0.10183976080E+01  0.18873066501E+02  0.00000000000E+00 0. -1.
         11    1    1    2    0    0 -0.24594592001E+02 -0.10513420024E+03  0.22619421675E+03  0.25064300849E+03  0.00000000000E+00 0.  1.
<mgrwt>
<rscale>  0 0.15949396E+03</rscale>
<asrwt>0</asrwt>
<pdfrwt beam="2">  1        2 0.41389435E-02 0.16465558E+03</pdfrwt>
<pdfrwt beam="1">  1       -2 0.21951341E+00 0.16465558E+03</pdfrwt>
<totfact> 0.21991106E+02</totfact>
</mgrwt>
</event>
<event>
 7    1  0.8712071E-006  0.1770728E+03  0.7546771E-02  0.1172403E+00
          2   -1    0    0  501    0  0.00000000000E+00  0.00000000000E+00  0.26393078509E+03  0.26393078509E+03  0.00000000000E+00 0. -1.
         -2   -1    0    0    0  501 -0.00000000000E+00 -0.00000000000E+00 -0.15977307396E+03  0.15977307396E+03  0.00000000000E+00 0.  1.
         23    2    1    2    0    0  0.10850433515E+03  0.62884834755E+02 -0.60276840280E+02  0.18705101391E+03  0.12500836429E+03 0.  0.
          5    1    3    3  502    0  0.17252644245E+02 -0.82295533597E+01  0.32961406268E+02  0.38391712454E+02  0.47000000000E+01 0. -1.
         -5    1    3    3    0  502  0.91251690902E+02  0.71114388115E+02 -0.93238246548E+02  0.14865930145E+03  0.47000000000E+01 0. -1.
        -11    1    1    2    0    0 -0.48906471120E+02 -0.28794653664E+02 -0.18159543247E+01  0.56782679464E+02  0.00000000000E+00 0.  1.
         11    1    1    2    0    0 -0.59597864027E+02 -0.34090181092E+02  0.16625050573E+03  0.17987016568E+03  0.00000000000E+00 0. -1.
<mgrwt>
<rscale>  0 0.17532737E+03</rscale>
<asrwt>0</asrwt>
<pdfrwt beam="1">  1        2 0.40604736E-01 0.17707282E+03</pdfrwt>
<pdfrwt beam="2">  1       -2 0.24580473E-01 0.17707282E+03</pdfrwt>
<totfact> 0.18163527E+03</totfact>
</mgrwt>
</event>
<event>
 7    1  0.8712071E-006  0.1388939E+03  0.7546771E-02  0.1225926E+00
          2   -1    0    0  501    0  0.00000000000E+00  0.00000000000E+00  0.15965433874E+03  0.15965433874E+03  0.00000000000E+00 0. -1.
         -2   -1    0    0    0  501 -0.00000000000E+00 -0.00000000000E+00 -0.11053915175E+03  0.11053915175E+03  0.00000000000E+00 0.  1.
         23    2    1    2    0    0  0.26812955191E+02  0.54280154052E+02 -0.19893309751E+02  0.14031125495E+03  0.12500493911E+03 0.  0.
          5    1    3    3  502    0 -0.25430850116E+02 -0.12109396197E+02 -0.43890706973E+02  0.52362675376E+02  0.47000000000E+01 0.  1.
         -5    1    3    3    0  502  0.52243805307E+02  0.66389550249E+02  0.23997397222E+02  0.87948579572E+02  0.47000000000E+01 0.  1.
        -11    1    1    2    0    0  0.14593523721E+02  0.35701525914E+01  0.55463718246E+02  0.57462517921E+02  0.00000000000E+00 0. -1.
         11    1    1    2    0    0 -0.41406478912E+02 -0.57850306643E+02  0.13544778496E+02  0.72419717613E+02  0.00000000000E+00 0.  1.
<mgrwt>
<rscale>  0 0.13103667E+03</rscale>
<asrwt>0</asrwt>
<pdfrwt beam="1">  1        2 0.24562206E-01 0.13889386E+03</pdfrwt>
<pdfrwt beam="2">  1       -2 0.17006023E-01 0.13889386E+03</pdfrwt>
<totfact> 0.58023208E+03</totfact>
</mgrwt>
</event>
<event>
 7    1  0.8712071E-006  0.1183159E+03  0.7546771E-02  0.1260067E+00
          1   -1    0    0  501    0  0.00000000000E+00  0.00000000000E+00  0.61909198384E+01  0.61909198384E+01  0.00000000000E+00 0. -1.
         -1   -1    0    0    0  501 -0.00000000000E+00 -0.00000000000E+00 -0.22778178434E+04  0.22778178434E+04  0.00000000000E+00 0.  1.
         23    2    1    2    0    0 -0.38280721242E+02 -0.65217549114E+01 -0.18078526512E+04  0.18117201373E+04  0.11176180289E+03 0.  0.
          5    1    3    3  502    0  0.27220316754E+02  0.31836458934E+02 -0.60696213101E+03  0.60842388533E+03  0.47000000000E+01 0. -1.
         -5    1    3    3    0  502 -0.65501037995E+02 -0.38358213845E+02 -0.12008905202E+04  0.12032962520E+04  0.47000000000E+01 0.  1.
        -11    1    1    2    0    0  0.16593357073E+02  0.43272941281E+02 -0.25926447885E+03  0.26337417668E+03  0.00000000000E+00 0.  1.
         11    1    1    2    0    0  0.21687364169E+02 -0.36751186370E+02 -0.20450979356E+03  0.20891444930E+03  0.00000000000E+00 0. -1.
<mgrwt>
<rscale>  0 0.11027178E+03</rscale>
<asrwt>0</asrwt>
<pdfrwt beam="1">  1        1 0.95244686E-03 0.11831588E+03</pdfrwt>
<pdfrwt beam="2">  1       -1 0.35043438E+00 0.11831588E+03</pdfrwt>
<totfact> 0.32212092E+02</totfact>
</mgrwt>
</event>
<event>
 7    1  0.8712071E-006  0.1429227E+03  0.7546771E-02  0.1233590E+00
          1   -1    0    0  501    0  0.00000000000E+00  0.00000000000E+00  0.30523477006E+02  0.30523477006E+02  0.00000000000E+00 0. -1.
         -1   -1    0    0    0  501 -0.00000000000E+00 -0.00000000000E+00 -0.47550851571E+03  0.47550851571E+03  0.00000000000E+00 0.  1.
         23    2    1    2    0    0  0.20830933478E+02 -0.66067999702E+02 -0.34839785228E+03  0.37657397107E+03  0.12501193477E+03 0.  0.
          5    1    3    3  502    0  0.47522792648E+02 -0.44530159380E+02 -0.33183407051E+03  0.33819711895E+03  0.47000000000E+01 0.  1.
         -5    1    3    3    0  502 -0.26691859170E+02 -0.21537840322E+02 -0.16563781772E+02  0.38376852115E+02  0.47000000000E+01 0.  1.
        -11    1    1    2    0    0 -0.33473448979E+02  0.40053184743E+02 -0.81637291112E+02  0.96898796146E+02  0.00000000000E+00 0.  1.
         11    1    1    2    0    0  0.12642515500E+02  0.26014814959E+02 -0.14949895308E+02  0.32559225501E+02  0.00000000000E+00 0. -1.
<mgrwt>
<rscale>  0 0.12595100E+03</rscale>
<asrwt>0</asrwt>
<pdfrwt beam="1">  1        1 0.46959197E-02 0.14292268E+03</pdfrwt>
<pdfrwt beam="2">  1       -1 0.73155154E-01 0.14292268E+03</pdfrwt>
<totfact> 0.34357636E+03</totfact>
</mgrwt>
</event>
<event>
 7    1  0.8712071E-006  0.1265607E+03  0.7546771E-02  0.1247161E+00
          2   -1    0    0  501    0  0.00000000000E+00  0.00000000000E+00  0.78361820093E+03  0.78361820093E+03  0.00000000000E+00 0.  1.
         -2   -1    0    0    0  501 -0.00000000000E+00 -0.00000000000E+00 -0.15826206915E+02  0.15826206915E+02  0.00000000000E+00 0. -1.
         23    2    1    2    0    0 -0.18700071728E+02 -0.64433457815E+01  0.38736046637E+03  0.40751163110E+03  0.12500555662E+03 0.  0.
          5    1    3    3  502    0  0.31578721637E+01  0.82759330414E+01 -0.70092710412E+01  0.12234504683E+02  0.47000000000E+01 0.  1.
         -5    1    3    3    0  502 -0.21857943892E+02 -0.14719278823E+02  0.39436973741E+03  0.39527712642E+03  0.47000000000E+01 0.  1.
        -11    1    1    2    0    0  0.53509574437E+02  0.16273611000E+02  0.26987696346E+03  0.27561146634E+03  0.00000000000E+00 0.  1.
         11    1    1    2    0    0 -0.34809502708E+02 -0.98302652185E+01  0.11055456418E+03  0.11632131040E+03  0.00000000000E+00 0. -1.
<mgrwt>
<rscale>  0 0.11756957E+03</rscale>
<asrwt>0</asrwt>
<pdfrwt beam="1">  1        2 0.12055662E+00 0.12656065E+03</pdfrwt>
<pdfrwt beam="2">  1       -2 0.24348017E-02 0.12656065E+03</pdfrwt>
<totfact> 0.19855285E+04</totfact>
</mgrwt>
</event>
<event>
 7    1  0.8712071E-006  0.1287161E+03  0.7546771E-02  0.1242162E+00
          2   -1    0    0  501    0  0.00000000000E+00  0.00000000000E+00  0.40905600380E+02  0.40905600380E+02  0.00000000000E+00 0.  1.
         -2   -1    0    0    0  501 -0.00000000000E+00 -0.00000000000E+00 -0.54515988247E+03  0.54515988247E+03  0.00000000000E+00 0. -1.
         23    2    1    2    0    0 -0.97176243823E+01 -0.29142910431E+02 -0.45976671220E+03  0.47744451501E+03  0.12499637521E+03 0.  0.
          5    1    3    3  502    0 -0.18479316824E+02  0.47581981886E+02 -0.17458274121E+03  0.18195261383E+03  0.47000000000E+01 0. -1.
         -5    1    3    3    0  502  0.87616924412E+01 -0.76724892317E+02 -0.28518397098E+03  0.29549190118E+03  0.47000000000E+01 0. -1.
        -11    1    1    2    0    0 -0.38070389371E+02 -0.74223432754E+01 -0.20198519536E+02  0.43731292206E+02  0.00000000000E+00 0. -1.
         11    1    1    2    0    0  0.47788013753E+02  0.36565253707E+02 -0.24289050359E+02  0.64889675638E+02  0.00000000000E+00 0.  1.
<mgrwt>
<rscale>  0 0.12056885E+03</rscale>
<asrwt>0</asrwt>
<pdfrwt beam="1">  1        2 0.62931699E-02 0.12871610E+03</pdfrwt>
<pdfrwt beam="2">  1       -2 0.83870743E-01 0.12871610E+03</pdfrwt>
<totfact> 0.14349679E+03</totfact>
</mgrwt>
</event>
<event>
 6    1  0.8712071E-006  0.4646348E+03  0.7546771E-02  0.1023446E+00
         -1   -1    0    0    0  501 -0.00000000000E+00  0.00000000000E+00  0.90683528215E+02  0.90683528215E+02  0.00000000000E+00 0.  1.
          1   -1    0    0  501    0  0.00000000000E+00 -0.00000000000E+00 -0.59516187549E+03  0.59516187549E+03  0.00000000000E+00 0. -1.
          5    1    1    2  502    0 -0.92830318018E+02  0.16184223604E+02 -0.93571498430E+02  0.13288006756E+03  0.47000000000E+01 0. -1.
         -5    1    1    2    0  502  0.32759931132E+01 -0.65074694477E+01  0.62250042040E+02  0.62850911079E+02  0.47000000000E+01 0.  1.
        -11    1    1    2    0    0  0.19210338397E+02  0.37895634865E+02 -0.13998984156E+03  0.14629515366E+03  0.00000000000E+00 0.  1.
         11    1    1    2    0    0  0.70343986508E+02 -0.47572389021E+02 -0.33316704932E+03  0.34381927141E+03  0.00000000000E+00 0. -1.
<mgrwt>
<rscale>  0 0.46463482E+03</rscale>
<asrwt>0</asrwt>
<pdfrwt beam="2">  1        1 0.91563367E-01 0.46463482E+03</pdfrwt>
<pdfrwt beam="1">  1       -1 0.13951312E-01 0.46463482E+03</pdfrwt>
<totfact> 0.12860223E+03</totfact>
</mgrwt>
</event>
<event>
 7    1  0.8712071E-006  0.1282004E+03  0.7546771E-02  0.1244146E+00
          1   -1    0    0  501    0  0.00000000000E+00  0.00000000000E+00  0.22305041405E+03  0.22305041405E+03  0.00000000000E+00 0. -1.
         -1   -1    0    0    0  501 -0.00000000000E+00 -0.00000000000E+00 -0.56717979150E+02  0.56717979150E+02  0.00000000000E+00 0.  1.
         23    2    1    2    0    0 -0.27314227955E+02  0.79475116837E+01  0.86666038129E+02  0.15474610402E+03  0.12500449814E+03 0.  0.
          5    1    3    3  502    0  0.22712594910E+02  0.13446705896E+02 -0.22141412251E+02  0.34770792391E+02  0.47000000000E+01 0. -1.
         -5    1    3    3    0  502 -0.50026822865E+02 -0.54991942121E+01  0.10880745038E+03  0.11997531163E+03  0.47000000000E+01 0. -1.
        -11    1    1    2    0    0  0.33508987541E+01  0.21498455700E+02 -0.12675360677E+02  0.25180883388E+02  0.00000000000E+00 0.  1.
         11    1    1    2    0    0  0.23963329201E+02 -0.29445967383E+02  0.92341757447E+02  0.99841405789E+02  0.00000000000E+00 0. -1.
<mgrwt>
<rscale>  0 0.11936668E+03</rscale>
<asrwt>0</asrwt>
<pdfrwt beam="1">  1        1 0.34315448E-01 0.12820045E+03</pdfrwt>
<pdfrwt beam="2">  1       -1 0.87258431E-02 0.12820045E+03</pdfrwt>
<totfact> 0.90467301E+03</totfact>
</mgrwt>
</event>
<event>
 7    1  0.8712071E-006  0.1424411E+03  0.7546771E-02  0.1221022E+00
          2   -1    0    0  501    0  0.00000000000E+00  0.00000000000E+00  0.30583974076E+03  0.30583974076E+03  0.00000000000E+00 0.  1.
         -2   -1    0    0    0  501 -0.00000000000E+00 -0.00000000000E+00 -0.72512466864E+02  0.72512466864E+02  0.00000000000E+00 0. -1.
         23    2    1    2    0    0  0.69214290411E+01  0.67940682980E+02  0.29756847593E+02  0.14551606000E+03  0.12500244460E+03 0.  0.
          5    1    3    3  502    0 -0.52594261822E+02  0.62905874095E+02  0.11825368819E+02  0.82977314490E+02  0.47000000000E+01 0. -1.
         -5    1    3    3    0  502  0.59515690863E+02  0.50348088844E+01  0.17931478775E+02  0.62538745514E+02  0.47000000000E+01 0. -1.
        -11    1    1    2    0    0  0.24716899187E+02 -0.42418291375E+02  0.17838378023E+03  0.18501624145E+03  0.00000000000E+00 0.  1.
         11    1    1    2    0    0 -0.31638328229E+02 -0.25522391604E+02  0.25186646070E+02  0.47819906175E+02  0.00000000000E+00 0. -1.
<mgrwt>
<rscale>  0 0.13443356E+03</rscale>
<asrwt>0</asrwt>
<pdfrwt beam="1">  1        2 0.47052267E-01 0.14244105E+03</pdfrwt>
<pdfrwt beam="2">  1       -2 0.11155764E-01 0.14244105E+03</pdfrwt>
<totfact> 0.57156806E+03</totfact>
</mgrwt>
</event>
<event>
 7    1  0.8712071E-006  0.1439905E+03  0.7546771E-02  0.1219244E+00
         -2   -1    0    0    0  501 -0.00000000000E+00  0.00000000000E+00  0.18591446606E+02  0.18591446606E+02  0.00000000000E+00 0.  1.
          2   -1    0    0  501    0  0.00000000000E+00 -0.00000000000E+00 -0.93430061240E+03  0.93430061240E+03  0.00000000000E+00 0. -1.
         23    2    1    2    0    0  0.52797767751E+02 -0.48079724144E+02 -0.40879117760E+03  0.43340913789E+03  0.12503595388E+03 0.  0.
          5    1    3    3  502    0 -0.23010563652E+02  0.16747387364E+02 -0.19882802883E+03  0.20090952210E+03  0.47000000000E+01 0.  1.
         -5    1    3    3    0  502  0.75808331402E+02 -0.64827111508E+02 -0.20996314878E+03  0.23249961579E+03  0.47000000000E+01 0.  1.
        -11    1    1    2    0    0 -0.73063789002E+02  0.16813223210E+02 -0.37403281956E+03  0.38147287170E+03  0.00000000000E+00 0. -1.
         11    1    1    2    0    0  0.20266021252E+02  0.31266500933E+02 -0.13288516863E+03  0.13801004941E+03  0.00000000000E+00 0.  1.
<mgrwt>
<rscale>  0 0.13569378E+03</rscale>
<asrwt>0</asrwt>
<pdfrwt beam="2">  1        2 0.14373858E+00 0.14399046E+03</pdfrwt>
<pdfrwt beam="1">  1       -2 0.28602221E-02 0.14399046E+03</pdfrwt>
<totfact> 0.12642186E+04</totfact>
</mgrwt>
</event>
<event>
 7    1  0.8712071E-006  0.2952682E+03  0.7546771E-02  0.1089241E+00
         -2   -1    0    0    0  501 -0.00000000000E+00  0.00000000000E+00  0.64436864701E+02  0.64436864701E+02  0.00000000000E+00 0.  1.
          2   -1    0    0  501    0  0.00000000000E+00 -0.00000000000E+00 -0.13187399613E+04  0.13187399613E+04  0.00000000000E+00 0. -1.
         23    2    1    2    0    0  0.25412904374E+03  0.83527331268E+02 -0.55162742178E+03  0.62568053113E+03  0.12499971454E+03 0.  0.
          5    1    3    3  502    0  0.92073579148E+02 -0.17430299390E+02 -0.26617665327E+03  0.28222944577E+03  0.47000000000E+01 0.  1.
         -5    1    3    3    0  502  0.16205546459E+03  0.10095763066E+03 -0.28545076851E+03  0.34345108536E+03  0.47000000000E+01 0.  1.
        -11    1    1    2    0    0 -0.40263672941E+02 -0.40965484267E+02 -0.86142601160E+02  0.10353686297E+03  0.00000000000E+00 0.  1.
         11    1    1    2    0    0 -0.21386537080E+03 -0.42561847001E+02 -0.61653307361E+03  0.65395943185E+03  0.00000000000E+00 0. -1.
<mgrwt>
<rscale>  0 0.29213326E+03</rscale>
<asrwt>0</asrwt>
<pdfrwt beam="2">  1        2 0.20288308E+00 0.29526821E+03</pdfrwt>
<pdfrwt beam="1">  1       -2 0.99133633E-02 0.29526821E+03</pdfrwt>
<totfact> 0.11528210E+03</totfact>
</mgrwt>
</event>
<event>
 7    1  0.8712071E-006  0.1327942E+03  0.7546771E-02  0.1236175E+00
          1   -1    0    0  501    0  0.00000000000E+00  0.00000000000E+00  0.55676860110E+02  0.55676860110E+02  0.00000000000E+00 0. -1.
         -1   -1    0    0    0  501 -0.00000000000E+00 -0.00000000000E+00 -0.27150080631E+03  0.27150080631E+03  0.00000000000E+00 0.  1.
         23    2    1    2    0    0 -0.78323819699E+01 -0.44135131679E+02 -0.16921866827E+03  0.21510288978E+03  0.12500015778E+03 0.  0.
          5    1    3    3  502    0 -0.23068717939E+02 -0.76987900633E+02 -0.61344463551E+02  0.10121529430E+03  0.47000000000E+01 0. -1.
         -5    1    3    3    0  502  0.15236335969E+02  0.32852768954E+02 -0.10787420472E+03  0.11388759549E+03  0.47000000000E+01 0. -1.
        -11    1    1    2    0    0  0.47158072137E+02  0.14580193379E+02 -0.37631890146E+02  0.62069517177E+02  0.00000000000E+00 0. -1.
         11    1    1    2    0    0 -0.39325690167E+02  0.29554938300E+02 -0.89733877790E+01  0.50005259456E+02  0.00000000000E+00 0.  1.
<mgrwt>
<rscale>  0 0.12429523E+03</rscale>
<asrwt>0</asrwt>
<pdfrwt beam="1">  1        1 0.85656709E-02 0.13279418E+03</pdfrwt>
<pdfrwt beam="2">  1       -1 0.41769354E-01 0.13279418E+03</pdfrwt>
<totfact> 0.43222906E+03</totfact>
</mgrwt>
</event>
<event>
 7    1  0.8712071E-006  0.1265037E+03  0.7546771E-02  0.1248744E+00
         -2   -1    0    0    0  501 -0.00000000000E+00  0.00000000000E+00  0.43494250554E+02  0.43494250554E+02  0.00000000000E+00 0.  1.
          2   -1    0    0  501    0  0.00000000000E+00 -0.00000000000E+00 -0.32576133972E+03  0.32576133972E+03  0.00000000000E+00 0. -1.
         23    2    1    2    0    0  0.31589638189E+01 -0.19157695020E+02 -0.86673677711E+02  0.15334766934E+03  0.12500473972E+03 0.  0.
          5    1    3    3  502    0  0.12943313438E+02 -0.65745772969E+02 -0.17798682405E+02  0.69490424674E+02  0.47000000000E+01 0. -1.
         -5    1    3    3    0  502 -0.97843496188E+01  0.46588077949E+02 -0.68874995306E+02  0.83857244665E+02  0.47000000000E+01 0. -1.
        -11    1    1    2    0    0 -0.42276874776E+02  0.28658831178E+02 -0.10435199122E+03  0.11618089695E+03  0.00000000000E+00 0.  1.
         11    1    1    2    0    0  0.39117910957E+02 -0.95011361578E+01 -0.91241420237E+02  0.99727023984E+02  0.00000000000E+00 0. -1.
<mgrwt>
<rscale>  0 0.11664055E+03</rscale>
<asrwt>0</asrwt>
<pdfrwt beam="2">  1        2 0.50117130E-01 0.12650368E+03</pdfrwt>
<pdfrwt beam="1">  1       -2 0.66914231E-02 0.12650368E+03</pdfrwt>
<totfact> 0.11731228E+04</totfact>
</mgrwt>
</event>
<event>
 7    1  0.8712071E-006  0.1866016E+03  0.7546771E-02  0.1166311E+00
         -1   -1    0    0    0  501 -0.00000000000E+00  0.00000000000E+00  0.30388336697E+03  0.30388336697E+03  0.00000000000E+00 0.  1.
          1   -1    0    0  501    0  0.00000000000E+00 -0.00000000000E+00 -0.10896861658E+03  0.10896861658E+03  0.00000000000E+00 0. -1.
         23    2    1    2    0    0 -0.10265889096E+03 -0.93028149844E+02  0.15082250448E+03  0.23993244353E+03  0.12500825990E+03 0.  0.
          5    1    3    3  502    0 -0.27741482689E+02 -0.77974113291E+02  0.15322494487E+02  0.84299590999E+02  0.47000000000E+01 0. -1.
         -5    1    3    3    0  502 -0.74917408269E+02 -0.15054036553E+02  0.13550000999E+03  0.15563285253E+03  0.47000000000E+01 0. -1.
        -11    1    1    2    0    0  0.78509545633E+02  0.54335109571E+02  0.71880097342E+02  0.11951067434E+03  0.00000000000E+00 0.  1.
         11    1    1    2    0    0  0.24149345325E+02  0.38693040274E+02 -0.27787851432E+02  0.53408865673E+02  0.00000000000E+00 0. -1.
<mgrwt>
<rscale>  0 0.18155068E+03</rscale>
<asrwt>0</asrwt>
<pdfrwt beam="2">  1        1 0.16764403E-01 0.18660158E+03</pdfrwt>
<pdfrwt beam="1">  1       -1 0.46751287E-01 0.18660158E+03</pdfrwt>
<totfact> 0.14809679E+03</totfact>
</mgrwt>
</event>
<event>
 7    1  0.8712071E-006  0.1534598E+03  0.7546771E-02  0.1204530E+00
         -2   -1    0    0    0  501 -0.00000000000E+00  0.00000000000E+00  0.38362129745E+02  0.38362129745E+02  0.00000000000E+00 0.  1.
          2   -1    0    0  501    0  0.00000000000E+00 -0.00000000000E+00 -0.54379631630E+03  0.54379631630E+03  0.00000000000E+00 0. -1.
         23    2    1    2    0    0 -0.91967822237E+00  0.89019410553E+02 -0.21030603515E+03  0.26034313205E+03  0.12499846689E+03 0.  0.
          5    1    3    3  502    0  0.34588807288E+02  0.86274042267E+02 -0.72620433034E+02  0.11804835133E+03  0.47000000000E+01 0. -1.
         -5    1    3    3    0  502 -0.35508485510E+02  0.27453682857E+01 -0.13768560211E+03  0.14229478072E+03  0.47000000000E+01 0. -1.
        -11    1    1    2    0    0 -0.44725836600E+02 -0.35006472910E+02 -0.14949173375E+03  0.15991757898E+03  0.00000000000E+00 0.  1.
         11    1    1    2    0    0  0.45645514822E+02 -0.54012937642E+02 -0.14563641765E+03  0.16189773502E+03  0.00000000000E+00 0. -1.
<mgrwt>
<rscale>  0 0.14674540E+03</rscale>
<asrwt>0</asrwt>
<pdfrwt beam="2">  1        2 0.83660970E-01 0.15345983E+03</pdfrwt>
<pdfrwt beam="1">  1       -2 0.59018663E-02 0.15345983E+03</pdfrwt>
<totfact> 0.82780689E+03</totfact>
</mgrwt>
</event>
<event>
 7    1  0.8712071E-006  0.1265382E+03  0.7546771E-02  0.1248785E+00
          2   -1    0    0  501    0  0.00000000000E+00  0.00000000000E+00  0.39884794737E+02  0.39884794737E+02  0.00000000000E+00 0. -1.
         -2   -1    0    0    0  501 -0.00000000000E+00 -0.00000000000E+00 -0.30037987151E+03  0.30037987151E+03  0.00000000000E+00 0.  1.
         23    2    1    2    0    0 -0.11435710411E+02  0.16002520011E+02 -0.16787961520E+03  0.21022722686E+03  0.12500026238E+03 0.  0.
          5    1    3    3  502    0 -0.19023572380E+02 -0.49887919905E+02 -0.10877515494E+03  0.12126345365E+03  0.47000000000E+01 0.  1.
         -5    1    3    3    0  502  0.75878619693E+01  0.65890439917E+02 -0.59104460258E+02  0.88963773212E+02  0.47000000000E+01 0.  1.
        -11    1    1    2    0    0  0.38092130057E+02 -0.37642745076E+02 -0.72862185087E+02  0.90426128109E+02  0.00000000000E+00 0.  1.
         11    1    1    2    0    0 -0.26656419646E+02  0.21640225065E+02 -0.19753276491E+02  0.39611311280E+02  0.00000000000E+00 0. -1.
<mgrwt>
<rscale>  0 0.11661668E+03</rscale>
<asrwt>0</asrwt>
<pdfrwt beam="1">  1        2 0.61361221E-02 0.12653822E+03</pdfrwt>
<pdfrwt beam="2">  1       -2 0.46212289E-01 0.12653822E+03</pdfrwt>
<totfact> 0.50868871E+03</totfact>
</mgrwt>
</event>
<event>
 7    1  0.8712071E-006  0.3494933E+03  0.7546771E-02  0.1063860E+00
         -2   -1    0    0    0  501 -0.00000000000E+00  0.00000000000E+00  0.77954428572E+02  0.77954428572E+02  0.00000000000E+00 0.  1.
          2   -1    0    0  501    0  0.00000000000E+00 -0.00000000000E+00 -0.16425115329E+04  0.16425115329E+04  0.00000000000E+00 0. -1.
         23    2    1    2    0    0 -0.94225736177E+02  0.31247928147E+03 -0.56040405270E+03  0.66045310174E+03  0.12499522633E+03 0.  0.
          5    1    3    3  502    0 -0.38607090540E+02  0.20774000146E+02 -0.13199273539E+03  0.13916263406E+03  0.47000000000E+01 0.  1.
         -5    1    3    3    0  502 -0.55618645637E+02  0.29170528132E+03 -0.42841131731E+03  0.52129046768E+03  0.47000000000E+01 0.  1.
        -11    1    1    2    0    0  0.68382203042E+02 -0.78497612416E+02 -0.31668773562E+03  0.33336034969E+03  0.00000000000E+00 0.  1.
         11    1    1    2    0    0  0.25843533135E+02 -0.23398166905E+03 -0.68746531602E+03  0.72665251006E+03  0.00000000000E+00 0. -1.
<mgrwt>
<rscale>  0 0.34698419E+03</rscale>
<asrwt>0</asrwt>
<pdfrwt beam="2">  1        2 0.25269407E+00 0.34949334E+03</pdfrwt>
<pdfrwt beam="1">  1       -2 0.11992990E-01 0.34949334E+03</pdfrwt>
<totfact> 0.56319268E+02</totfact>
</mgrwt>
</event>
<event>
 7    1  0.8712071E-006  0.1532107E+03  0.7546771E-02  0.1204810E+00
         -3   -1    0    0    0  501 -0.00000000000E+00  0.00000000000E+00  0.39308231166E+03  0.39308231166E+03  0.00000000000E+00 0.  1.
          3   -1    0    0  501    0  0.00000000000E+00 -0.00000000000E+00 -0.53486817406E+02  0.53486817406E+02  0.00000000000E+00 0. -1.
         23    2    1    2    0    0  0.87039441081E+02  0.16622303000E+02  0.23786257744E+03  0.28293484663E+03  0.12498542487E+03 0.  0.
          5    1    3    3  502    0  0.10017750926E+03  0.28303457118E+02  0.10185743214E+03  0.14571769120E+03  0.47000000000E+01 0. -1.
         -5    1    3    3    0  502 -0.13138068177E+02 -0.11681154118E+02  0.13600514529E+03  0.13721715542E+03  0.47000000000E+01 0. -1.
        -11    1    1    2    0    0 -0.42789398163E+02 -0.49081294951E+01 -0.88340856039E+01  0.43966616867E+02  0.00000000000E+00 0. -1.
         11    1    1    2    0    0 -0.44250042919E+02 -0.11714173505E+02  0.11056700242E+03  0.11966766557E+03  0.00000000000E+00 0.  1.
<mgrwt>
<rscale>  0 0.14652451E+03</rscale>
<asrwt>0</asrwt>
<pdfrwt beam="2">  1        3 0.82287414E-02 0.15321071E+03</pdfrwt>
<pdfrwt beam="1">  1       -3 0.60474200E-01 0.15321071E+03</pdfrwt>
<totfact> 0.64976215E+02</totfact>
</mgrwt>
</event>
<event>
 7    1  0.8712071E-006  0.3065212E+03  0.7546771E-02  0.1083706E+00
          2   -1    0    0  501    0  0.00000000000E+00  0.00000000000E+00  0.77604592756E+03  0.77604592756E+03  0.00000000000E+00 0. -1.
         -2   -1    0    0    0  501 -0.00000000000E+00 -0.00000000000E+00 -0.11683638634E+03  0.11683638634E+03  0.00000000000E+00 0.  1.
         23    2    1    2    0    0  0.27289567203E+03 -0.62123153941E+02  0.29484697360E+03  0.42531163213E+03  0.12499565000E+03 0.  0.
          5    1    3    3  502    0  0.11316806803E+03 -0.88766449084E+02  0.15216385536E+03  0.20943357654E+03  0.47000000000E+01 0. -1.
         -5    1    3    3    0  502  0.15972760400E+03  0.26643295142E+02  0.14268311824E+03  0.21587805559E+03  0.47000000000E+01 0. -1.
        -11    1    1    2    0    0 -0.12151878509E+03 -0.18860725449E+01  0.20693470235E+03  0.23998404830E+03  0.00000000000E+00 0.  1.
         11    1    1    2    0    0 -0.15137688694E+03  0.64009226486E+02  0.15742786527E+03  0.22758663348E+03  0.00000000000E+00 0. -1.
<mgrwt>
<rscale>  0 0.30308935E+03</rscale>
<asrwt>0</asrwt>
<pdfrwt beam="1">  1        2 0.11939168E+00 0.30652120E+03</pdfrwt>
<pdfrwt beam="2">  1       -2 0.17974829E-01 0.30652120E+03</pdfrwt>
<totfact> 0.93237281E+02</totfact>
</mgrwt>
</event>
<event>
 7    1  0.8712071E-006  0.1515672E+03  0.7546771E-02  0.1206882E+00
         -2   -1    0    0    0  501 -0.00000000000E+00  0.00000000000E+00  0.10700414825E+03  0.10700414825E+03  0.00000000000E+00 0. -1.
          2   -1    0    0  501    0  0.00000000000E+00 -0.00000000000E+00 -0.20273901245E+03  0.20273901245E+03  0.00000000000E+00 0.  1.
         23    2    1    2    0    0  0.55519828421E+02 -0.65305682998E+02 -0.92677497868E+00  0.15157002501E+03  0.12500131995E+03 0.  0.
          5    1    3    3  502    0  0.65758770719E+02 -0.93788108127E+02  0.17282884344E+02  0.11593624646E+03  0.47000000000E+01 0.  1.
         -5    1    3    3    0  502 -0.10238942298E+02  0.28482425129E+02 -0.18209659323E+02  0.35633778543E+02  0.47000000000E+01 0.  1.
        -11    1    1    2    0    0 -0.38381889187E+02  0.25722742978E+02  0.78087867112E+01  0.46859428867E+02  0.00000000000E+00 0. -1.
         11    1    1    2    0    0 -0.17137939234E+02  0.39582940020E+02 -0.10261687594E+03  0.11131370683E+03  0.00000000000E+00 0.  1.
<mgrwt>
<rscale>  0 0.14490093E+03</rscale>
<asrwt>0</asrwt>
<pdfrwt beam="2">  1        2 0.31190617E-01 0.15156719E+03</pdfrwt>
<pdfrwt beam="1">  1       -2 0.16462177E-01 0.15156719E+03</pdfrwt>
<totfact> 0.47404115E+03</totfact>
</mgrwt>
</event>
<event>
 7    1  0.8712071E-006  0.1294160E+03  0.7546771E-02  0.1242840E+00
         -4   -1    0    0    0  501 -0.00000000000E+00  0.00000000000E+00  0.10475510692E+04  0.10475510692E+04  0.00000000000E+00 0. -1.
          4   -1    0    0  501    0  0.00000000000E+00 -0.00000000000E+00 -0.21349543830E+02  0.21349543830E+02  0.00000000000E+00 0.  1.
         23    2    1    2    0    0  0.33542720688E+02  0.57729067568E-01  0.90488951665E+03  0.91409712018E+03  0.12499356122E+03 0.  0.
          5    1    3    3  502    0  0.31676560644E+02 -0.56998004617E+02  0.62476405304E+03  0.62817544444E+03  0.47000000000E+01 0. -1.
         -5    1    3    3    0  502  0.18661600443E+01  0.57055733684E+02  0.28012546361E+03  0.28592167574E+03  0.47000000000E+01 0. -1.
        -11    1    1    2    0    0 -0.52451128581E+02  0.26956544591E+02  0.54509658686E+02  0.80306158393E+02  0.00000000000E+00 0.  1.
         11    1    1    2    0    0  0.18908407893E+02 -0.27014273659E+02  0.66802350032E+02  0.74497334450E+02  0.00000000000E+00 0. -1.
<mgrwt>
<rscale>  0 0.12015565E+03</rscale>
<asrwt>0</asrwt>
<pdfrwt beam="2">  1        4 0.32845460E-02 0.12941603E+03</pdfrwt>
<pdfrwt beam="1">  1       -4 0.16116166E+00 0.12941603E+03</pdfrwt>
<totfact> 0.20520056E+02</totfact>
</mgrwt>
</event>
<event>
 7    1  0.8712071E-006  0.1423610E+03  0.7546771E-02  0.1220900E+00
         -1   -1    0    0    0  501 -0.00000000000E+00  0.00000000000E+00  0.21696109015E+03  0.21696109015E+03  0.00000000000E+00 0.  1.
          1   -1    0    0  501    0  0.00000000000E+00 -0.00000000000E+00 -0.15207442216E+03  0.15207442216E+03  0.00000000000E+00 0. -1.
         23    2    1    2    0    0  0.32690068996E+02  0.59776497269E+02  0.16483903914E+03  0.21780396148E+03  0.12499914630E+03 0.  0.
          5    1    3    3  502    0  0.34342230675E+02  0.83743658439E+02  0.17012388978E+03  0.19276051725E+03  0.47000000000E+01 0. -1.
         -5    1    3    3    0  502 -0.16521616790E+01 -0.23967161170E+02 -0.52848506397E+01  0.25043444233E+02  0.47000000000E+01 0. -1.
        -11    1    1    2    0    0  0.10258705050E+02 -0.68751498300E+02 -0.58114920597E+02  0.90605482968E+02  0.00000000000E+00 0.  1.
         11    1    1    2    0    0 -0.42948774045E+02  0.89750010308E+01 -0.41837450555E+02  0.60626067862E+02  0.00000000000E+00 0. -1.
<mgrwt>
<rscale>  0 0.13451940E+03</rscale>
<asrwt>0</asrwt>
<pdfrwt beam="2">  1        1 0.23396065E-01 0.14236101E+03</pdfrwt>
<pdfrwt beam="1">  1       -1 0.33378629E-01 0.14236101E+03</pdfrwt>
<totfact> 0.17343732E+03</totfact>
</mgrwt>
</event>
<event>
 7    1  0.8712071E-006  0.1580615E+03  0.7546771E-02  0.1193107E+00
          2   -1    0    0  501    0  0.00000000000E+00  0.00000000000E+00  0.52349551845E+03  0.52349551845E+03  0.00000000000E+00 0. -1.
         -2   -1    0    0    0  501 -0.00000000000E+00 -0.00000000000E+00 -0.47166005589E+02  0.47166005589E+02  0.00000000000E+00 0.  1.
         23    2    1    2    0    0 -0.83876568106E+02  0.48195867142E+02  0.18997077766E+03  0.24712819314E+03  0.12500130877E+03 0.  0.
          5    1    3    3  502    0  0.18849818882E+02  0.31801087898E+02  0.90007241125E+01  0.38337030374E+02  0.47000000000E+01 0.  1.
         -5    1    3    3    0  502 -0.10272638699E+03  0.16394779244E+02  0.18097005354E+03  0.20879116277E+03  0.47000000000E+01 0.  1.
        -11    1    1    2    0    0  0.24847258749E+02 -0.79797972069E+02  0.16271278572E+03  0.18292226013E+03  0.00000000000E+00 0. -1.
         11    1    1    2    0    0  0.59029309357E+02  0.31602104926E+02  0.12364594948E+03  0.14061107076E+03  0.00000000000E+00 0.  1.
<mgrwt>
<rscale>  0 0.15615541E+03</rscale>
<asrwt>0</asrwt>
<pdfrwt beam="1">  1        2 0.80537768E-01 0.15806153E+03</pdfrwt>
<pdfrwt beam="2">  1       -2 0.72563089E-02 0.15806153E+03</pdfrwt>
<totfact> 0.63078467E+03</totfact>
</mgrwt>
</event>
<event>
 6    1  0.8712071E-006  0.1354005E+03  0.7546771E-02  0.1235037E+00
          3   -1    0    0  501    0  0.00000000000E+00  0.00000000000E+00  0.21179227876E+02  0.21179227876E+02  0.00000000000E+00 0. -1.
         -3   -1    0    0    0  501 -0.00000000000E+00 -0.00000000000E+00 -0.80433871039E+03  0.80433871039E+03  0.00000000000E+00 0.  1.
          5    1    1    2  502    0  0.58130186581E+01 -0.40584923081E+02 -0.54096364041E+03  0.54253541582E+03  0.47000000000E+01 0. -1.
         -5    1    1    2    0  502  0.30128448865E+02  0.36953854900E+02 -0.81978225826E+02  0.94951726327E+02  0.47000000000E+01 0.  1.
        -11    1    1    2    0    0 -0.40723404745E+01 -0.40217868915E+02 -0.94894749042E+02  0.10314588859E+03  0.00000000000E+00 0.  1.
         11    1    1    2    0    0 -0.31869127048E+02  0.43848937096E+02 -0.65322867235E+02  0.84884907535E+02  0.00000000000E+00 0. -1.
<mgrwt>
<rscale>  0 0.12502090E+03</rscale>
<asrwt>0</asrwt>
<pdfrwt beam="1">  1        3 0.32583425E-02 0.13540047E+03</pdfrwt>
<pdfrwt beam="2">  1       -3 0.12374443E+00 0.13540047E+03</pdfrwt>
<totfact> 0.57083691E+02</totfact>
</mgrwt>
</event>
<event>
 7    1  0.8712071E-006  0.2243675E+03  0.7546771E-02  0.1133933E+00
          2   -1    0    0  501    0  0.00000000000E+00  0.00000000000E+00  0.16278861792E+03  0.16278861792E+03  0.00000000000E+00 0. -1.
         -2   -1    0    0    0  501 -0.00000000000E+00 -0.00000000000E+00 -0.30405069885E+03  0.30405069885E+03  0.00000000000E+00 0.  1.
         23    2    1    2    0    0 -0.15507108566E+03  0.10328890171E+03 -0.16388396466E+02  0.22496520828E+03  0.12500050629E+03 0.  0.
          5    1    3    3  502    0  0.20775719865E+02  0.51428321595E+01 -0.80865871096E+01  0.23357271879E+02  0.47000000000E+01 0. -1.
         -5    1    3    3    0  502 -0.17584680552E+03  0.98146069550E+02 -0.83018093568E+01  0.20160793640E+03  0.47000000000E+01 0. -1.
        -11    1    1    2    0    0  0.95724820025E+02 -0.87328499004E+02 -0.12553984938E+03  0.18041552508E+03  0.00000000000E+00 0. -1.
         11    1    1    2    0    0  0.59346265632E+02 -0.15960402706E+02  0.66616492504E+00  0.61458583410E+02  0.00000000000E+00 0.  1.
<mgrwt>
<rscale>  0 0.21993244E+03</rscale>
<asrwt>0</asrwt>
<pdfrwt beam="1">  1        2 0.25044403E-01 0.22436748E+03</pdfrwt>
<pdfrwt beam="2">  1       -2 0.46777031E-01 0.22436748E+03</pdfrwt>
<totfact> 0.93945194E+02</totfact>
</mgrwt>
</event>
<event>
 7    1  0.8712071E-006  0.1176448E+03  0.7546771E-02  0.1258404E+00
         -2   -1    0    0    0  501 -0.00000000000E+00  0.00000000000E+00  0.14789748323E+03  0.14789748323E+03  0.00000000000E+00 0.  1.
          2   -1    0    0  501    0  0.00000000000E+00 -0.00000000000E+00 -0.76255329633E+02  0.76255329633E+02  0.00000000000E+00 0. -1.
         23    2    1    2    0    0 -0.25198774321E+02  0.11906515172E+02  0.50159932327E+02  0.12789184801E+03  0.11429594326E+03 0.  0.
          5    1    3    3  502    0  0.39547192042E+02  0.18032246460E+00 -0.72035680836E+01  0.40472142367E+02  0.47000000000E+01 0. -1.
         -5    1    3    3    0  502 -0.64745966364E+02  0.11726192707E+02  0.57363500411E+02  0.87419705646E+02  0.47000000000E+01 0.  1.
        -11    1    1    2    0    0  0.38704147328E+01  0.38706860550E+02  0.95893107562E+01  0.40064398718E+02  0.00000000000E+00 0.  1.
         11    1    1    2    0    0  0.21328359588E+02 -0.50613375722E+02  0.11892910515E+02  0.56196566134E+02  0.00000000000E+00 0. -1.
<mgrwt>
<rscale>  0 0.11117801E+03</rscale>
<asrwt>0</asrwt>
<pdfrwt beam="2">  1        2 0.11731589E-01 0.11764483E+03</pdfrwt>
<pdfrwt beam="1">  1       -2 0.22753459E-01 0.11764483E+03</pdfrwt>
<totfact> 0.82144871E+03</totfact>
</mgrwt>
</event>
<event>
 7    1  0.8712071E-006  0.1464222E+03  0.7546771E-02  0.1215116E+00
         -3   -1    0    0    0  501 -0.00000000000E+00  0.00000000000E+00  0.42441577459E+02  0.42441577459E+02  0.00000000000E+00 0.  1.
          3   -1    0    0  501    0  0.00000000000E+00 -0.00000000000E+00 -0.41191830096E+03  0.41191830096E+03  0.00000000000E+00 0. -1.
         23    2    1    2    0    0 -0.84190387234E+01 -0.75796010171E+02 -0.21339734711E+03  0.25880089131E+03  0.12499423275E+03 0.  0.
          5    1    3    3  502    0 -0.54893882290E+02 -0.54188495086E+02 -0.18390709187E+03  0.19948343227E+03  0.47000000000E+01 0. -1.
         -5    1    3    3    0  502  0.46474843567E+02 -0.21607515084E+02 -0.29490255239E+02  0.59317459038E+02  0.47000000000E+01 0. -1.
        -11    1    1    2    0    0  0.43218723572E+02  0.33125717574E+02 -0.41596905537E+02  0.68523527217E+02  0.00000000000E+00 0.  1.
         11    1    1    2    0    0 -0.34799684849E+02  0.42670292597E+02 -0.11448247086E+03  0.12703545989E+03  0.00000000000E+00 0. -1.
<mgrwt>
<rscale>  0 0.13868003E+03</rscale>
<asrwt>0</asrwt>
<pdfrwt beam="2">  1        3 0.63372047E-01 0.14642224E+03</pdfrwt>
<pdfrwt beam="1">  1       -3 0.65294734E-02 0.14642224E+03</pdfrwt>
<totfact> 0.85287669E+02</totfact>
</mgrwt>
</event>
<event>
 7    1  0.8712071E-006  0.1447834E+03  0.7546771E-02  0.1221345E+00
          2   -1    0    0  501    0  0.00000000000E+00  0.00000000000E+00  0.12479421526E+04  0.12479421526E+04  0.00000000000E+00 0. -1.
         -2   -1    0    0    0  501 -0.00000000000E+00 -0.00000000000E+00 -0.12833645256E+02  0.12833645256E+02  0.00000000000E+00 0.  1.
         23    2    1    2    0    0  0.71561183480E+02  0.14682695228E+02  0.77573344682E+03  0.78912901453E+03  0.12500254609E+03 0.  0.
          5    1    3    3  502    0  0.41433520976E+02  0.46440527645E+02  0.68938299639E+03  0.69220261844E+03  0.47000000000E+01 0.  1.
         -5    1    3    3    0  502  0.30127662504E+02 -0.31757832417E+02  0.86350450438E+02  0.96926396088E+02  0.47000000000E+01 0.  1.
        -11    1    1    2    0    0  0.96552864338E+01  0.56837764412E+01  0.11664403031E+02  0.16173687546E+02  0.00000000000E+00 0.  1.
         11    1    1    2    0    0 -0.81216469914E+02 -0.20366471669E+02  0.44771065752E+03  0.45547309582E+03  0.00000000000E+00 0. -1.
<mgrwt>
<rscale>  0 0.13420607E+03</rscale>
<asrwt>0</asrwt>
<pdfrwt beam="1">  1        2 0.19199100E+00 0.14478336E+03</pdfrwt>
<pdfrwt beam="2">  1       -2 0.19744080E-02 0.14478336E+03</pdfrwt>
<totfact> 0.14313583E+04</totfact>
</mgrwt>
</event>
<event>
 7    1  0.8712071E-006  0.1350455E+03  0.7546771E-02  0.1231988E+00
         -1   -1    0    0    0  501 -0.00000000000E+00  0.00000000000E+00  0.57303981558E+02  0.57303981558E+02  0.00000000000E+00 0.  1.
          1   -1    0    0  501    0  0.00000000000E+00 -0.00000000000E+00 -0.26099630281E+03  0.26099630281E+03  0.00000000000E+00 0. -1.
         23    2    1    2    0    0 -0.17976058922E+02 -0.47844330800E+02 -0.14216436768E+03  0.19608161384E+03  0.12500029267E+03 0.  0.
          5    1    3    3  502    0 -0.68368234041E+02 -0.49597076725E+01 -0.72272739761E+02  0.99720875641E+02  0.47000000000E+01 0.  1.
         -5    1    3    3    0  502  0.50392175120E+02 -0.42884623128E+02 -0.69891627917E+02  0.96360738203E+02  0.47000000000E+01 0.  1.
        -11    1    1    2    0    0 -0.58908188089E+01  0.23589321866E+02 -0.79920916680E+02  0.83537481261E+02  0.00000000000E+00 0. -1.
         11    1    1    2    0    0  0.23866877730E+02  0.24255008934E+02  0.18392963107E+02  0.38681189264E+02  0.00000000000E+00 0.  1.
<mgrwt>
<rscale>  0 0.12699243E+03</rscale>
<asrwt>0</asrwt>
<pdfrwt beam="2">  1        1 0.40153277E-01 0.13504552E+03</pdfrwt>
<pdfrwt beam="1">  1       -1 0.88159973E-02 0.13504552E+03</pdfrwt>
<totfact> 0.73627863E+03</totfact>
</mgrwt>
</event>
<event>
 7    1  0.8712071E-006  0.1250372E+03  0.7546771E-02  0.1250106E+00
         -2   -1    0    0    0  501 -0.00000000000E+00  0.00000000000E+00  0.69569912433E+02  0.69569912433E+02  0.00000000000E+00 0.  1.
          2   -1    0    0  501    0  0.00000000000E+00 -0.00000000000E+00 -0.17027055305E+03  0.17027055305E+03  0.00000000000E+00 0. -1.
         23    2    1    2    0    0 -0.28548753032E+01  0.33212624862E-01 -0.49935095416E+02  0.13463960411E+03  0.12500463121E+03 0.  0.
          5    1    3    3  502    0  0.25706331734E+01  0.61764590776E+02 -0.16904360209E+02  0.64259786980E+02  0.47000000000E+01 0. -1.
         -5    1    3    3    0  502 -0.54255084766E+01 -0.61731378151E+02 -0.33030735207E+02  0.70379817128E+02  0.47000000000E+01 0. -1.
        -11    1    1    2    0    0 -0.12806484043E+02  0.14162067949E+02  0.22173120341E+02  0.29261193888E+02  0.00000000000E+00 0.  1.
         11    1    1    2    0    0  0.15661359346E+02 -0.14195280574E+02 -0.72938665544E+02  0.75939667490E+02  0.00000000000E+00 0. -1.
<mgrwt>
<rscale>  0 0.11584932E+03</rscale>
<asrwt>0</asrwt>
<pdfrwt beam="2">  1        2 0.26195470E-01 0.12503723E+03</pdfrwt>
<pdfrwt beam="1">  1       -2 0.10703063E-01 0.12503723E+03</pdfrwt>
<totfact> 0.11330962E+04</totfact>
</mgrwt>
</event>
<event>
 7    1  0.8712071E-006  0.2698065E+03  0.7546771E-02  0.1103710E+00
         -1   -1    0    0    0  501 -0.00000000000E+00  0.00000000000E+00  0.20960591705E+03  0.20960591705E+03  0.00000000000E+00 0.  1.
          1   -1    0    0  501    0  0.00000000000E+00 -0.00000000000E+00 -0.32739721758E+03  0.32739721758E+03  0.00000000000E+00 0. -1.
         23    2    1    2    0    0  0.90342475392E+02 -0.22138379885E+03 -0.61057556586E+02  0.27662891086E+03  0.12499191916E+03 0.  0.
          5    1    3    3  502    0  0.11883426609E+03 -0.15300889134E+03 -0.58233765202E+02  0.20235257605E+03  0.47000000000E+01 0.  1.
         -5    1    3    3    0  502 -0.28491790700E+02 -0.68374907512E+02 -0.28237913835E+01  0.74276334807E+02  0.47000000000E+01 0.  1.
        -11    1    1    2    0    0 -0.10145938560E+03  0.14860771656E+03 -0.32375592565E+02  0.18282898933E+03  0.00000000000E+00 0. -1.
         11    1    1    2    0    0  0.11116910204E+02  0.72776082292E+02 -0.24358151385E+02  0.77545234445E+02  0.00000000000E+00 0.  1.
<mgrwt>
<rscale>  0 0.26579584E+03</rscale>
<asrwt>0</asrwt>
<pdfrwt beam="2">  1        1 0.50368803E-01 0.26980647E+03</pdfrwt>
<pdfrwt beam="1">  1       -1 0.32247064E-01 0.26980647E+03</pdfrwt>
<totfact> 0.70939567E+02</totfact>
</mgrwt>
</event>
<event>
 7    1  0.8712071E-006  0.1266032E+03  0.7546771E-02  0.1247032E+00
         -1   -1    0    0    0  501 -0.00000000000E+00  0.00000000000E+00  0.43714594573E+02  0.43714594573E+02  0.00000000000E+00 0.  1.
          1   -1    0    0  501    0  0.00000000000E+00 -0.00000000000E+00 -0.35884435263E+03  0.35884435263E+03  0.00000000000E+00 0. -1.
         23    2    1    2    0    0  0.19709707686E+02  0.38584941590E+01 -0.81472160509E+02  0.15055260488E+03  0.12500005337E+03 0.  0.
          5    1    3    3  502    0 -0.28699808142E+02 -0.45326068797E+02 -0.53585978523E+02  0.75971564379E+02  0.47000000000E+01 0. -1.
         -5    1    3    3    0  502  0.48409515828E+02  0.49184562956E+02 -0.27886181986E+02  0.74581040497E+02  0.47000000000E+01 0. -1.
        -11    1    1    2    0    0 -0.39242055995E+02  0.82847317067E+01 -0.22314080654E+03  0.22671655273E+03  0.00000000000E+00 0. -1.
         11    1    1    2    0    0  0.19532348310E+02 -0.12143225866E+02 -0.10516791014E+02  0.25289789603E+02  0.00000000000E+00 0.  1.
<mgrwt>
<rscale>  0 0.11764577E+03</rscale>
<asrwt>0</asrwt>
<pdfrwt beam="2">  1        1 0.55206822E-01 0.12660321E+03</pdfrwt>
<pdfrwt beam="1">  1       -1 0.67253224E-02 0.12660321E+03</pdfrwt>
<totfact> 0.74258163E+03</totfact>
</mgrwt>
</event>
<event>
 7    1  0.8712071E-006  0.1764406E+03  0.7546771E-02  0.1177056E+00
          1   -1    0    0  501    0  0.00000000000E+00  0.00000000000E+00  0.36264929381E+02  0.36264929381E+02  0.00000000000E+00 0. -1.
         -1   -1    0    0    0  501 -0.00000000000E+00 -0.00000000000E+00 -0.11383400690E+04  0.11383400690E+04  0.00000000000E+00 0.  1.
         23    2    1    2    0    0 -0.56324189209E+02 -0.11105756495E+03 -0.91468378255E+03  0.93154586805E+03  0.12500034082E+03 0.  0.
          5    1    3    3  502    0 -0.53733827330E+02 -0.13794628762E+03 -0.73423045188E+03  0.74902132742E+03  0.47000000000E+01 0. -1.
         -5    1    3    3    0  502 -0.25903618796E+01  0.26888722678E+02 -0.18045333067E+03  0.18252454063E+03  0.47000000000E+01 0. -1.
        -11    1    1    2    0    0  0.38103818596E+02  0.46792604513E+01 -0.89355348060E+02  0.97253147491E+02  0.00000000000E+00 0.  1.
         11    1    1    2    0    0  0.18220370613E+02  0.10637830449E+03 -0.98036009048E+02  0.14580598288E+03  0.00000000000E+00 0. -1.
<mgrwt>
<rscale>  0 0.17076142E+03</rscale>
<asrwt>0</asrwt>
<pdfrwt beam="1">  1        1 0.55792209E-02 0.17644059E+03</pdfrwt>
<pdfrwt beam="2">  1       -1 0.17512921E+00 0.17644059E+03</pdfrwt>
<totfact> 0.35410311E+02</totfact>
</mgrwt>
</event>
<event>
 7    1  0.8712071E-006  0.2008948E+03  0.7546771E-02  0.1152532E+00
          1   -1    0    0  501    0  0.00000000000E+00  0.00000000000E+00  0.88992730583E+02  0.88992730583E+02  0.00000000000E+00 0. -1.
         -1   -1    0    0    0  501 -0.00000000000E+00 -0.00000000000E+00 -0.41783426264E+03  0.41783426264E+03  0.00000000000E+00 0.  1.
         23    2    1    2    0    0  0.15434200492E+03 -0.30170286812E+02 -0.17498018265E+03  0.26641470517E+03  0.12500812022E+03 0.  0.
          5    1    3    3  502    0  0.52667692982E+02 -0.50191213381E+02 -0.13838674593E+03  0.15641619236E+03  0.47000000000E+01 0.  1.
         -5    1    3    3    0  502  0.10167431194E+03  0.20020926569E+02 -0.36593436721E+02  0.10999851281E+03  0.47000000000E+01 0.  1.
        -11    1    1    2    0    0 -0.38165132578E+02  0.28661292019E+02 -0.10311779416E+03  0.11362801801E+03  0.00000000000E+00 0.  1.
         11    1    1    2    0    0 -0.11617687234E+03  0.15089947926E+01 -0.50743555254E+02  0.12678427005E+03  0.00000000000E+00 0. -1.
<mgrwt>
<rscale>  0 0.19672532E+03</rscale>
<asrwt>0</asrwt>
<pdfrwt beam="1">  1        1 0.13691190E-01 0.20089483E+03</pdfrwt>
<pdfrwt beam="2">  1       -1 0.64282193E-01 0.20089483E+03</pdfrwt>
<totfact> 0.10625738E+03</totfact>
</mgrwt>
</event>
<event>
 7    1  0.8712071E-006  0.2830501E+03  0.7546771E-02  0.1095864E+00
          2   -1    0    0  501    0  0.00000000000E+00  0.00000000000E+00  0.96344284657E+03  0.96344284657E+03  0.00000000000E+00 0. -1.
         -2   -1    0    0    0  501 -0.00000000000E+00 -0.00000000000E+00 -0.13439346368E+03  0.13439346368E+03  0.00000000000E+00 0.  1.
         23    2    1    2    0    0  0.20930082274E+03 -0.14382621367E+03  0.69028285399E+02  0.29134564765E+03  0.12499827232E+03 0.  0.
          5    1    3    3  502    0  0.41899955345E+02  0.20894827228E+02  0.21279236413E+01  0.47104332305E+02  0.47000000000E+01 0.  1.
         -5    1    3    3    0  502  0.16740086740E+03 -0.16472104090E+03  0.66900361757E+02  0.24424131535E+03  0.47000000000E+01 0.  1.
        -11    1    1    2    0    0 -0.13945256398E+02  0.51823016371E+02  0.13913385716E+03  0.14912520046E+03  0.00000000000E+00 0.  1.
         11    1    1    2    0    0 -0.19535556635E+03  0.92003197298E+02  0.62088724033E+03  0.65736546214E+03  0.00000000000E+00 0. -1.
<mgrwt>
<rscale>  0 0.27967929E+03</rscale>
<asrwt>0</asrwt>
<pdfrwt beam="1">  1        2 0.14822197E+00 0.28305014E+03</pdfrwt>
<pdfrwt beam="2">  1       -2 0.20675918E-01 0.28305014E+03</pdfrwt>
<totfact> 0.55122280E+02</totfact>
</mgrwt>
</event>
<event>
 7    1  0.8712071E-006  0.2184599E+03  0.7546771E-02  0.1139480E+00
         -2   -1    0    0    0  501 -0.00000000000E+00  0.00000000000E+00  0.82770513533E+03  0.82770513533E+03  0.00000000000E+00 0.  1.
          2   -1    0    0  501    0  0.00000000000E+00 -0.00000000000E+00 -0.78514395849E+02  0.78514395849E+02  0.00000000000E+00 0. -1.
         23    2    1    2    0    0  0.15285766835E+03 -0.93433066603E+02  0.65137161355E+03  0.68702961703E+03  0.12501804278E+03 0.  0.
          5    1    3    3  502    0 -0.10971810422E+02  0.16828505222E+02  0.51859519170E+02  0.55812892243E+02  0.47000000000E+01 0.  1.
         -5    1    3    3    0  502  0.16382947877E+03 -0.11026157182E+03  0.59951209438E+03  0.63121672479E+03  0.47000000000E+01 0.  1.
        -11    1    1    2    0    0 -0.99688078575E+02  0.66909838057E+02  0.20694697738E+02  0.12183148178E+03  0.00000000000E+00 0.  1.
         11    1    1    2    0    0 -0.53169589778E+02  0.26523228546E+02  0.77124428191E+02  0.97358432370E+02  0.00000000000E+00 0. -1.
<mgrwt>
<rscale>  0 0.21265568E+03</rscale>
<asrwt>0</asrwt>
<pdfrwt beam="2">  1        2 0.12079138E-01 0.21845987E+03</pdfrwt>
<pdfrwt beam="1">  1       -2 0.12733925E+00 0.21845987E+03</pdfrwt>
<totfact> 0.24350142E+02</totfact>
</mgrwt>
</event>
<event>
 7    1  0.8712071E-006  0.1803997E+03  0.7546771E-02  0.1172671E+00
         -2   -1    0    0    0  501 -0.00000000000E+00  0.00000000000E+00  0.56817990612E+02  0.56817990612E+02  0.00000000000E+00 0.  1.
          2   -1    0    0  501    0  0.00000000000E+00 -0.00000000000E+00 -0.52411345497E+03  0.52411345497E+03  0.00000000000E+00 0. -1.
         23    2    1    2    0    0 -0.13004667150E+03  0.27645750563E+01 -0.19929818284E+03  0.26881929635E+03  0.12499707503E+03 0.  0.
          5    1    3    3  502    0 -0.15016560878E+03 -0.16572498542E+02 -0.17724624383E+03  0.23294350972E+03  0.47000000000E+01 0.  1.
         -5    1    3    3    0  502  0.20118937279E+02  0.19337073599E+02 -0.22051939008E+02  0.35875786634E+02  0.47000000000E+01 0.  1.
        -11    1    1    2    0    0  0.98516845821E+02 -0.98216692487E+01 -0.26087000658E+03  0.27902543689E+03  0.00000000000E+00 0.  1.
         11    1    1    2    0    0  0.31529825678E+02  0.70570941925E+01 -0.71272749414E+01  0.33086712345E+02  0.00000000000E+00 0. -1.
<mgrwt>
<rscale>  0 0.17506072E+03</rscale>
<asrwt>0</asrwt>
<pdfrwt beam="2">  1        2 0.80632836E-01 0.18039969E+03</pdfrwt>
<pdfrwt beam="1">  1       -2 0.87412297E-02 0.18039969E+03</pdfrwt>
<totfact> 0.47486768E+03</totfact>
</mgrwt>
</event>
<event>
 6    1  0.8712071E-006  0.1446887E+03  0.7546771E-02  0.1224801E+00
          2   -1    0    0  501    0  0.00000000000E+00  0.00000000000E+00  0.93003313783E+02  0.93003313783E+02  0.00000000000E+00 0. -1.
         -2   -1    0    0    0  501 -0.00000000000E+00 -0.00000000000E+00 -0.16123237918E+03  0.16123237918E+03  0.00000000000E+00 0.  1.
          5    1    1    2  502    0  0.88193350554E+02  0.85038084843E+01 -0.51754164568E+01  0.88877763114E+02  0.47000000000E+01 0. -1.
         -5    1    1    2    0  502 -0.52426674466E+02 -0.58069138140E+01 -0.26589384314E+02  0.59256744779E+02  0.47000000000E+01 0.  1.
        -11    1    1    2    0    0 -0.28683838976E+02  0.24516372120E+02  0.20231479157E+02  0.42815042557E+02  0.00000000000E+00 0.  1.
         11    1    1    2    0    0 -0.70828371122E+01 -0.27213266790E+02 -0.56695743781E+02  0.63286142510E+02  0.00000000000E+00 0. -1.
<mgrwt>
<rscale>  0 0.13180527E+03</rscale>
<asrwt>0</asrwt>
<pdfrwt beam="1">  1        2 0.14308202E-01 0.14468873E+03</pdfrwt>
<pdfrwt beam="2">  1       -2 0.24804982E-01 0.14468873E+03</pdfrwt>
<totfact> 0.56737574E+03</totfact>
</mgrwt>
</event>
<event>
 7    1  0.8712071E-006  0.1812364E+03  0.7546771E-02  0.1172922E+00
          1   -1    0    0  501    0  0.00000000000E+00  0.00000000000E+00  0.49115634273E+03  0.49115634273E+03  0.00000000000E+00 0. -1.
         -1   -1    0    0    0  501 -0.00000000000E+00 -0.00000000000E+00 -0.98292286323E+02  0.98292286323E+02  0.00000000000E+00 0.  1.
         23    2    1    2    0    0  0.10770794956E+03  0.74969165870E+02  0.16841749753E+02  0.18201720178E+03  0.12500095591E+03 0.  0.
          5    1    3    3  502    0  0.42840937257E+02  0.17939276303E+02 -0.53154877157E+02  0.70743865493E+02  0.47000000000E+01 0.  1.
         -5    1    3    3    0  502  0.64867012303E+02  0.57029889567E+02  0.69996626910E+02  0.11127333628E+03  0.47000000000E+01 0.  1.
        -11    1    1    2    0    0 -0.12883559822E+02  0.17497602523E+02  0.30963496139E+02  0.37827110660E+02  0.00000000000E+00 0.  1.
         11    1    1    2    0    0 -0.94824389737E+02 -0.92466768393E+02  0.34505881052E+03  0.36960431662E+03  0.00000000000E+00 0. -1.
<mgrwt>
<rscale>  0 0.17481055E+03</rscale>
<asrwt>0</asrwt>
<pdfrwt beam="1">  1        1 0.75562513E-01 0.18123636E+03</pdfrwt>
<pdfrwt beam="2">  1       -1 0.15121890E-01 0.18123636E+03</pdfrwt>
<totfact> 0.14588120E+03</totfact>
</mgrwt>
</event>
<event>
 7    1  0.8712071E-006  0.1721860E+03  0.7546771E-02  0.1181662E+00
          1   -1    0    0  501    0  0.00000000000E+00  0.00000000000E+00  0.18379771304E+03  0.18379771304E+03  0.00000000000E+00 0. -1.
         -1   -1    0    0    0  501 -0.00000000000E+00 -0.00000000000E+00 -0.17363269901E+03  0.17363269901E+03  0.00000000000E+00 0.  1.
         23    2    1    2    0    0 -0.89780574345E+02 -0.77209524845E+02 -0.71569790556E+02  0.18646781543E+03  0.12500459597E+03 0.  0.
          5    1    3    3  502    0  0.18468027210E+02 -0.37725612366E+02 -0.55911530022E+02  0.70089079369E+02  0.47000000000E+01 0. -1.
         -5    1    3    3    0  502 -0.10824860155E+03 -0.39483912478E+02 -0.15658260534E+02  0.11637873606E+03  0.47000000000E+01 0. -1.
        -11    1    1    2    0    0  0.29244047090E+02  0.31709060976E+01 -0.16612053850E+02  0.33782085028E+02  0.00000000000E+00 0.  1.
         11    1    1    2    0    0  0.60536527255E+02  0.74038618747E+02  0.98346858439E+02  0.13718051160E+03  0.00000000000E+00 0. -1.
<mgrwt>
<rscale>  0 0.16639335E+03</rscale>
<asrwt>0</asrwt>
<pdfrwt beam="1">  1        1 0.28276571E-01 0.17218598E+03</pdfrwt>
<pdfrwt beam="2">  1       -1 0.26712723E-01 0.17218598E+03</pdfrwt>
<totfact> 0.20016532E+03</totfact>
</mgrwt>
</event>
<event>
 7    1  0.8712071E-006  0.1573049E+03  0.7546771E-02  0.1199485E+00
          2   -1    0    0  501    0  0.00000000000E+00  0.00000000000E+00  0.31458511410E+02  0.31458511410E+02  0.00000000000E+00 0. -1.
         -2   -1    0    0    0  501 -0.00000000000E+00 -0.00000000000E+00 -0.68319220989E+03  0.68319220989E+03  0.00000000000E+00 0.  1.
         23    2    1    2    0    0 -0.77070874362E+02 -0.56384301566E+02 -0.40372162211E+03  0.43328510932E+03  0.12500291461E+03 0.  0.
          5    1    3    3  502    0 -0.15533878072E+01 -0.20141299995E+02  0.20112067977E+00  0.20741635150E+02  0.47000000000E+01 0. -1.
         -5    1    3    3    0  502 -0.75517486555E+02 -0.36243001571E+02 -0.40392274279E+03  0.41254347417E+03  0.47000000000E+01 0. -1.
        -11    1    1    2    0    0  0.72920901646E+02 -0.16092407455E+00 -0.10803650960E+03  0.13034328215E+03  0.00000000000E+00 0.  1.
         11    1    1    2    0    0  0.41499727158E+01  0.56545225640E+02 -0.13997556678E+03  0.15102232984E+03  0.00000000000E+00 0. -1.
<mgrwt>
<rscale>  0 0.15080654E+03</rscale>
<asrwt>0</asrwt>
<pdfrwt beam="1">  1        2 0.48397710E-02 0.15730492E+03</pdfrwt>
<pdfrwt beam="2">  1       -2 0.10510649E+00 0.15730492E+03</pdfrwt>
<totfact> 0.12211908E+03</totfact>
</mgrwt>
</event>
<event>
 7    1  0.8712071E-006  0.1329028E+03  0.7546771E-02  0.1236119E+00
          1   -1    0    0  501    0  0.00000000000E+00  0.00000000000E+00  0.75835839909E+02  0.75835839909E+02  0.00000000000E+00 0. -1.
         -1   -1    0    0    0  501 -0.00000000000E+00 -0.00000000000E+00 -0.21386261780E+03  0.21386261780E+03  0.00000000000E+00 0.  1.
         23    2    1    2    0    0 -0.28959435198E+02 -0.34641058427E+02 -0.13263655459E+03  0.18776479289E+03  0.12499804007E+03 0.  0.
          5    1    3    3  502    0  0.95228336924E+01 -0.47732628047E+02  0.62901798138E-01  0.48899714707E+02  0.47000000000E+01 0.  1.
         -5    1    3    3    0  502 -0.38482268891E+02  0.13091569620E+02 -0.13269945638E+03  0.13886507818E+03  0.47000000000E+01 0.  1.
        -11    1    1    2    0    0  0.46828900655E+02  0.22665162688E+02 -0.36898792897E+02  0.63782258140E+02  0.00000000000E+00 0.  1.
         11    1    1    2    0    0 -0.17869465457E+02  0.11975895739E+02  0.31508569587E+02  0.38151406683E+02  0.00000000000E+00 0. -1.
<mgrwt>
<rscale>  0 0.12433061E+03</rscale>
<asrwt>0</asrwt>
<pdfrwt beam="1">  1        1 0.11667052E-01 0.13290283E+03</pdfrwt>
<pdfrwt beam="2">  1       -1 0.32901941E-01 0.13290283E+03</pdfrwt>
<totfact> 0.43383351E+03</totfact>
</mgrwt>
</event>
<event>
 7    1  0.8712071E-006  0.1853859E+03  0.7546771E-02  0.1167006E+00
          1   -1    0    0  501    0  0.00000000000E+00  0.00000000000E+00  0.77713583443E+03  0.77713583443E+03  0.00000000000E+00 0. -1.
         -1   -1    0    0    0  501 -0.00000000000E+00 -0.00000000000E+00 -0.40184771677E+02  0.40184771677E+02  0.00000000000E+00 0.  1.
         23    2    1    2    0    0 -0.98371485363E+02  0.95225995912E+02  0.37167809387E+03  0.41534630683E+03  0.12499203859E+03 0.  0.
          5    1    3    3  502    0  0.22954514397E+02  0.36075690769E+02  0.14733444843E+03  0.15348581332E+03  0.47000000000E+01 0.  1.
         -5    1    3    3    0  502 -0.12132599976E+03  0.59150305143E+02  0.22434364543E+03  0.26186049351E+03  0.47000000000E+01 0.  1.
        -11    1    1    2    0    0  0.34380122457E+02 -0.14091967604E+02  0.21327851792E+02  0.42842194542E+02  0.00000000000E+00 0.  1.
         11    1    1    2    0    0  0.63991362906E+02 -0.81134028308E+02  0.34394511710E+03  0.35913210473E+03  0.00000000000E+00 0. -1.
<mgrwt>
<rscale>  0 0.18082553E+03</rscale>
<asrwt>0</asrwt>
<pdfrwt beam="1">  1        1 0.11955935E+00 0.18538595E+03</pdfrwt>
<pdfrwt beam="2">  1       -1 0.61822731E-02 0.18538595E+03</pdfrwt>
<totfact> 0.30429029E+03</totfact>
</mgrwt>
</event>
<event>
 7    1  0.8712071E-006  0.1276036E+03  0.7546771E-02  0.1244959E+00
         -1   -1    0    0    0  501 -0.00000000000E+00  0.00000000000E+00  0.49509085377E+03  0.49509085377E+03  0.00000000000E+00 0.  1.
          1   -1    0    0  501    0  0.00000000000E+00 -0.00000000000E+00 -0.27106097705E+02  0.27106097705E+02  0.00000000000E+00 0. -1.
         23    2    1    2    0    0  0.16665047006E+02 -0.19517276609E+02  0.33193679863E+03  0.35561876273E+03  0.12499607292E+03 0.  0.
          5    1    3    3  502    0 -0.10838433633E+00 -0.69681829321E+02  0.13973881878E+03  0.15621970605E+03  0.47000000000E+01 0. -1.
         -5    1    3    3    0  502  0.16773431342E+02  0.50164552712E+02  0.19219797985E+03  0.19939905668E+03  0.47000000000E+01 0. -1.
        -11    1    1    2    0    0  0.13453550293E+02  0.44117044944E+02  0.33791232835E+02  0.57176560640E+02  0.00000000000E+00 0. -1.
         11    1    1    2    0    0 -0.30118597299E+02 -0.24599768335E+02  0.10225672460E+03  0.10940162811E+03  0.00000000000E+00 0.  1.
<mgrwt>
<rscale>  0 0.11887804E+03</rscale>
<asrwt>0</asrwt>
<pdfrwt beam="2">  1        1 0.41701692E-02 0.12760355E+03</pdfrwt>
<pdfrwt beam="1">  1       -1 0.76167817E-01 0.12760355E+03</pdfrwt>
<totfact> 0.37032020E+03</totfact>
</mgrwt>
</event>
<event>
 7    1  0.8712071E-006  0.2117901E+03  0.7546771E-02  0.1142609E+00
         -2   -1    0    0    0  501 -0.00000000000E+00  0.00000000000E+00  0.25926296332E+03  0.25926296332E+03  0.00000000000E+00 0.  1.
          2   -1    0    0  501    0  0.00000000000E+00 -0.00000000000E+00 -0.16889861718E+03  0.16889861718E+03  0.00000000000E+00 0. -1.
         23    2    1    2    0    0  0.12396170424E+03 -0.11773759739E+03  0.85645153336E+02  0.22845160832E+03  0.12500559626E+03 0.  0.
          5    1    3    3  502    0  0.14115274792E+03 -0.10188331521E+03  0.99799814059E+02  0.20071472554E+03  0.47000000000E+01 0.  1.
         -5    1    3    3    0  502 -0.17191043674E+02 -0.15854282179E+02 -0.14154660723E+02  0.27736882778E+02  0.47000000000E+01 0.  1.
        -11    1    1    2    0    0 -0.48778700419E+02  0.70541861932E+02 -0.46156177150E+02  0.97395629206E+02  0.00000000000E+00 0. -1.
         11    1    1    2    0    0 -0.75183003826E+02  0.47195735454E+02  0.50875369954E+02  0.10231434297E+03  0.00000000000E+00 0.  1.
<mgrwt>
<rscale>  0 0.20868866E+03</rscale>
<asrwt>0</asrwt>
<pdfrwt beam="2">  1        2 0.25984403E-01 0.21179010E+03</pdfrwt>
<pdfrwt beam="1">  1       -2 0.39886610E-01 0.21179010E+03</pdfrwt>
<totfact> 0.12263130E+03</totfact>
</mgrwt>
</event>
<event>
 7    1  0.8712071E-006  0.1284985E+03  0.7546771E-02  0.1244831E+00
          4   -1    0    0  501    0  0.00000000000E+00  0.00000000000E+00  0.87026196475E+02  0.87026196475E+02  0.00000000000E+00 0.  1.
         -4   -1    0    0    0  501 -0.00000000000E+00 -0.00000000000E+00 -0.14271356845E+03  0.14271356845E+03  0.00000000000E+00 0. -1.
         23    2    1    2    0    0 -0.13080535863E+02 -0.26743671056E+02 -0.33599090338E+02  0.13281849583E+03  0.12500211840E+03 0.  0.
          5    1    3    3  502    0  0.15107928482E+02 -0.29849253642E+02  0.40851600323E+02  0.53011043142E+02  0.47000000000E+01 0.  1.
         -5    1    3    3    0  502 -0.28188464344E+02  0.31055825865E+01 -0.74450690661E+02  0.79807452692E+02  0.47000000000E+01 0.  1.
        -11    1    1    2    0    0  0.42447304309E+02  0.37068870572E+02  0.37307175070E+01  0.56478252998E+02  0.00000000000E+00 0.  1.
         11    1    1    2    0    0 -0.29366768446E+02 -0.10325199516E+02 -0.25818999148E+02  0.40443016097E+02  0.00000000000E+00 0. -1.
<mgrwt>
<rscale>  0 0.11895503E+03</rscale>
<asrwt>0</asrwt>
<pdfrwt beam="1">  1        4 0.13388646E-01 0.12849846E+03</pdfrwt>
<pdfrwt beam="2">  1       -4 0.21955934E-01 0.12849846E+03</pdfrwt>
<totfact> 0.14240144E+03</totfact>
</mgrwt>
</event>
<event>
 7    1  0.8712071E-006  0.2714516E+03  0.7546771E-02  0.1102518E+00
          2   -1    0    0  501    0  0.00000000000E+00  0.00000000000E+00  0.89810912598E+03  0.89810912598E+03  0.00000000000E+00 0. -1.
         -2   -1    0    0    0  501 -0.00000000000E+00 -0.00000000000E+00 -0.10086500021E+03  0.10086500021E+03  0.00000000000E+00 0.  1.
         23    2    1    2    0    0  0.88130068946E+02 -0.22426500491E+03  0.16821242202E+03  0.31934524909E+03  0.12499707083E+03 0.  0.
          5    1    3    3  502    0  0.21744246548E+02  0.11992434484E+02  0.22897016289E+02  0.34102699273E+02  0.47000000000E+01 0. -1.
         -5    1    3    3    0  502  0.66385822398E+02 -0.23625743939E+03  0.14531540573E+03  0.28524254981E+03  0.47000000000E+01 0. -1.
        -11    1    1    2    0    0 -0.98010259422E+02  0.13159003773E+03  0.39519114943E+03  0.42789951340E+03  0.00000000000E+00 0. -1.
         11    1    1    2    0    0  0.98801904762E+01  0.92674967179E+02  0.23384055432E+03  0.25172936370E+03  0.00000000000E+00 0.  1.
<mgrwt>
<rscale>  0 0.26784803E+03</rscale>
<asrwt>0</asrwt>
<pdfrwt beam="1">  1        2 0.13817063E+00 0.27145160E+03</pdfrwt>
<pdfrwt beam="2">  1       -2 0.15517693E-01 0.27145160E+03</pdfrwt>
<totfact> 0.98739988E+02</totfact>
</mgrwt>
</event>
<event>
 7    1  0.8712071E-006  0.2105513E+03  0.7546771E-02  0.1145060E+00
         -2   -1    0    0    0  501 -0.00000000000E+00  0.00000000000E+00  0.40195443519E+02  0.40195443519E+02  0.00000000000E+00 0.  1.
          2   -1    0    0  501    0  0.00000000000E+00 -0.00000000000E+00 -0.10097255089E+04  0.10097255089E+04  0.00000000000E+00 0. -1.
         23    2    1    2    0    0  0.15545504215E+03  0.67382904801E+02 -0.47536021453E+03  0.51990306136E+03  0.12500053467E+03 0.  0.
          5    1    3    3  502    0 -0.16370354640E+00  0.44470321142E+02 -0.53979445897E+02  0.70096411040E+02  0.47000000000E+01 0. -1.
         -5    1    3    3    0  502  0.15561874570E+03  0.22912583659E+02 -0.42138076863E+03  0.44980665032E+03  0.47000000000E+01 0. -1.
        -11    1    1    2    0    0 -0.42355621216E+02  0.12462100485E+02 -0.61277194947E+02  0.75526135991E+02  0.00000000000E+00 0.  1.
         11    1    1    2    0    0 -0.11309942093E+03 -0.79845005286E+02 -0.43289265591E+03  0.45449175507E+03  0.00000000000E+00 0. -1.
<mgrwt>
<rscale>  0 0.20564782E+03</rscale>
<asrwt>0</asrwt>
<pdfrwt beam="2">  1        2 0.15534240E+00 0.21055132E+03</pdfrwt>
<pdfrwt beam="1">  1       -2 0.61839139E-02 0.21055132E+03</pdfrwt>
<totfact> 0.36325828E+03</totfact>
</mgrwt>
</event>
<event>
 7    1  0.8712071E-006  0.1521088E+03  0.7546771E-02  0.1206433E+00
         -1   -1    0    0    0  501 -0.00000000000E+00  0.00000000000E+00  0.11625397223E+03  0.11625397223E+03  0.00000000000E+00 0.  1.
          1   -1    0    0  501    0  0.00000000000E+00 -0.00000000000E+00 -0.18218846878E+03  0.18218846878E+03  0.00000000000E+00 0. -1.
         23    2    1    2    0    0  0.48597168233E+02  0.71763985598E+02  0.73161008541E+01  0.15228468024E+03  0.12500137645E+03 0.  0.
          5    1    3    3  502    0 -0.74909892624E+01  0.19502394686E+02 -0.51349999065E+02  0.55636055958E+02  0.47000000000E+01 0.  1.
         -5    1    3    3    0  502  0.56088157495E+02  0.52261590912E+02  0.58666099919E+02  0.96648624282E+02  0.47000000000E+01 0.  1.
        -11    1    1    2    0    0 -0.50474936271E+02 -0.85251759946E+02 -0.83133237302E+02  0.12933180935E+03  0.00000000000E+00 0. -1.
         11    1    1    2    0    0  0.18777680383E+01  0.13487774348E+02  0.98826398960E+01  0.16825951414E+02  0.00000000000E+00 0.  1.
<mgrwt>
<rscale>  0 0.14525087E+03</rscale>
<asrwt>0</asrwt>
<pdfrwt beam="2">  1        1 0.28028995E-01 0.15210884E+03</pdfrwt>
<pdfrwt beam="1">  1       -1 0.17885227E-01 0.15210884E+03</pdfrwt>
<totfact> 0.38678158E+03</totfact>
</mgrwt>
</event>
<event>
 7    1  0.8712071E-006  0.2049357E+03  0.7546771E-02  0.1149761E+00
         -1   -1    0    0    0  501 -0.00000000000E+00  0.00000000000E+00  0.10006671861E+03  0.10006671861E+03  0.00000000000E+00 0.  1.
          1   -1    0    0  501    0  0.00000000000E+00 -0.00000000000E+00 -0.39304581831E+03  0.39304581831E+03  0.00000000000E+00 0. -1.
         23    2    1    2    0    0  0.12915105181E+03 -0.98371997766E+02 -0.11110747448E+03  0.23311696278E+03  0.12506639567E+03 0.  0.
          5    1    3    3  502    0  0.11810306978E+03 -0.87398005338E+02 -0.29533203753E+02  0.14993680853E+03  0.47000000000E+01 0. -1.
         -5    1    3    3    0  502  0.11047982026E+02 -0.10973992427E+02 -0.81574270729E+02  0.83180154253E+02  0.47000000000E+01 0. -1.
        -11    1    1    2    0    0 -0.66978201312E+02  0.96495854100E+02 -0.85465303008E+02  0.14526474909E+03  0.00000000000E+00 0.  1.
         11    1    1    2    0    0 -0.62172850495E+02  0.18761436658E+01 -0.96406322214E+02  0.11473082505E+03  0.00000000000E+00 0. -1.
<mgrwt>
<rscale>  0 0.19997363E+03</rscale>
<asrwt>0</asrwt>
<pdfrwt beam="2">  1        1 0.60468589E-01 0.20493572E+03</pdfrwt>
<pdfrwt beam="1">  1       -1 0.15394880E-01 0.20493572E+03</pdfrwt>
<totfact> 0.18958554E+03</totfact>
</mgrwt>
</event>
<event>
 7    1  0.8712071E-006  0.1959560E+03  0.7546771E-02  0.1157681E+00
         -1   -1    0    0    0  501 -0.00000000000E+00  0.00000000000E+00  0.26661741768E+02  0.26661741768E+02  0.00000000000E+00 0.  1.
          1   -1    0    0  501    0  0.00000000000E+00 -0.00000000000E+00 -0.13034566360E+04  0.13034566360E+04  0.00000000000E+00 0. -1.
         23    2    1    2    0    0 -0.15054559990E+03 -0.10530315218E+02 -0.63736444372E+03  0.66680747201E+03  0.12499562163E+03 0.  0.
          5    1    3    3  502    0 -0.21993798448E+01 -0.36963518732E+02 -0.21791644268E+03  0.22109003817E+03  0.47000000000E+01 0.  1.
         -5    1    3    3    0  502 -0.14834622006E+03  0.26433203514E+02 -0.41944800104E+03  0.44571743385E+03  0.47000000000E+01 0.  1.
        -11    1    1    2    0    0  0.12746248575E+02  0.16290524841E+02 -0.20216703892E+02  0.28923401746E+02  0.00000000000E+00 0.  1.
         11    1    1    2    0    0  0.13779935133E+03 -0.57602096225E+01 -0.61921374667E+03  0.63438750405E+03  0.00000000000E+00 0. -1.
<mgrwt>
<rscale>  0 0.19086733E+03</rscale>
<asrwt>0</asrwt>
<pdfrwt beam="2">  1        1 0.20053180E+00 0.19595604E+03</pdfrwt>
<pdfrwt beam="1">  1       -1 0.41018062E-02 0.19595604E+03</pdfrwt>
<totfact> 0.22945868E+03</totfact>
</mgrwt>
</event>
<event>
 6    1  0.8712071E-006  0.3110131E+03  0.7546771E-02  0.1089887E+00
          3   -1    0    0  501    0  0.00000000000E+00  0.00000000000E+00  0.11261387963E+03  0.11261387963E+03  0.00000000000E+00 0. -1.
         -3   -1    0    0    0  501 -0.00000000000E+00 -0.00000000000E+00 -0.76152734728E+03  0.76152734728E+03  0.00000000000E+00 0.  1.
          5    1    1    2  502    0 -0.48834911884E+02 -0.10239676869E+02 -0.80500581804E+02  0.94826859443E+02  0.47000000000E+01 0. -1.
         -5    1    1    2    0  502  0.24438585841E+03 -0.91166442225E+02 -0.43294765361E+03  0.50547159045E+03  0.47000000000E+01 0.  1.
        -11    1    1    2    0    0 -0.92944283659E+02  0.29808627309E+01 -0.74444984617E+02  0.11912002830E+03  0.00000000000E+00 0.  1.
         11    1    1    2    0    0 -0.10260666287E+03  0.98425256362E+02 -0.61020247613E+02  0.15472274873E+03  0.00000000000E+00 0. -1.
<mgrwt>
<rscale>  0 0.29088644E+03</rscale>
<asrwt>0</asrwt>
<pdfrwt beam="1">  1        3 0.17325211E-01 0.31101308E+03</pdfrwt>
<pdfrwt beam="2">  1       -3 0.11715806E+00 0.31101308E+03</pdfrwt>
<totfact> 0.45434338E+01</totfact>
</mgrwt>
</event>
